/*--------------------------------*- C++ -*----------------------------------*\
| =========                 |                                                 |
| \\      /  F ield         | OpenFOAM: The Open Source CFD Toolbox           |
|  \\    /   O peration     | Version:  4.1                                   |
|   \\  /    A nd           | Web:      www.OpenFOAM.org                      |
|    \\/     M anipulation  |                                                 |
\*---------------------------------------------------------------------------*/
FoamFile
{
    version     2.0;
    format      ascii;
    class       volScalarField;
    location    "355";
    object      p;
}
// * * * * * * * * * * * * * * * * * * * * * * * * * * * * * * * * * * * * * //

dimensions      [1 -1 -2 0 0 0 0];

internalField   nonuniform List<scalar> 
3264
(
0.712478
0.712477
0.712476
0.712475
0.712475
0.712476
0.712477
0.712479
0.712481
0.712485
0.712489
0.712494
0.7125
0.712507
0.712515
0.712525
0.712535
0.712546
0.712558
0.712572
0.712586
0.712602
0.712619
0.712638
0.712658
0.71268
0.712703
0.712729
0.712756
0.712786
0.712819
0.712854
0.712891
0.712932
0.712976
0.713023
0.713072
0.713125
0.713181
0.71324
0.713302
0.713366
0.713433
0.713501
0.71357
0.713641
0.713712
0.713783
0.713854
0.713923
0.713991
0.714056
0.714119
0.714179
0.714235
0.714287
0.714336
0.714379
0.714419
0.714453
0.714484
0.71451
0.714531
0.714549
0.714563
0.714574
0.714581
0.714587
0.714589
0.71459
0.71459
0.714589
0.714586
0.714584
0.714581
0.714578
0.714575
0.714573
0.714571
0.71457
0.714569
0.71457
0.71457
0.714572
0.714574
0.714576
0.714579
0.714583
0.714587
0.714591
0.714595
0.714599
0.714603
0.714607
0.714611
0.714615
0.714619
0.714623
0.714626
0.714629
0.714631
0.714634
0.714636
0.714638
0.71464
0.714641
0.714642
0.714643
0.714644
0.714645
0.714645
0.714645
0.714646
0.714646
0.714646
0.714646
0.714646
0.714646
0.714646
0.714646
0.714646
0.714646
0.714647
0.714647
0.714648
0.714649
0.71465
0.714651
0.714652
0.714654
0.714655
0.714657
0.714659
0.714661
0.714663
0.714665
0.714667
0.714669
0.714671
0.714672
0.714673
0.714674
0.714675
0.714675
0.714674
0.714673
0.714672
0.71467
0.714667
0.714664
0.71466
0.714655
0.71465
0.714645
0.714639
0.714632
0.714625
0.714618
0.714611
0.714603
0.714595
0.714587
0.714578
0.71457
0.714562
0.714553
0.714545
0.714537
0.714529
0.714521
0.714514
0.714506
0.714499
0.714492
0.714485
0.714478
0.714472
0.714465
0.714459
0.714452
0.714446
0.714439
0.714433
0.714426
0.714419
0.714412
0.714405
0.714398
0.71439
0.714382
0.714374
0.714366
0.714357
0.714348
0.714339
0.71433
0.71432
0.714311
0.714301
0.714291
0.71248
0.712478
0.712478
0.712477
0.712477
0.712478
0.712479
0.712481
0.712483
0.712487
0.712491
0.712496
0.712502
0.712509
0.712517
0.712526
0.712536
0.712547
0.71256
0.712573
0.712588
0.712603
0.712621
0.712639
0.712659
0.712681
0.712704
0.712729
0.712757
0.712786
0.712818
0.712853
0.71289
0.71293
0.712973
0.71302
0.713069
0.713121
0.713177
0.713235
0.713296
0.71336
0.713426
0.713494
0.713563
0.713634
0.713705
0.713776
0.713846
0.713915
0.713983
0.714048
0.714111
0.714171
0.714227
0.71428
0.714328
0.714372
0.714411
0.714446
0.714477
0.714503
0.714525
0.714543
0.714557
0.714568
0.714576
0.714582
0.714585
0.714586
0.714586
0.714585
0.714584
0.714581
0.714579
0.714577
0.714575
0.714573
0.714572
0.714571
0.714571
0.714571
0.714572
0.714574
0.714576
0.714579
0.714582
0.714586
0.71459
0.714594
0.714598
0.714602
0.714606
0.71461
0.714614
0.714618
0.714622
0.714625
0.714628
0.714631
0.714633
0.714636
0.714638
0.714639
0.714641
0.714642
0.714643
0.714644
0.714645
0.714645
0.714646
0.714646
0.714646
0.714646
0.714646
0.714646
0.714646
0.714646
0.714646
0.714646
0.714646
0.714646
0.714646
0.714646
0.714647
0.714648
0.714649
0.71465
0.714651
0.714652
0.714654
0.714656
0.714657
0.714659
0.714661
0.714663
0.714665
0.714667
0.714669
0.71467
0.714672
0.714673
0.714673
0.714673
0.714673
0.714672
0.714671
0.714669
0.714666
0.714663
0.714659
0.714655
0.71465
0.714645
0.714639
0.714632
0.714626
0.714618
0.714611
0.714603
0.714595
0.714587
0.714578
0.71457
0.714562
0.714553
0.714545
0.714537
0.714529
0.714521
0.714514
0.714506
0.714499
0.714492
0.714485
0.714478
0.714471
0.714465
0.714458
0.714452
0.714445
0.714439
0.714432
0.714426
0.714419
0.714412
0.714405
0.714397
0.71439
0.714382
0.714374
0.714366
0.714357
0.714348
0.714339
0.71433
0.714321
0.714311
0.714301
0.714291
0.712481
0.712479
0.712478
0.712478
0.712477
0.712478
0.712478
0.71248
0.712482
0.712486
0.71249
0.712495
0.712501
0.712508
0.712516
0.712525
0.712535
0.712546
0.712559
0.712572
0.712586
0.712602
0.712619
0.712637
0.712657
0.712679
0.712702
0.712727
0.712754
0.712783
0.712815
0.712849
0.712886
0.712926
0.712968
0.713014
0.713063
0.713115
0.713171
0.713229
0.71329
0.713354
0.713419
0.713487
0.713556
0.713627
0.713697
0.713768
0.713839
0.713908
0.713975
0.714041
0.714103
0.714163
0.714219
0.714271
0.71432
0.714363
0.714403
0.714437
0.714468
0.714494
0.714516
0.714534
0.714548
0.714559
0.714567
0.714573
0.714576
0.714578
0.714578
0.714578
0.714576
0.714574
0.714572
0.71457
0.714569
0.714568
0.714567
0.714567
0.714567
0.714568
0.71457
0.714572
0.714575
0.714578
0.714582
0.714586
0.71459
0.714594
0.714599
0.714603
0.714608
0.714612
0.714616
0.71462
0.714624
0.714627
0.71463
0.714633
0.714635
0.714637
0.714639
0.714641
0.714642
0.714644
0.714645
0.714645
0.714646
0.714646
0.714646
0.714647
0.714647
0.714647
0.714646
0.714646
0.714646
0.714646
0.714646
0.714646
0.714646
0.714646
0.714646
0.714646
0.714647
0.714647
0.714648
0.714649
0.71465
0.714652
0.714653
0.714655
0.714657
0.714658
0.71466
0.714662
0.714664
0.714666
0.714668
0.714669
0.714671
0.714672
0.714672
0.714672
0.714672
0.714671
0.71467
0.714668
0.714665
0.714662
0.714659
0.714654
0.71465
0.714644
0.714638
0.714632
0.714625
0.714618
0.714611
0.714603
0.714595
0.714587
0.714579
0.71457
0.714562
0.714553
0.714545
0.714537
0.714529
0.714521
0.714514
0.714506
0.714499
0.714492
0.714485
0.714478
0.714471
0.714465
0.714458
0.714452
0.714445
0.714439
0.714432
0.714426
0.714419
0.714412
0.714405
0.714397
0.71439
0.714382
0.714374
0.714366
0.714357
0.714348
0.714339
0.71433
0.714321
0.714311
0.714301
0.714291
0.712476
0.712475
0.712474
0.712475
0.712474
0.712475
0.712476
0.712478
0.71248
0.712483
0.712488
0.712493
0.712499
0.712506
0.712514
0.712523
0.712533
0.712544
0.712557
0.71257
0.712584
0.7126
0.712617
0.712635
0.712655
0.712676
0.712699
0.712723
0.71275
0.712779
0.71281
0.712844
0.71288
0.712919
0.712962
0.713007
0.713056
0.713108
0.713163
0.713221
0.713281
0.713345
0.71341
0.713477
0.713546
0.713616
0.713686
0.713757
0.713827
0.713895
0.713962
0.714027
0.714089
0.714148
0.714203
0.714254
0.714302
0.714344
0.714383
0.714417
0.714447
0.714472
0.714494
0.714511
0.714525
0.714536
0.714544
0.71455
0.714554
0.714556
0.714557
0.714557
0.714556
0.714555
0.714554
0.714554
0.714553
0.714553
0.714553
0.714554
0.714556
0.714558
0.71456
0.714564
0.714568
0.714572
0.714576
0.714581
0.714587
0.714592
0.714597
0.714602
0.714608
0.714612
0.714617
0.714622
0.714626
0.71463
0.714633
0.714636
0.714639
0.714641
0.714643
0.714645
0.714646
0.714647
0.714648
0.714648
0.714649
0.714649
0.714649
0.714649
0.714649
0.714649
0.714648
0.714648
0.714648
0.714647
0.714647
0.714647
0.714647
0.714646
0.714646
0.714647
0.714647
0.714647
0.714648
0.714649
0.71465
0.714651
0.714652
0.714654
0.714656
0.714657
0.714659
0.714661
0.714663
0.714665
0.714666
0.714668
0.714669
0.71467
0.71467
0.71467
0.71467
0.714669
0.714668
0.714666
0.714663
0.71466
0.714656
0.714652
0.714648
0.714642
0.714637
0.71463
0.714624
0.714617
0.71461
0.714602
0.714594
0.714586
0.714578
0.71457
0.714562
0.714553
0.714545
0.714537
0.714529
0.714522
0.714514
0.714506
0.714499
0.714492
0.714485
0.714478
0.714472
0.714465
0.714459
0.714452
0.714446
0.714439
0.714433
0.714426
0.714419
0.714412
0.714405
0.714398
0.71439
0.714382
0.714374
0.714366
0.714357
0.714348
0.714339
0.71433
0.714321
0.714311
0.714301
0.714292
0.712473
0.712473
0.71247
0.712471
0.71247
0.71247
0.712471
0.712473
0.712475
0.712479
0.712483
0.712489
0.712495
0.712503
0.712511
0.71252
0.71253
0.712542
0.712554
0.712567
0.712582
0.712597
0.712614
0.712632
0.712652
0.712673
0.712695
0.71272
0.712746
0.712775
0.712806
0.712839
0.712876
0.712915
0.712957
0.713002
0.713051
0.713102
0.713157
0.713215
0.713275
0.713338
0.713403
0.71347
0.713538
0.713607
0.713676
0.713746
0.713814
0.713881
0.713947
0.71401
0.71407
0.714127
0.71418
0.71423
0.714275
0.714316
0.714353
0.714385
0.714413
0.714437
0.714457
0.714474
0.714487
0.714497
0.714505
0.714511
0.714515
0.714518
0.714519
0.71452
0.714521
0.714521
0.714522
0.714522
0.714523
0.714525
0.714527
0.714529
0.714533
0.714536
0.714541
0.714546
0.714551
0.714557
0.714563
0.71457
0.714576
0.714583
0.71459
0.714597
0.714603
0.714609
0.714615
0.714621
0.714626
0.714631
0.714635
0.714639
0.714642
0.714645
0.714648
0.71465
0.714651
0.714653
0.714654
0.714654
0.714655
0.714655
0.714655
0.714654
0.714654
0.714654
0.714653
0.714652
0.714652
0.714651
0.714651
0.71465
0.71465
0.714649
0.714649
0.714649
0.714649
0.714649
0.71465
0.71465
0.714651
0.714652
0.714653
0.714655
0.714656
0.714657
0.714659
0.71466
0.714662
0.714663
0.714665
0.714666
0.714667
0.714667
0.714667
0.714667
0.714666
0.714665
0.714664
0.714662
0.714659
0.714656
0.714652
0.714648
0.714643
0.714638
0.714633
0.714627
0.71462
0.714614
0.714607
0.7146
0.714592
0.714584
0.714577
0.714569
0.714561
0.714553
0.714545
0.714538
0.71453
0.714522
0.714515
0.714508
0.7145
0.714493
0.714486
0.71448
0.714473
0.714466
0.71446
0.714453
0.714447
0.71444
0.714433
0.714426
0.714419
0.714412
0.714405
0.714398
0.71439
0.714382
0.714374
0.714365
0.714357
0.714348
0.714339
0.71433
0.714321
0.714311
0.714301
0.714292
0.712441
0.712456
0.712456
0.712462
0.712463
0.712465
0.712467
0.712469
0.712472
0.712476
0.712481
0.712487
0.712493
0.712501
0.712509
0.712518
0.712529
0.71254
0.712552
0.712566
0.71258
0.712596
0.712613
0.712631
0.71265
0.712671
0.712694
0.712718
0.712745
0.712774
0.712805
0.712838
0.712875
0.712914
0.712956
0.713002
0.71305
0.713101
0.713156
0.713213
0.713273
0.713335
0.7134
0.713465
0.713532
0.7136
0.713668
0.713735
0.713801
0.713866
0.713929
0.713989
0.714046
0.7141
0.71415
0.714197
0.714239
0.714276
0.71431
0.714339
0.714365
0.714386
0.714404
0.714419
0.714431
0.71444
0.714448
0.714454
0.714458
0.714461
0.714464
0.714467
0.714469
0.714471
0.714474
0.714476
0.71448
0.714484
0.714488
0.714493
0.714499
0.714505
0.714511
0.714519
0.714526
0.714534
0.714542
0.714551
0.71456
0.714568
0.714577
0.714586
0.714594
0.714602
0.71461
0.714617
0.714624
0.714631
0.714637
0.714642
0.714647
0.714651
0.714654
0.714657
0.71466
0.714661
0.714663
0.714664
0.714665
0.714665
0.714665
0.714664
0.714664
0.714663
0.714663
0.714662
0.714661
0.71466
0.714659
0.714658
0.714657
0.714656
0.714656
0.714655
0.714655
0.714655
0.714655
0.714655
0.714655
0.714656
0.714656
0.714657
0.714658
0.714659
0.71466
0.714661
0.714662
0.714663
0.714663
0.714664
0.714664
0.714664
0.714664
0.714663
0.714662
0.71466
0.714658
0.714656
0.714653
0.714649
0.714646
0.714641
0.714637
0.714632
0.714626
0.714621
0.714615
0.714608
0.714602
0.714595
0.714588
0.714581
0.714574
0.714567
0.71456
0.714552
0.714545
0.714538
0.714531
0.714523
0.714516
0.714509
0.714502
0.714495
0.714488
0.714482
0.714475
0.714468
0.714462
0.714455
0.714448
0.714441
0.714434
0.714427
0.71442
0.714413
0.714405
0.714398
0.71439
0.714382
0.714374
0.714365
0.714357
0.714348
0.714339
0.71433
0.71432
0.714311
0.714301
0.714292
0.71244
0.712457
0.712455
0.712459
0.712459
0.712461
0.712464
0.712467
0.71247
0.712475
0.71248
0.712486
0.712492
0.7125
0.712509
0.712518
0.712529
0.71254
0.712553
0.712566
0.712581
0.712597
0.712614
0.712632
0.712652
0.712673
0.712696
0.712721
0.712748
0.712777
0.712809
0.712843
0.71288
0.71292
0.712963
0.713008
0.713057
0.713109
0.713163
0.71322
0.71328
0.713341
0.713404
0.713469
0.713534
0.713599
0.713664
0.713729
0.713792
0.713853
0.713912
0.713968
0.714021
0.71407
0.714116
0.714157
0.714195
0.714228
0.714257
0.714283
0.714304
0.714323
0.714338
0.714351
0.714361
0.71437
0.714377
0.714383
0.714388
0.714393
0.714397
0.714402
0.714406
0.714411
0.714416
0.714422
0.714428
0.714434
0.714442
0.714449
0.714458
0.714466
0.714476
0.714485
0.714495
0.714506
0.714516
0.714527
0.714538
0.714549
0.71456
0.714571
0.714581
0.714592
0.714601
0.714611
0.71462
0.714628
0.714636
0.714643
0.71465
0.714656
0.714661
0.714666
0.714669
0.714672
0.714675
0.714677
0.714678
0.714679
0.714679
0.714679
0.714679
0.714679
0.714678
0.714677
0.714675
0.714674
0.714673
0.714672
0.71467
0.714669
0.714668
0.714667
0.714666
0.714665
0.714664
0.714664
0.714663
0.714663
0.714663
0.714663
0.714663
0.714663
0.714663
0.714663
0.714663
0.714663
0.714663
0.714662
0.714662
0.714661
0.714659
0.714658
0.714656
0.714654
0.714651
0.714648
0.714645
0.714641
0.714637
0.714632
0.714628
0.714623
0.714617
0.714612
0.714606
0.714601
0.714595
0.714589
0.714583
0.714576
0.71457
0.714564
0.714557
0.714551
0.714544
0.714538
0.714531
0.714525
0.714518
0.714511
0.714505
0.714498
0.714491
0.714485
0.714478
0.714471
0.714464
0.714457
0.71445
0.714443
0.714436
0.714429
0.714421
0.714414
0.714406
0.714398
0.71439
0.714382
0.714373
0.714365
0.714356
0.714347
0.714338
0.714329
0.71432
0.71431
0.714301
0.714291
0.712286
0.712424
0.712441
0.712462
0.712465
0.712469
0.71247
0.712473
0.712476
0.712479
0.712484
0.71249
0.712496
0.712504
0.712512
0.712522
0.712532
0.712544
0.712557
0.712571
0.712586
0.712602
0.71262
0.712639
0.712659
0.712681
0.712705
0.712731
0.712759
0.71279
0.712823
0.712858
0.712896
0.712937
0.712981
0.713027
0.713077
0.713129
0.713183
0.71324
0.713299
0.713359
0.713421
0.713483
0.713546
0.713608
0.71367
0.71373
0.713789
0.713845
0.713899
0.713949
0.713996
0.714039
0.714079
0.714114
0.714146
0.714174
0.714198
0.714219
0.714237
0.714252
0.714265
0.714276
0.714286
0.714294
0.714301
0.714308
0.714315
0.714322
0.714328
0.714335
0.714343
0.71435
0.714358
0.714367
0.714376
0.714386
0.714396
0.714406
0.714417
0.714429
0.714441
0.714453
0.714465
0.714478
0.71449
0.714503
0.714516
0.71453
0.714542
0.714555
0.714568
0.71458
0.714592
0.714604
0.714615
0.714626
0.714636
0.714645
0.714654
0.714661
0.714669
0.714675
0.71468
0.714685
0.714689
0.714692
0.714695
0.714697
0.714698
0.714698
0.714699
0.714698
0.714698
0.714697
0.714695
0.714694
0.714692
0.714691
0.714689
0.714687
0.714685
0.714683
0.714682
0.71468
0.714678
0.714677
0.714676
0.714674
0.714673
0.714672
0.714671
0.71467
0.714669
0.714668
0.714666
0.714665
0.714664
0.714662
0.71466
0.714658
0.714655
0.714653
0.71465
0.714646
0.714643
0.714639
0.714635
0.714631
0.714626
0.714621
0.714617
0.714612
0.714607
0.714602
0.714597
0.714591
0.714586
0.714581
0.714576
0.71457
0.714565
0.71456
0.714554
0.714549
0.714543
0.714538
0.714532
0.714526
0.71452
0.714514
0.714507
0.714501
0.714495
0.714488
0.714481
0.714475
0.714468
0.714461
0.714453
0.714446
0.714439
0.714431
0.714423
0.714415
0.714407
0.714399
0.71439
0.714382
0.714373
0.714364
0.714356
0.714347
0.714337
0.714328
0.714319
0.71431
0.7143
0.714291
0.713012
0.712956
0.712893
0.712826
0.712754
0.712676
0.712589
0.712471
0.713018
0.712972
0.712909
0.71284
0.712767
0.712689
0.712599
0.712502
0.713022
0.712983
0.712925
0.71286
0.712791
0.712719
0.712648
0.712579
0.713032
0.712998
0.712946
0.712884
0.71282
0.712756
0.712693
0.712635
0.713045
0.713013
0.712964
0.712907
0.712848
0.712791
0.712737
0.712689
0.713059
0.713026
0.712978
0.712924
0.71287
0.712818
0.71277
0.712727
0.713074
0.713037
0.712987
0.712934
0.712883
0.712835
0.712791
0.712751
0.713082
0.713035
0.712985
0.712935
0.712886
0.71284
0.712797
0.712758
0.71241
0.71243
0.712451
0.712462
0.712467
0.712471
0.712473
0.712476
0.712479
0.712483
0.712488
0.712494
0.712501
0.712509
0.712518
0.712528
0.712539
0.712551
0.712565
0.71258
0.712596
0.712613
0.712632
0.712653
0.712675
0.712699
0.712725
0.712752
0.712782
0.712815
0.71285
0.712887
0.712927
0.712969
0.713015
0.713062
0.713113
0.713165
0.71322
0.713276
0.713334
0.713393
0.713452
0.713512
0.713571
0.713629
0.713686
0.713741
0.713794
0.713844
0.713891
0.713934
0.713974
0.71401
0.714043
0.714072
0.714097
0.71412
0.714139
0.714156
0.71417
0.714183
0.714195
0.714205
0.714215
0.714224
0.714233
0.714242
0.714251
0.71426
0.714269
0.714279
0.714289
0.7143
0.714311
0.714322
0.714334
0.714346
0.714359
0.714372
0.714385
0.714398
0.714412
0.714426
0.71444
0.714455
0.714469
0.714484
0.714499
0.714513
0.714528
0.714543
0.714557
0.714571
0.714585
0.714599
0.714612
0.714624
0.714636
0.714647
0.714658
0.714667
0.714676
0.714685
0.714692
0.714698
0.714704
0.714709
0.714712
0.714715
0.714718
0.714719
0.71472
0.714721
0.71472
0.71472
0.714718
0.714717
0.714715
0.714713
0.714711
0.714709
0.714706
0.714704
0.714701
0.714699
0.714696
0.714694
0.714691
0.714689
0.714686
0.714684
0.714681
0.714679
0.714676
0.714674
0.714671
0.714668
0.714665
0.714662
0.714659
0.714655
0.714651
0.714647
0.714643
0.714639
0.714634
0.714629
0.714624
0.71462
0.714615
0.71461
0.714605
0.7146
0.714595
0.714591
0.714586
0.714582
0.714577
0.714573
0.714569
0.714564
0.71456
0.714556
0.714551
0.714547
0.714542
0.714537
0.714532
0.714527
0.714522
0.714516
0.714511
0.714505
0.714498
0.714492
0.714485
0.714478
0.714471
0.714464
0.714457
0.714449
0.714441
0.714433
0.714425
0.714417
0.714408
0.7144
0.714391
0.714382
0.714373
0.714364
0.714355
0.714346
0.714337
0.714328
0.714318
0.714309
0.7143
0.71429
0.712431
0.712441
0.712454
0.712467
0.712474
0.712479
0.712483
0.712486
0.712489
0.712493
0.712498
0.712504
0.712512
0.71252
0.712529
0.71254
0.712552
0.712566
0.712581
0.712597
0.712615
0.712634
0.712655
0.712677
0.712702
0.712728
0.712757
0.712787
0.71282
0.712855
0.712892
0.712932
0.712974
0.713019
0.713066
0.713115
0.713166
0.713219
0.713274
0.713329
0.713385
0.713442
0.713498
0.713554
0.713608
0.713661
0.713712
0.71376
0.713806
0.713848
0.713887
0.713923
0.713955
0.713984
0.71401
0.714033
0.714053
0.714071
0.714086
0.714101
0.714114
0.714126
0.714138
0.714149
0.71416
0.714171
0.714182
0.714194
0.714205
0.714217
0.714229
0.714241
0.714254
0.714267
0.71428
0.714293
0.714307
0.714321
0.714335
0.714349
0.714364
0.714379
0.714394
0.714409
0.714424
0.71444
0.714456
0.714471
0.714487
0.714503
0.714519
0.714535
0.714551
0.714566
0.714581
0.714596
0.714611
0.714625
0.714638
0.714651
0.714663
0.714674
0.714685
0.714695
0.714703
0.714711
0.714718
0.714724
0.71473
0.714734
0.714737
0.71474
0.714741
0.714742
0.714743
0.714742
0.714742
0.71474
0.714738
0.714736
0.714734
0.714731
0.714728
0.714725
0.714722
0.714718
0.714715
0.714711
0.714708
0.714704
0.7147
0.714696
0.714693
0.714689
0.714685
0.71468
0.714676
0.714672
0.714667
0.714662
0.714657
0.714652
0.714647
0.714642
0.714636
0.714631
0.714626
0.71462
0.714615
0.714609
0.714604
0.714599
0.714594
0.714589
0.714585
0.714581
0.714577
0.714573
0.714569
0.714565
0.714562
0.714559
0.714555
0.714552
0.714548
0.714545
0.714541
0.714537
0.714533
0.714529
0.714524
0.714519
0.714514
0.714508
0.714502
0.714496
0.714489
0.714482
0.714475
0.714468
0.71446
0.714452
0.714444
0.714436
0.714427
0.714418
0.71441
0.714401
0.714392
0.714382
0.714373
0.714364
0.714355
0.714346
0.714336
0.714327
0.714318
0.714308
0.714299
0.71429
0.712526
0.712502
0.712496
0.712496
0.712497
0.712499
0.7125
0.712502
0.712505
0.712509
0.712513
0.71252
0.712527
0.712536
0.712546
0.712558
0.712572
0.712587
0.712603
0.712621
0.712641
0.712663
0.712686
0.712711
0.712739
0.712768
0.7128
0.712833
0.712869
0.712907
0.712948
0.71299
0.713035
0.713082
0.713131
0.713181
0.713233
0.713285
0.713339
0.713392
0.713446
0.713499
0.713551
0.713601
0.71365
0.713696
0.71374
0.71378
0.713818
0.713852
0.713884
0.713912
0.713937
0.71396
0.713981
0.714
0.714017
0.714033
0.714048
0.714062
0.714075
0.714089
0.714102
0.714115
0.714128
0.714141
0.714154
0.714167
0.71418
0.714194
0.714207
0.714221
0.714235
0.714249
0.714264
0.714278
0.714293
0.714307
0.714322
0.714337
0.714353
0.714368
0.714384
0.7144
0.714416
0.714432
0.714449
0.714465
0.714482
0.714498
0.714515
0.714532
0.714548
0.714565
0.714581
0.714597
0.714612
0.714627
0.714642
0.714656
0.714669
0.714681
0.714693
0.714704
0.714714
0.714723
0.714731
0.714739
0.714745
0.71475
0.714754
0.714758
0.71476
0.714762
0.714762
0.714763
0.714762
0.714761
0.714759
0.714757
0.714754
0.714751
0.714747
0.714744
0.71474
0.714736
0.714731
0.714727
0.714722
0.714717
0.714712
0.714707
0.714702
0.714697
0.714691
0.714686
0.71468
0.714674
0.714668
0.714662
0.714656
0.71465
0.714643
0.714637
0.714631
0.714625
0.714618
0.714612
0.714606
0.714601
0.714595
0.71459
0.714585
0.714581
0.714577
0.714573
0.714569
0.714566
0.714563
0.71456
0.714557
0.714555
0.714552
0.714549
0.714547
0.714544
0.714541
0.714538
0.714534
0.71453
0.714526
0.714521
0.714516
0.714511
0.714505
0.714499
0.714492
0.714486
0.714478
0.714471
0.714463
0.714455
0.714446
0.714437
0.714429
0.71442
0.714411
0.714401
0.714392
0.714383
0.714373
0.714364
0.714355
0.714345
0.714336
0.714327
0.714317
0.714308
0.714299
0.71429
0.712588
0.712561
0.712546
0.712538
0.712533
0.71253
0.712529
0.712528
0.712529
0.712531
0.712535
0.712541
0.712548
0.712557
0.712568
0.71258
0.712595
0.712611
0.712629
0.712649
0.712671
0.712695
0.712721
0.712749
0.712779
0.712812
0.712846
0.712883
0.712922
0.712963
0.713006
0.713051
0.713098
0.713146
0.713196
0.713246
0.713298
0.713349
0.7134
0.713451
0.713501
0.713549
0.713596
0.71364
0.713682
0.713721
0.713758
0.713791
0.713822
0.713851
0.713876
0.7139
0.713922
0.713942
0.713961
0.713978
0.713995
0.714011
0.714026
0.714041
0.714056
0.71407
0.714085
0.714099
0.714114
0.714128
0.714142
0.714156
0.714171
0.714185
0.714199
0.714214
0.714228
0.714243
0.714257
0.714272
0.714287
0.714302
0.714318
0.714333
0.714349
0.714365
0.714381
0.714397
0.714413
0.71443
0.714447
0.714463
0.71448
0.714498
0.714515
0.714532
0.714549
0.714566
0.714582
0.714599
0.714615
0.714631
0.714646
0.714661
0.714675
0.714688
0.714701
0.714713
0.714723
0.714733
0.714742
0.71475
0.714757
0.714763
0.714768
0.714772
0.714775
0.714777
0.714778
0.714778
0.714778
0.714777
0.714775
0.714772
0.714769
0.714766
0.714762
0.714758
0.714753
0.714749
0.714744
0.714738
0.714733
0.714727
0.714721
0.714715
0.714709
0.714702
0.714696
0.714689
0.714682
0.714675
0.714668
0.714661
0.714654
0.714647
0.71464
0.714633
0.714626
0.714619
0.714613
0.714607
0.7146
0.714595
0.714589
0.714584
0.714579
0.714575
0.714571
0.714568
0.714564
0.714562
0.714559
0.714557
0.714554
0.714552
0.71455
0.714548
0.714546
0.714544
0.714541
0.714538
0.714535
0.714532
0.714528
0.714523
0.714519
0.714513
0.714508
0.714502
0.714495
0.714488
0.714481
0.714473
0.714465
0.714456
0.714448
0.714439
0.71443
0.714421
0.714411
0.714402
0.714392
0.714383
0.714373
0.714364
0.714354
0.714345
0.714336
0.714326
0.714317
0.714308
0.714299
0.71429
0.712649
0.71262
0.7126
0.712586
0.712575
0.712567
0.712561
0.712557
0.712555
0.712555
0.712557
0.712562
0.712568
0.712577
0.712588
0.712601
0.712617
0.712634
0.712653
0.712675
0.712699
0.712725
0.712753
0.712783
0.712816
0.712851
0.712888
0.712927
0.712968
0.713011
0.713056
0.713102
0.71315
0.713199
0.713248
0.713298
0.713347
0.713396
0.713444
0.713491
0.713537
0.71358
0.713622
0.713661
0.713698
0.713732
0.713764
0.713793
0.71382
0.713845
0.713868
0.713889
0.713909
0.713929
0.713948
0.713966
0.713984
0.714001
0.714018
0.714034
0.71405
0.714065
0.71408
0.714095
0.71411
0.714124
0.714139
0.714153
0.714168
0.714182
0.714197
0.714211
0.714226
0.714241
0.714255
0.71427
0.714286
0.714301
0.714316
0.714332
0.714348
0.714364
0.71438
0.714397
0.714413
0.71443
0.714447
0.714464
0.714481
0.714499
0.714516
0.714533
0.714551
0.714568
0.714585
0.714602
0.714618
0.714635
0.71465
0.714665
0.71468
0.714694
0.714707
0.714719
0.71473
0.714741
0.71475
0.714758
0.714766
0.714772
0.714777
0.714781
0.714785
0.714787
0.714788
0.714789
0.714788
0.714787
0.714785
0.714783
0.714779
0.714776
0.714772
0.714767
0.714762
0.714757
0.714751
0.714745
0.714739
0.714733
0.714726
0.714719
0.714712
0.714705
0.714698
0.714691
0.714683
0.714675
0.714668
0.71466
0.714653
0.714645
0.714638
0.71463
0.714623
0.714616
0.71461
0.714603
0.714597
0.714591
0.714586
0.714581
0.714576
0.714572
0.714569
0.714565
0.714562
0.71456
0.714557
0.714555
0.714553
0.714551
0.71455
0.714548
0.714546
0.714544
0.714542
0.714539
0.714536
0.714533
0.714529
0.714525
0.71452
0.714515
0.714509
0.714503
0.714497
0.71449
0.714482
0.714474
0.714466
0.714457
0.714449
0.71444
0.714431
0.714421
0.714412
0.714402
0.714393
0.714383
0.714373
0.714364
0.714354
0.714345
0.714336
0.714326
0.714317
0.714308
0.714299
0.71429
0.712691
0.712662
0.712639
0.71262
0.712605
0.712593
0.712583
0.712576
0.712572
0.71257
0.712571
0.712575
0.712581
0.71259
0.712601
0.712615
0.712631
0.712649
0.712669
0.712692
0.712717
0.712744
0.712774
0.712806
0.71284
0.712876
0.712914
0.712954
0.712996
0.71304
0.713085
0.713132
0.713179
0.713227
0.713275
0.713324
0.713371
0.713418
0.713463
0.713507
0.713549
0.713588
0.713626
0.713662
0.713695
0.713726
0.713756
0.713783
0.71381
0.713835
0.713859
0.713882
0.713904
0.713925
0.713945
0.713964
0.713982
0.713999
0.714016
0.714032
0.714047
0.714063
0.714078
0.714093
0.714108
0.714123
0.714138
0.714152
0.714167
0.714182
0.714196
0.714211
0.714226
0.714241
0.714256
0.714271
0.714286
0.714301
0.714317
0.714333
0.714349
0.714365
0.714381
0.714398
0.714415
0.714432
0.714449
0.714466
0.714483
0.714501
0.714518
0.714536
0.714554
0.714571
0.714588
0.714605
0.714622
0.714638
0.714654
0.71467
0.714684
0.714698
0.714711
0.714724
0.714735
0.714746
0.714755
0.714764
0.714771
0.714778
0.714783
0.714787
0.714791
0.714793
0.714794
0.714794
0.714794
0.714793
0.714791
0.714788
0.714785
0.714781
0.714776
0.714771
0.714766
0.71476
0.714754
0.714748
0.714741
0.714735
0.714728
0.71472
0.714713
0.714706
0.714698
0.71469
0.714682
0.714675
0.714667
0.714659
0.714651
0.714644
0.714636
0.714629
0.714622
0.714615
0.714608
0.714602
0.714596
0.71459
0.714585
0.71458
0.714576
0.714572
0.714568
0.714565
0.714562
0.714559
0.714557
0.714555
0.714553
0.714552
0.71455
0.714548
0.714546
0.714544
0.714542
0.71454
0.714537
0.714534
0.71453
0.714526
0.714521
0.714516
0.71451
0.714504
0.714497
0.71449
0.714483
0.714475
0.714466
0.714458
0.714449
0.71444
0.714431
0.714421
0.714412
0.714402
0.714393
0.714383
0.714373
0.714364
0.714354
0.714345
0.714335
0.714326
0.714317
0.714308
0.714299
0.71429
0.712716
0.712686
0.712661
0.712639
0.712621
0.712605
0.712594
0.712585
0.712579
0.712577
0.712578
0.712581
0.712587
0.712596
0.712608
0.712621
0.712638
0.712656
0.712677
0.712701
0.712726
0.712754
0.712784
0.712817
0.712851
0.712887
0.712926
0.712966
0.713008
0.713052
0.713096
0.713142
0.713188
0.713235
0.713281
0.713327
0.713373
0.713417
0.71346
0.713502
0.713542
0.713581
0.713619
0.713655
0.71369
0.713722
0.713753
0.713782
0.713809
0.713834
0.713858
0.713881
0.713902
0.713923
0.713942
0.713961
0.713979
0.713997
0.714014
0.71403
0.714047
0.714062
0.714078
0.714093
0.714108
0.714123
0.714138
0.714152
0.714167
0.714182
0.714196
0.714211
0.714226
0.714241
0.714256
0.714271
0.714287
0.714302
0.714318
0.714334
0.71435
0.714366
0.714382
0.714399
0.714416
0.714433
0.71445
0.714467
0.714485
0.714502
0.71452
0.714538
0.714555
0.714573
0.71459
0.714607
0.714624
0.71464
0.714656
0.714672
0.714687
0.714701
0.714714
0.714726
0.714738
0.714748
0.714758
0.714766
0.714774
0.71478
0.714785
0.71479
0.714793
0.714795
0.714796
0.714797
0.714796
0.714795
0.714793
0.71479
0.714786
0.714782
0.714778
0.714773
0.714767
0.714761
0.714755
0.714749
0.714742
0.714735
0.714728
0.71472
0.714713
0.714705
0.714697
0.71469
0.714682
0.714674
0.714666
0.714658
0.714651
0.714643
0.714636
0.714628
0.714621
0.714614
0.714608
0.714601
0.714595
0.71459
0.714585
0.71458
0.714576
0.714572
0.714568
0.714565
0.714562
0.71456
0.714558
0.714556
0.714554
0.714552
0.71455
0.714549
0.714547
0.714545
0.714543
0.71454
0.714537
0.714534
0.71453
0.714526
0.714521
0.714516
0.71451
0.714504
0.714497
0.71449
0.714483
0.714475
0.714466
0.714458
0.714449
0.71444
0.714431
0.714421
0.714412
0.714402
0.714393
0.714383
0.714373
0.714364
0.714354
0.714345
0.714336
0.714326
0.714317
0.714308
0.714299
0.71429
0.712723
0.712691
0.712663
0.712639
0.712619
0.712602
0.71259
0.712581
0.712575
0.712572
0.712573
0.712577
0.712583
0.712592
0.712603
0.712617
0.712633
0.712652
0.712673
0.712696
0.712722
0.712749
0.712779
0.712811
0.712845
0.712881
0.712919
0.712959
0.713
0.713043
0.713087
0.713132
0.713178
0.713225
0.713271
0.713318
0.713363
0.713408
0.713452
0.713495
0.713537
0.713576
0.713614
0.713651
0.713685
0.713717
0.713748
0.713777
0.713804
0.71383
0.713854
0.713877
0.7139
0.713921
0.713941
0.71396
0.713978
0.713996
0.714013
0.71403
0.714046
0.714062
0.714077
0.714093
0.714108
0.714123
0.714138
0.714152
0.714167
0.714182
0.714197
0.714212
0.714227
0.714242
0.714257
0.714272
0.714287
0.714303
0.714319
0.714335
0.714351
0.714367
0.714384
0.714401
0.714418
0.714435
0.714452
0.71447
0.714487
0.714505
0.714523
0.71454
0.714558
0.714576
0.714593
0.71461
0.714627
0.714644
0.71466
0.714675
0.71469
0.714704
0.714717
0.71473
0.714741
0.714752
0.714761
0.714769
0.714777
0.714783
0.714788
0.714792
0.714795
0.714797
0.714798
0.714798
0.714798
0.714796
0.714794
0.71479
0.714787
0.714782
0.714778
0.714772
0.714767
0.714761
0.714754
0.714748
0.714741
0.714734
0.714726
0.714719
0.714711
0.714704
0.714696
0.714688
0.714681
0.714673
0.714665
0.714657
0.71465
0.714642
0.714635
0.714628
0.714621
0.714614
0.714607
0.714601
0.714596
0.71459
0.714585
0.71458
0.714576
0.714572
0.714569
0.714566
0.714563
0.714561
0.714559
0.714557
0.714555
0.714553
0.714551
0.71455
0.714548
0.714546
0.714543
0.714541
0.714538
0.714534
0.714531
0.714526
0.714521
0.714516
0.71451
0.714504
0.714497
0.71449
0.714483
0.714475
0.714466
0.714458
0.714449
0.71444
0.71443
0.714421
0.714412
0.714402
0.714392
0.714383
0.714373
0.714364
0.714354
0.714345
0.714336
0.714326
0.714317
0.714308
0.714299
0.71429
)
;

boundaryField
{
    inlet
    {
        type            zeroGradient;
    }
    outlet
    {