/*--------------------------------*- C++ -*----------------------------------*\
| =========                 |                                                 |
| \\      /  F ield         | OpenFOAM: The Open Source CFD Toolbox           |
|  \\    /   O peration     | Version:  4.1                                   |
|   \\  /    A nd           | Web:      www.OpenFOAM.org                      |
|    \\/     M anipulation  |                                                 |
\*---------------------------------------------------------------------------*/
FoamFile
{
    version     2.0;
    format      ascii;
    class       volVectorField;
    location    "0.0162";
    object      U;
}
// * * * * * * * * * * * * * * * * * * * * * * * * * * * * * * * * * * * * * //

dimensions      [0 1 -1 0 0 0 0];

internalField   nonuniform List<vector> 
441
(
(-0.000118802 0.000105376 0)
(-0.000552506 0.000298345 0)
(-0.00114631 0.000461862 0)
(-0.0018354 0.000553781 0)
(-0.00255134 0.000577661 0)
(-0.00323618 0.000547411 0)
(-0.00384582 0.000477502 0)
(-0.00434881 0.000380029 0)
(-0.0047237 0.000264278 0)
(-0.00495665 0.000137261 0)
(-0.00503957 4.51875e-06 0)
(-0.00496922 -0.00012905 0)
(-0.00474698 -0.000258412 0)
(-0.00437937 -0.000377623 0)
(-0.00387928 -0.000479042 0)
(-0.00326798 -0.000552603 0)
(-0.00257767 -0.000585415 0)
(-0.00185399 -0.000562375 0)
(-0.00115688 -0.000469328 0)
(-0.000556677 -0.000303049 0)
(-0.000119364 -0.000106745 0)
(-0.000346216 0.000522335 0)
(-0.00151424 0.00137723 0)
(-0.00303326 0.00199807 0)
(-0.00474792 0.00232703 0)
(-0.00650282 0.00239229 0)
(-0.0081673 0.00224885 0)
(-0.00964146 0.00195236 0)
(-0.0108536 0.00154933 0)
(-0.011755 0.00107558 0)
(-0.0123138 0.000558187 0)
(-0.0125117 1.85767e-05 0)
(-0.0123416 -0.000524298 0)
(-0.0118066 -0.00105095 0)
(-0.0109217 -0.00153836 0)
(-0.00971643 -0.001957 0)
(-0.00823922 -0.00226801 0)
(-0.00656319 -0.00242176 0)
(-0.00479144 -0.00236016 0)
(-0.00305885 -0.00202725 0)
(-0.00152499 -0.00139611 0)
(-0.000347903 -0.000528154 0)
(-0.000562984 0.00113327 0)
(-0.00233827 0.00287713 0)
(-0.00457432 0.00406203 0)
(-0.00705358 0.00466153 0)
(-0.00956541 0.00475257 0)
(-0.0119337 0.0044456 0)
(-0.0140234 0.00384762 0)
(-0.0157377 0.00304728 0)
(-0.0170104 0.0021127 0)
(-0.0177987 0.00109534 0)
(-0.0180781 3.58182e-05 0)
(-0.0178385 -0.00102998 0)
(-0.0170843 -0.00206517 0)
(-0.0158355 -0.00302611 0)
(-0.0141317 -0.00385666 0)
(-0.0120384 -0.00448286 0)
(-0.00965425 -0.00481005 0)
(-0.00711861 -0.00472642 0)
(-0.0046135 -0.00411959 0)
(-0.00235548 -0.00291475 0)
(-0.000566108 -0.00114506 0)
(-0.000746171 0.00191114 0)
(-0.00302855 0.00473778 0)
(-0.0058511 0.00657865 0)
(-0.0089441 0.00747439 0)
(-0.0120527 0.00757354 0)
(-0.0149671 0.00705648 0)
(-0.0175285 0.00609142 0)
(-0.0196237 0.00481599 0)
(-0.0211766 0.00333531 0)
(-0.0221383 0.00172833 0)
(-0.0224808 5.69603e-05 0)
(-0.0221925 -0.00162439 0)
(-0.0212777 -0.00325973 0)
(-0.0197582 -0.00478248 0)
(-0.0176784 -0.00610634 0)
(-0.0151133 -0.00711693 0)
(-0.0121782 -0.00766697 0)
(-0.00903739 -0.00758037 0)
(-0.00590851 -0.00667321 0)
(-0.00305467 -0.00480003 0)
(-0.000751316 -0.00193079 0)
(-0.000909106 0.0028379 0)
(-0.0036483 0.00692476 0)
(-0.00699887 0.00950974 0)
(-0.0106405 0.0107254 0)
(-0.0142757 0.0108132 0)
(-0.0176647 0.0100396 0)
(-0.0206295 0.00864497 0)
(-0.0230466 0.00682326 0)
(-0.0248346 0.00472094 0)
(-0.0259425 0.00244668 0)
(-0.0263412 8.45752e-05 0)
(-0.0260183 -0.00229219 0)
(-0.0249765 -0.00460822 0)
(-0.0232365 -0.00677279 0)
(-0.020843 -0.00866664 0)
(-0.0178752 -0.0101298 0)
(-0.014459 -0.0109539 0)
(-0.0107793 -0.0108862 0)
(-0.00708637 -0.00965454 0)
(-0.00368956 -0.00702101 0)
(-0.000917752 -0.00286869 0)
(-0.00107125 0.00391237 0)
(-0.00427225 0.00943951 0)
(-0.00815757 0.01286 0)
(-0.0123514 0.0144187 0)
(-0.0165099 0.0144722 0)
(-0.0203627 0.0133909 0)
(-0.023715 0.011501 0)
(-0.0264365 0.00906121 0)
(-0.0284448 0.00626392 0)
(-0.0296908 0.00324915 0)
(-0.0301467 0.000122885 0)
(-0.0297993 -0.00302417 0)
(-0.0286486 -0.00609833 0)
(-0.0267109 -0.00898469 0)
(-0.0240267 -0.0115287 0)
(-0.020674 -0.0135191 0)
(-0.0167852 -0.0146761 0)
(-0.012564 -0.0146552 0)
(-0.00829508 -0.0130758 0)
(-0.00433932 -0.00958512 0)
(-0.00108599 -0.00396017 0)
(-0.00125105 0.00515127 0)
(-0.00496996 0.0123195 0)
(-0.00945243 0.0166754 0)
(-0.0142558 0.0185986 0)
(-0.0189822 0.0185862 0)
(-0.023328 0.0171354 0)
(-0.0270834 0.0146748 0)
(-0.0301154 0.0115384 0)
(-0.0323462 0.00796958 0)
(-0.0337325 0.00414066 0)
(-0.0342508 0.000177676 0)
(-0.0338882 -0.00381419 0)
(-0.03264 -0.00772596 0)
(-0.030514 -0.01142 0)
(-0.0275407 -0.0147049 0)
(-0.0237909 -0.0173112 0)
(-0.0193984 -0.0188753 0)
(-0.0145836 -0.018941 0)
(-0.00966958 -0.0169937 0)
(-0.00507902 -0.012539 0)
(-0.00127585 -0.00522598 0)
(-0.00146458 0.00658792 0)
(-0.005802 0.0156349 0)
(-0.0109895 0.0210374 0)
(-0.0164993 0.0233405 0)
(-0.0218683 0.0232151 0)
(-0.0267572 0.0213148 0)
(-0.030944 0.0181923 0)
(-0.0342999 0.0142698 0)
(-0.0367587 0.00984703 0)
(-0.0382896 0.00512844 0)
(-0.0388773 0.000256325 0)
(-0.0385103 -0.00465528 0)
(-0.0371774 -0.00948768 0)
(-0.0348724 -0.0140842 0)
(-0.031608 -0.018216 0)
(-0.0274386 -0.0215486 0)
(-0.0224913 -0.0236182 0)
(-0.0169994 -0.023831 0)
(-0.0113283 -0.0215046 0)
(-0.00597642 -0.0159656 0)
(-0.00150524 -0.00670544 0)
(-0.00172534 0.00827106 0)
(-0.00681956 0.0194842 0)
(-0.0128546 0.0260556 0)
(-0.0191915 0.0287396 0)
(-0.0252891 0.0284288 0)
(-0.0307709 0.0259728 0)
(-0.03541 0.0220761 0)
(-0.0390925 0.0172648 0)
(-0.0417748 0.0119004 0)
(-0.0434476 0.00621747 0)
(-0.0441099 0.000367691 0)
(-0.0437532 -0.00553508 0)
(-0.0423576 -0.0113717 0)
(-0.0398963 -0.0169736 0)
(-0.0363535 -0.0220762 0)
(-0.0317535 -0.0262732 0)
(-0.0262029 -0.0289813 0)
(-0.0199396 -0.0294353 0)
(-0.0133722 -0.0267373 0)
(-0.00709194 -0.0199815 0)
(-0.00179005 -0.00845586 0)
(-0.00204327 0.0102641 0)
(-0.00806061 0.02399 0)
(-0.0151044 0.0318572 0)
(-0.0223914 0.0348965 0)
(-0.0292884 0.0342893 0)
(-0.0353858 0.0311355 0)
(-0.0404654 0.0263272 0)
(-0.0444449 0.0205123 0)
(-0.0473195 0.0141183 0)
(-0.0491139 0.00740454 0)
(-0.0498491 0.000521434 0)
(-0.049523 -0.00643109 0)
(-0.0481043 -0.0133477 0)
(-0.0455378 -0.0200597 0)
(-0.0417651 -0.0262731 0)
(-0.0367615 -0.0315048 0)
(-0.0305921 -0.0350303 0)
(-0.0234809 -0.0358689 0)
(-0.0158746 -0.032842 0)
(-0.00847449 -0.0247326 0)
(-0.00214317 -0.0105525 0)
(-0.00242128 0.0126434 0)
(-0.00953691 0.0292907 0)
(-0.0177411 0.0385701 0)
(-0.0260659 0.0418914 0)
(-0.0337775 0.0408217 0)
(-0.0404464 0.0367837 0)
(-0.0458868 0.0309006 0)
(-0.0500736 0.0239609 0)
(-0.053062 0.0164594 0)
(-0.0549261 0.00867013 0)
(-0.0557189 0.000726168 0)
(-0.055449 -0.00730585 0)
(-0.0540722 -0.0153546 0)
(-0.0514965 -0.02327 0)
(-0.0476048 -0.0307416 0)
(-0.042299 -0.0372095 0)
(-0.035571 -0.0417863 0)
(-0.0275998 -0.043223 0)
(-0.0188512 -0.0399708 0)
(-0.0101466 -0.0303854 0)
(-0.00257061 -0.0130875 0)
(-0.00284748 0.0154937 0)
(-0.0112051 0.0355218 0)
(-0.0206562 0.0462895 0)
(-0.0300074 0.0497422 0)
(-0.0384275 0.0479697 0)
(-0.0454983 0.0428109 0)
(-0.0511046 0.0356701 0)
(-0.0553126 0.0274923 0)
(-0.0582628 0.0188341 0)
(-0.0600965 0.00996754 0)
(-0.060909 0.000985778 0)
(-0.0607244 -0.00810296 0)
(-0.059486 -0.017288 0)
(-0.0570591 -0.0264646 0)
(-0.0532525 -0.0353283 0)
(-0.0478669 -0.0432532 0)
(-0.0407799 -0.0491734 0)
(-0.0320752 -0.0515127 0)
(-0.0221944 -0.0482367 0)
(-0.012071 -0.0371054 0)
(-0.00306294 -0.0161647 0)
(-0.0032809 0.0188957 0)
(-0.0129134 0.0427785 0)
(-0.0235335 0.0550176 0)
(-0.0336924 0.0583331 0)
(-0.0424948 0.0555257 0)
(-0.0495913 0.0489647 0)
(-0.0549933 0.0403832 0)
(-0.0588986 0.0308889 0)
(-0.0615591 0.021083 0)
(-0.063197 0.0112096 0)
(-0.0639577 0.00129352 0)
(-0.0638863 -0.00874522 0)
(-0.0629167 -0.0189881 0)
(-0.0608717 -0.0294104 0)
(-0.0574782 -0.0397487 0)
(-0.0524115 -0.0493389 0)
(-0.0453881 -0.0569382 0)
(-0.0363255 -0.0605906 0)
(-0.025561 -0.0576378 0)
(-0.0140903 -0.0450093 0)
(-0.00357946 -0.0198856 0)
(-0.0036273 0.0229011 0)
(-0.0143135 0.0510445 0)
(-0.0256927 0.0645604 0)
(-0.0360704 0.0673033 0)
(-0.044573 0.0630331 0)
(-0.0510157 0.0547705 0)
(-0.0556061 0.0446089 0)
(-0.0587129 0.0338004 0)
(-0.0607141 0.0229562 0)
(-0.0619157 0.0122564 0)
(-0.0625127 0.00162449 0)
(-0.0625735 -0.0091371 0)
(-0.062031 -0.0202342 0)
(-0.0606774 -0.0317607 0)
(-0.0581664 -0.0435432 0)
(-0.0540422 -0.054931 0)
(-0.0478219 -0.0645406 0)
(-0.0391713 -0.0700142 0)
(-0.0281954 -0.0679296 0)
(-0.0158279 -0.0540762 0)
(-0.00402193 -0.0243195 0)
(-0.0036986 0.027487 0)
(-0.0147176 0.0600725 0)
(-0.0258542 0.0743662 0)
(-0.0352691 0.0758911 0)
(-0.0422808 0.0696642 0)
(-0.0470017 0.0594533 0)
(-0.0499039 0.0476938 0)
(-0.0515424 0.035724 0)
(-0.0524083 0.0241057 0)
(-0.052869 0.0129098 0)
(-0.0531529 0.00192909 0)
(-0.0533479 -0.00917409 0)
(-0.053399 -0.0207527 0)
(-0.0530965 -0.0330542 0)
(-0.0520604 -0.0460511 0)
(-0.0497369 -0.0591875 0)
(-0.0454429 -0.0710302 0)
(-0.0385206 -0.07887 0)
(-0.0286719 -0.0784302 0)
(-0.0165318 -0.063999 0)
(-0.00419158 -0.0294486 0)
(-0.00313904 0.0324774 0)
(-0.0128508 0.0691948 0)
(-0.0217773 0.0832993 0)
(-0.0282047 0.0827476 0)
(-0.0319146 0.0741076 0)
(-0.0334526 0.0618913 0)
(-0.0335743 0.0487617 0)
(-0.0329753 0.0360245 0)
(-0.0321928 0.0241081 0)
(-0.0315956 0.0129291 0)
(-0.0314043 0.00213219 0)
(-0.0317124 -0.00876122 0)
(-0.0324928 -0.0202517 0)
(-0.0335822 -0.0327557 0)
(-0.0346454 -0.0464411 0)
(-0.0351283 -0.060949 0)
(-0.0342317 -0.0749572 0)
(-0.0309805 -0.0855853 0)
(-0.0245165 -0.0877627 0)
(-0.0148129 -0.0739547 0)
(-0.00371288 -0.0350771 0)
(-0.00125859 0.037398 0)
(-0.00635835 0.0770216 0)
(-0.00965007 0.0893469 0)
(-0.010054 0.0857689 0)
(-0.00810868 0.0745359 0)
(-0.00480937 0.0606741 0)
(-0.00107238 0.04681 0)
(0.00242619 0.0340326 0)
(0.00524573 0.0225437 0)
(0.00712222 0.0120779 0)
(0.00790815 0.0021453 0)
(0.00753078 -0.00784096 0)
(0.00597596 -0.0184914 0)
(0.00330113 -0.030367 0)
(-0.000317606 -0.043846 0)
(-0.00450126 -0.0588602 0)
(-0.00855627 -0.0744161 0)
(-0.0113898 -0.0878157 0)
(-0.011606 -0.0935647 0)
(-0.00814139 -0.0822615 0)
(-0.001865 -0.040666 0)
(0.00343913 0.0412188 0)
(0.0093463 0.0810076 0)
(0.0170667 0.0893481 0)
(0.0265032 0.0821063 0)
(0.0364438 0.0688127 0)
(0.0458278 0.0543819 0)
(0.0539773 0.0409761 0)
(0.0605465 0.0292601 0)
(0.0654022 0.0191491 0)
(0.0685164 0.0102167 0)
(0.0698883 0.00189762 0)
(0.069499 -0.00642606 0)
(0.0672897 -0.0153908 0)
(0.063165 -0.0256217 0)
(0.0570271 -0.0376535 0)
(0.0488581 -0.051733 0)
(0.038874 -0.0673936 0)
(0.0277571 -0.0826171 0)
(0.0169003 -0.0923193 0)
(0.0082887 -0.0859323 0)
(0.00289591 -0.0450432 0)
(0.0151356 0.0415104 0)
(0.0440501 0.0764289 0)
(0.0698865 0.078776 0)
(0.0923161 0.0685881 0)
(0.111048 0.0551442 0)
(0.126147 0.0422007 0)
(0.1379 0.0310167 0)
(0.146681 0.0217342 0)
(0.152854 0.0140328 0)
(0.156713 0.00742625 0)
(0.158441 0.00138591 0)
(0.158094 -0.00462326 0)
(0.155583 -0.011144 0)
(0.150663 -0.0187324 0)
(0.142926 -0.0279363 0)
(0.131812 -0.0391976 0)
(0.116669 -0.0525887 0)
(0.0969285 -0.067168 0)
(0.0725068 -0.0794605 0)
(0.0444054 -0.0797992 0)
(0.0148215 -0.0455557 0)
(0.0491671 0.03417 0)
(0.120809 0.0569766 0)
(0.169575 0.0535332 0)
(0.20283 0.0437594 0)
(0.226409 0.0337226 0)
(0.243355 0.0250397 0)
(0.255525 0.017996 0)
(0.264111 0.0123959 0)
(0.269915 0.00789473 0)
(0.273459 0.00412253 0)
(0.275045 0.00072431 0)
(0.274779 -0.00263813 0)
(0.272576 -0.00630031 0)
(0.268138 -0.0106112 0)
(0.260895 -0.0159389 0)
(0.249909 -0.0226516 0)
(0.233694 -0.0310423 0)
(0.209894 -0.0410974 0)
(0.174883 -0.0517619 0)
(0.122811 -0.0576136 0)
(0.0492405 -0.0376426 0)
(0.182788 0.00453472 0)
(0.296305 0.00776728 0)
(0.349542 0.0109001 0)
(0.375916 0.0103712 0)
(0.391473 0.00843617 0)
(0.401395 0.00638524 0)
(0.408006 0.0046111 0)
(0.412442 0.00317018 0)
(0.415337 0.00200484 0)
(0.41706 0.00102767 0)
(0.417812 0.000148609 0)
(0.417669 -0.000718639 0)
(0.41659 -0.00165683 0)
(0.414407 -0.00274457 0)
(0.410775 -0.00404743 0)
(0.405048 -0.0055882 0)
(0.395981 -0.00726854 0)
(0.380916 -0.00869636 0)
(0.353877 -0.00884258 0)
(0.297768 -0.00654159 0)
(0.181063 -0.0071714 0)
)
;

boundaryField
{
    movingWall
    {
        type            fixedValue;
        value           uniform (0.5 0 0);
    }
    fixedWalls
    {
        type            noSlip;
    }
    frontAndBack
    {
        type            empty;
    }
}


// ************************************************************************* //
