/*--------------------------------*- C++ -*----------------------------------*\
| =========                 |                                                 |
| \\      /  F ield         | OpenFOAM: The Open Source CFD Toolbox           |
|  \\    /   O peration     | Version:  4.1                                   |
|   \\  /    A nd           | Web:      www.OpenFOAM.org                      |
|    \\/     M anipulation  |                                                 |
\*---------------------------------------------------------------------------*/
FoamFile
{
    version     2.0;
    format      ascii;
    class       volVectorField;
    location    "0.0126";
    object      U;
}
// * * * * * * * * * * * * * * * * * * * * * * * * * * * * * * * * * * * * * //

dimensions      [0 1 -1 0 0 0 0];

internalField   nonuniform List<vector> 
441
(
(-0.000128735 0.000117907 0)
(-0.000580861 0.000303222 0)
(-0.00116793 0.00044477 0)
(-0.00182129 0.000513168 0)
(-0.00247835 0.000519925 0)
(-0.00309171 0.000482029 0)
(-0.00362822 0.000413823 0)
(-0.00406553 0.000325692 0)
(-0.00438887 0.000224785 0)
(-0.0045887 0.000116121 0)
(-0.00465945 3.52764e-06 0)
(-0.00459885 -0.000109647 0)
(-0.00440784 -0.000219978 0)
(-0.00409086 -0.000323398 0)
(-0.00365664 -0.000414504 0)
(-0.00311967 -0.000485635 0)
(-0.00250262 -0.000525827 0)
(-0.00183957 -0.000520184 0)
(-0.00117932 -0.000451345 0)
(-0.000586054 -0.00030779 0)
(-0.000129665 -0.000119538 0)
(-0.000344044 0.000557232 0)
(-0.00149319 0.00137498 0)
(-0.00293097 0.0019043 0)
(-0.00449792 0.0021393 0)
(-0.00605507 0.00213841 0)
(-0.00749846 0.00196789 0)
(-0.00875534 0.00168217 0)
(-0.00977665 0.00132054 0)
(-0.01053 0.000910063 0)
(-0.0109945 0.00046982 0)
(-0.0111582 1.44469e-05 0)
(-0.011016 -0.000443205 0)
(-0.0105702 -0.000889976 0)
(-0.00983052 -0.00131031 0)
(-0.00881603 -0.00168364 0)
(-0.00755853 -0.0019809 0)
(-0.00610762 -0.00216058 0)
(-0.00453795 -0.00216614 0)
(-0.00295632 -0.00192987 0)
(-0.00150498 -0.00139325 0)
(-0.000346174 -0.000563933 0)
(-0.000533858 0.00116475 0)
(-0.00220807 0.00280278 0)
(-0.00425189 0.00379936 0)
(-0.00645036 0.00421771 0)
(-0.00861944 0.00418749 0)
(-0.0106216 0.00383799 0)
(-0.0123603 0.0032724 0)
(-0.0137705 0.0025646 0)
(-0.0148092 0.00176542 0)
(-0.0154492 0.000910576 0)
(-0.0156746 2.74386e-05 0)
(-0.015479 -0.000860028 0)
(-0.014865 -0.00172728 0)
(-0.0138453 -0.00254524 0)
(-0.0124449 -0.00327535 0)
(-0.0107057 -0.00386306 0)
(-0.0086935 -0.0042302 0)
(-0.00650724 -0.00426953 0)
(-0.00428835 -0.00384893 0)
(-0.00222542 -0.00283843 0)
(-0.000537264 -0.00117785 0)
(-0.000684158 0.00190688 0)
(-0.00276799 0.00451286 0)
(-0.00527526 0.00604112 0)
(-0.00794918 0.00665541 0)
(-0.0105722 0.00657669 0)
(-0.0129835 0.00600948 0)
(-0.0150711 0.0051134 0)
(-0.0167603 0.00400178 0)
(-0.0180029 0.00275222 0)
(-0.0187683 0.00141889 0)
(-0.019039 4.29672e-05 0)
(-0.0188078 -0.00133975 0)
(-0.0180771 -0.00269258 0)
(-0.0168602 -0.00397172 0)
(-0.0151845 -0.00511862 0)
(-0.013097 -0.00604984 0)
(-0.0106728 -0.00664526 0)
(-0.00802714 -0.00673872 0)
(-0.00532581 -0.00612102 0)
(-0.00279248 -0.00457045 0)
(-0.000689209 -0.00192802 0)
(-0.000813274 0.00276515 0)
(-0.00325498 0.00646933 0)
(-0.00616714 0.00858945 0)
(-0.00925385 0.0094113 0)
(-0.0122663 0.00926509 0)
(-0.0150233 0.0084433 0)
(-0.0174012 0.00717021 0)
(-0.0193198 0.00560368 0)
(-0.0207286 0.0038508 0)
(-0.0215967 0.00198543 0)
(-0.0219066 6.27501e-05 0)
(-0.0216507 -0.0018698 0)
(-0.0208302 -0.00376354 0)
(-0.0194573 -0.00555961 0)
(-0.0175583 -0.00717796 0)
(-0.0151816 -0.00850304 0)
(-0.012408 -0.00936701 0)
(-0.00936487 -0.00953569 0)
(-0.00624014 -0.00870931 0)
(-0.00329105 -0.00655605 0)
(-0.000821019 -0.00279706 0)
(-0.000941746 0.00374004 0)
(-0.00374732 0.00867647 0)
(-0.00707241 0.0114516 0)
(-0.0105776 0.0124923 0)
(-0.0139796 0.0122566 0)
(-0.0170767 0.0111394 0)
(-0.0197351 0.00943986 0)
(-0.0218716 0.00736624 0)
(-0.0234368 0.00505806 0)
(-0.0244021 0.00260962 0)
(-0.0247516 8.95068e-05 0)
(-0.0244776 -0.00244443 0)
(-0.0235796 -0.00493272 0)
(-0.0220658 -0.00730189 0)
(-0.0199587 -0.00944928 0)
(-0.0173042 -0.0112237 0)
(-0.0141855 -0.0124025 0)
(-0.010741 -0.0126721 0)
(-0.00718163 -0.0116263 0)
(-0.00380243 -0.00880387 0)
(-0.000953976 -0.00378742 0)
(-0.00108685 0.00484879 0)
(-0.00430949 0.0111721 0)
(-0.00810651 0.0146734 0)
(-0.0120846 0.0159422 0)
(-0.0159197 0.0155871 0)
(-0.0193869 0.0141241 0)
(-0.0223437 0.0119396 0)
(-0.0247075 0.00930005 0)
(-0.0264336 0.00638053 0)
(-0.0274992 0.00329602 0)
(-0.0278923 0.000126863 0)
(-0.0276058 -0.00306126 0)
(-0.0266358 -0.00620069 0)
(-0.0249842 -0.00920486 0)
(-0.0226651 -0.0119479 0)
(-0.0197173 -0.0142389 0)
(-0.0162226 -0.0157916 0)
(-0.0123286 -0.0161982 0)
(-0.00827225 -0.0149253 0)
(-0.00439477 -0.0113582 0)
(-0.00110627 -0.00491929 0)
(-0.00126292 0.0061228 0)
(-0.004995 0.0140217 0)
(-0.00936289 0.0183304 0)
(-0.0139032 0.0198312 0)
(-0.0182414 0.0193132 0)
(-0.0221273 0.0174378 0)
(-0.0254122 0.0146958 0)
(-0.0280191 0.011421 0)
(-0.0299141 0.00782776 0)
(-0.0310852 0.00405094 0)
(-0.0315271 0.000179458 0)
(-0.0312346 -0.00371765 0)
(-0.0301989 -0.00756903 0)
(-0.0284115 -0.0112783 0)
(-0.0258724 -0.0146969 0)
(-0.0226062 -0.0175897 0)
(-0.0186865 -0.0195955 0)
(-0.0142673 -0.0201925 0)
(-0.0096144 -0.0186923 0)
(-0.00512679 -0.0142937 0)
(-0.00129355 -0.00622839 0)
(-0.00148274 0.00760676 0)
(-0.00585212 0.017315 0)
(-0.0109231 0.0225227 0)
(-0.0161395 0.0242475 0)
(-0.0210643 0.023501 0)
(-0.0254209 0.0211237 0)
(-0.0290601 0.0177329 0)
(-0.0319194 0.0137413 0)
(-0.0339848 0.00940575 0)
(-0.0352617 0.00487905 0)
(-0.035757 0.000253092 0)
(-0.035468 -0.0044069 0)
(-0.03438 -0.00903321 0)
(-0.0324685 -0.0135256 0)
(-0.029711 -0.017715 0)
(-0.0261074 -0.0213182 0)
(-0.0217122 -0.0238851 0)
(-0.0166785 -0.0247538 0)
(-0.0113021 -0.0230415 0)
(-0.00605427 -0.0177132 0)
(-0.0015305 -0.00776578 0)
(-0.00175824 0.00935967 0)
(-0.00692654 0.0211663 0)
(-0.0128602 0.027371 0)
(-0.0188795 0.0292892 0)
(-0.0244721 0.0282153 0)
(-0.0293373 0.0252151 0)
(-0.0333369 0.0210612 0)
(-0.0364369 0.0162588 0)
(-0.0386559 0.0111096 0)
(-0.0400274 0.00577956 0)
(-0.0405763 0.000354659 0)
(-0.0403055 -0.00511445 0)
(-0.0391916 -0.0105749 0)
(-0.0371884 -0.0159322 0)
(-0.0342394 -0.021003 0)
(-0.030304 -0.0254532 0)
(-0.0254008 -0.0287283 0)
(-0.019667 -0.0299916 0)
(-0.0134247 -0.0281113 0)
(-0.00723312 -0.0217493 0)
(-0.00183172 -0.00959974 0)
(-0.00209869 0.0114568 0)
(-0.00825519 0.0257146 0)
(-0.0152253 0.03301 0)
(-0.0221666 0.0350511 0)
(-0.0284802 0.0335023 0)
(-0.0338517 0.0297175 0)
(-0.0381734 0.0246608 0)
(-0.0414613 0.0189443 0)
(-0.0437847 0.0129144 0)
(-0.0452183 0.00674107 0)
(-0.045813 0.000491459 0)
(-0.0455803 -0.00581387 0)
(-0.0444871 -0.0121529 0)
(-0.0424576 -0.0184525 0)
(-0.0393881 -0.0245257 0)
(-0.035177 -0.0299899 0)
(-0.0297802 -0.03417 0)
(-0.0232936 -0.0360117 0)
(-0.0160511 -0.0340581 0)
(-0.0087126 -0.0265652 0)
(-0.00220981 -0.0118188 0)
(-0.00250435 0.0139905 0)
(-0.00984289 0.031118 0)
(-0.0180026 0.0395722 0)
(-0.0259327 0.0415996 0)
(-0.0329453 0.0393601 0)
(-0.0387365 0.0345798 0)
(-0.0432618 0.0284568 0)
(-0.0466166 0.0217224 0)
(-0.0489433 0.0147617 0)
(-0.0503727 0.00773427 0)
(-0.0509904 0.000669248 0)
(-0.0508207 -0.00646314 0)
(-0.0498199 -0.0136934 0)
(-0.047877 -0.0209915 0)
(-0.0448268 -0.0281864 0)
(-0.0404822 -0.0348572 0)
(-0.0347009 -0.0401968 0)
(-0.0274954 -0.0428838 0)
(-0.019178 -0.041035 0)
(-0.0105091 -0.0323484 0)
(-0.00266853 -0.0145333 0)
(-0.00295191 0.017065 0)
(-0.0116085 0.0375318 0)
(-0.0210097 0.0471464 0)
(-0.0298538 0.0489199 0)
(-0.0373844 0.0456861 0)
(-0.0433554 0.0396489 0)
(-0.0478333 0.0322842 0)
(-0.0510295 0.0244463 0)
(-0.0531827 0.0165436 0)
(-0.0544926 0.00870191 0)
(-0.0550868 0.00088831 0)
(-0.0550063 -0.00700218 0)
(-0.0541984 -0.0150788 0)
(-0.0525153 -0.0233834 0)
(-0.0497209 -0.0317914 0)
(-0.0455199 -0.0398674 0)
(-0.0396303 -0.0466747 0)
(-0.0319206 -0.0505776 0)
(-0.0226159 -0.0491398 0)
(-0.0125454 -0.0392831 0)
(-0.00318687 -0.0178695 0)
(-0.00336634 0.0207773 0)
(-0.0132817 0.0450515 0)
(-0.0237132 0.0556892 0)
(-0.0330954 0.0568184 0)
(-0.0406695 0.0521888 0)
(-0.046328 0.0446008 0)
(-0.0503103 0.0358391 0)
(-0.0529786 0.0268663 0)
(-0.0546832 0.0180823 0)
(-0.0556964 0.00954711 0)
(-0.0561881 0.00113718 0)
(-0.0562175 -0.00735354 0)
(-0.0557289 -0.0161404 0)
(-0.054545 -0.0253706 0)
(-0.0523635 -0.0350075 0)
(-0.0487728 -0.0446465 0)
(-0.0433153 -0.0532506 0)
(-0.0356411 -0.0588455 0)
(-0.0257808 -0.0583053 0)
(-0.0145356 -0.0474781 0)
(-0.00368851 -0.0219474 0)
(-0.00357105 0.0251713 0)
(-0.0142231 0.0535913 0)
(-0.0249255 0.064862 0)
(-0.0339184 0.0647622 0)
(-0.040586 0.0582592 0)
(-0.0450757 0.0488527 0)
(-0.0478589 0.0386265 0)
(-0.0494635 0.028601 0)
(-0.0503402 0.0191156 0)
(-0.0508163 0.0101242 0)
(-0.0510901 0.00138516 0)
(-0.0512363 -0.00742878 0)
(-0.0512055 -0.01666 0)
(-0.0508142 -0.0265918 0)
(-0.049725 -0.0373241 0)
(-0.0474365 -0.0485526 0)
(-0.0433139 -0.0592164 0)
(-0.0367261 -0.0670379 0)
(-0.0273608 -0.0681004 0)
(-0.0157884 -0.056817 0)
(-0.00398898 -0.0268267 0)
(-0.00320049 0.0301467 0)
(-0.0131238 0.0626667 0)
(-0.0223434 0.0737661 0)
(-0.0291444 0.071652 0)
(-0.0333009 0.0628193 0)
(-0.0353349 0.0514821 0)
(-0.0359634 0.0399282 0)
(-0.0358346 0.0291329 0)
(-0.0354386 0.0193015 0)
(-0.0351037 0.0102416 0)
(-0.0350215 0.00157734 0)
(-0.0352692 -0.00714286 0)
(-0.0358181 -0.0163906 0)
(-0.0365193 -0.0265995 0)
(-0.03707 -0.0380487 0)
(-0.0369664 -0.0506212 0)
(-0.0354753 -0.0633694 0)
(-0.0316939 -0.0738622 0)
(-0.0248286 -0.0774248 0)
(-0.014888 -0.0666948 0)
(-0.00370521 -0.0324016 0)
(-0.00152248 0.0352839 0)
(-0.00746681 0.0710269 0)
(-0.011854 0.0805702 0)
(-0.0135062 0.0755741 0)
(-0.0128674 0.0642146 0)
(-0.0108423 0.05122 0)
(-0.00826729 0.038847 0)
(-0.00575439 0.0278653 0)
(-0.00369708 0.018267 0)
(-0.00232669 0.00969127 0)
(-0.00176845 0.00163933 0)
(-0.00207957 -0.00643742 0)
(-0.00326452 -0.0151083 0)
(-0.00526455 -0.0249359 0)
(-0.00791738 -0.0363886 0)
(-0.0108828 -0.0496138 0)
(-0.0135409 -0.0639647 0)
(-0.0149131 -0.0771694 0)
(-0.0137506 -0.0841194 0)
(-0.00914269 -0.0755967 0)
(-0.00207546 -0.0382037 0)
(0.00303092 0.0395484 0)
(0.00761479 0.0761366 0)
(0.0136071 0.0821371 0)
(0.0210912 0.0737066 0)
(0.0290295 0.0603274 0)
(0.0365164 0.0466506 0)
(0.0429913 0.0345101 0)
(0.0481839 0.0242908 0)
(0.0520021 0.0157286 0)
(0.0544366 0.00832024 0)
(0.055497 0.00149968 0)
(0.0551752 -0.0053102 0)
(0.0534277 -0.0127021 0)
(0.0501756 -0.021293 0)
(0.0453283 -0.0316849 0)
(0.0388472 -0.0442996 0)
(0.0308768 -0.0589584 0)
(0.0219587 -0.074002 0)
(0.0132716 -0.0846718 0)
(0.00654545 -0.0805502 0)
(0.00251646 -0.0430694 0)
(0.0147144 0.0404215 0)
(0.0422032 0.0730923 0)
(0.066119 0.0737296 0)
(0.0863449 0.0626635 0)
(0.102812 0.0491569 0)
(0.115784 0.0367672 0)
(0.125689 0.0265026 0)
(0.132979 0.0182936 0)
(0.138049 0.0116869 0)
(0.141194 0.0061419 0)
(0.142596 0.00113336 0)
(0.142314 -0.00383988 0)
(0.140273 -0.00928424 0)
(0.136257 -0.0157458 0)
(0.129878 -0.0238173 0)
(0.120574 -0.0340645 0)
(0.107633 -0.0467669 0)
(0.0903406 -0.0612402 0)
(0.0683749 -0.0742365 0)
(0.0424312 -0.0761744 0)
(0.0144016 -0.044258 0)
(0.048887 0.0336468 0)
(0.119476 0.0552455 0)
(0.166726 0.0508287 0)
(0.198171 0.0405455 0)
(0.219862 0.0304668 0)
(0.235036 0.0220932 0)
(0.24568 0.0155627 0)
(0.253054 0.010557 0)
(0.257976 0.00665543 0)
(0.26096 0.00345807 0)
(0.262295 0.00061316 0)
(0.262084 -0.00219713 0)
(0.260254 -0.00528694 0)
(0.25653 -0.00899888 0)
(0.250369 -0.0137262 0)
(0.240839 -0.0199061 0)
(0.226413 -0.0279474 0)
(0.204617 -0.0379784 0)
(0.17162 -0.0490632 0)
(0.121302 -0.0558029 0)
(0.0489473 -0.0370321 0)
(0.18271 0.00441649 0)
(0.295872 0.00734555 0)
(0.348525 0.010215 0)
(0.374149 0.00954668 0)
(0.388901 0.00759845 0)
(0.398061 0.00562811 0)
(0.404021 0.00398839 0)
(0.407947 0.00270284 0)
(0.410479 0.00169379 0)
(0.411977 0.000866005 0)
(0.412635 0.000130297 0)
(0.412522 -0.000594428 0)
(0.411605 -0.00138572 0)
(0.409723 -0.00232125 0)
(0.406544 -0.003474 0)
(0.401424 -0.00488576 0)
(0.393103 -0.00648883 0)
(0.37887 -0.00792735 0)
(0.352659 -0.00820019 0)
(0.297249 -0.00613922 0)
(0.180986 -0.00705606 0)
)
;

boundaryField
{
    movingWall
    {
        type            fixedValue;
        value           uniform (0.5 0 0);
    }
    fixedWalls
    {
        type            noSlip;
    }
    frontAndBack
    {
        type            empty;
    }
}


// ************************************************************************* //
