/*--------------------------------*- C++ -*----------------------------------*\
| =========                 |                                                 |
| \\      /  F ield         | OpenFOAM: The Open Source CFD Toolbox           |
|  \\    /   O peration     | Version:  4.1                                   |
|   \\  /    A nd           | Web:      www.OpenFOAM.org                      |
|    \\/     M anipulation  |                                                 |
\*---------------------------------------------------------------------------*/
FoamFile
{
    version     2.0;
    format      ascii;
    class       volScalarField;
    location    "2850";
    object      p;
}
// * * * * * * * * * * * * * * * * * * * * * * * * * * * * * * * * * * * * * //

dimensions      [1 -1 -2 0 0 0 0];

internalField   nonuniform List<scalar> 
1275
(
0.711996
0.711996
0.711996
0.711996
0.711995
0.711995
0.711994
0.711994
0.711993
0.711994
0.711993
0.711994
0.711993
0.711994
0.711994
0.711994
0.711995
0.711996
0.711996
0.711997
0.711998
0.711999
0.712
0.712002
0.712003
0.712005
0.712007
0.712009
0.712011
0.712013
0.712016
0.712018
0.712021
0.712024
0.712027
0.712031
0.712034
0.712037
0.712041
0.712045
0.712049
0.712053
0.712058
0.712062
0.712067
0.712072
0.712077
0.712082
0.712088
0.712094
0.712099
0.712105
0.712112
0.712118
0.712125
0.712131
0.712139
0.712146
0.712153
0.712161
0.712169
0.712178
0.712187
0.712196
0.712205
0.712215
0.712226
0.712237
0.712249
0.712261
0.712274
0.712288
0.712303
0.71232
0.712337
0.712357
0.712378
0.7124
0.712425
0.712453
0.712483
0.712515
0.712551
0.712589
0.712631
0.712676
0.712724
0.712776
0.71283
0.712888
0.712947
0.713008
0.713071
0.713135
0.713198
0.713261
0.713323
0.713382
0.713438
0.713491
0.71354
0.713584
0.713624
0.713658
0.713688
0.713711
0.71373
0.713744
0.713753
0.713758
0.713758
0.713756
0.713749
0.713741
0.71373
0.713717
0.713702
0.713687
0.713671
0.713655
0.713638
0.713622
0.711995
0.711995
0.711995
0.711995
0.711994
0.711995
0.711994
0.711995
0.711994
0.711995
0.711994
0.711995
0.711994
0.711995
0.711995
0.711995
0.711996
0.711996
0.711997
0.711998
0.711999
0.712
0.712001
0.712003
0.712004
0.712006
0.712008
0.71201
0.712012
0.712014
0.712016
0.712019
0.712022
0.712025
0.712028
0.712031
0.712034
0.712038
0.712042
0.712046
0.71205
0.712054
0.712058
0.712063
0.712068
0.712073
0.712078
0.712083
0.712088
0.712094
0.7121
0.712106
0.712112
0.712119
0.712125
0.712132
0.712139
0.712147
0.712154
0.712162
0.71217
0.712179
0.712188
0.712197
0.712206
0.712217
0.712227
0.712238
0.71225
0.712262
0.712276
0.71229
0.712305
0.712321
0.712338
0.712357
0.712378
0.7124
0.712425
0.712452
0.712481
0.712513
0.712548
0.712586
0.712627
0.712672
0.712719
0.71277
0.712824
0.712881
0.712941
0.713002
0.713065
0.713128
0.713192
0.713254
0.713316
0.713375
0.713432
0.713485
0.713534
0.713578
0.713618
0.713653
0.713682
0.713706
0.713725
0.713739
0.713748
0.713753
0.713753
0.713751
0.713745
0.713736
0.713725
0.713712
0.713698
0.713683
0.713667
0.713651
0.713635
0.713619
0.711998
0.711998
0.711997
0.711997
0.711996
0.711996
0.711995
0.711995
0.711994
0.711995
0.711994
0.711994
0.711994
0.711994
0.711994
0.711995
0.711995
0.711996
0.711997
0.711998
0.711998
0.712
0.712001
0.712002
0.712004
0.712006
0.712007
0.712009
0.712011
0.712014
0.712016
0.712019
0.712022
0.712025
0.712028
0.712031
0.712034
0.712038
0.712042
0.712045
0.712049
0.712054
0.712058
0.712063
0.712067
0.712072
0.712077
0.712083
0.712088
0.712094
0.7121
0.712106
0.712112
0.712118
0.712125
0.712132
0.712139
0.712146
0.712154
0.712162
0.71217
0.712179
0.712187
0.712196
0.712206
0.712216
0.712226
0.712237
0.712249
0.712261
0.712274
0.712288
0.712303
0.712319
0.712336
0.712355
0.712375
0.712398
0.712422
0.712448
0.712477
0.712509
0.712543
0.712581
0.712621
0.712666
0.712713
0.712764
0.712818
0.712875
0.712934
0.712995
0.713058
0.713122
0.713185
0.713248
0.71331
0.713369
0.713426
0.713479
0.713528
0.713572
0.713612
0.713646
0.713675
0.713699
0.713718
0.713731
0.71374
0.713745
0.713746
0.713743
0.713737
0.713728
0.713717
0.713705
0.713691
0.713676
0.71366
0.713645
0.713629
0.713613
0.711994
0.711994
0.711993
0.711995
0.711994
0.711995
0.711994
0.711995
0.711994
0.711995
0.711994
0.711995
0.711994
0.711995
0.711995
0.711995
0.711996
0.711996
0.711997
0.711998
0.711999
0.712
0.712001
0.712002
0.712004
0.712006
0.712007
0.712009
0.712011
0.712014
0.712016
0.712019
0.712021
0.712024
0.712027
0.712031
0.712034
0.712038
0.712041
0.712045
0.712049
0.712054
0.712058
0.712063
0.712067
0.712072
0.712077
0.712083
0.712088
0.712094
0.7121
0.712106
0.712112
0.712118
0.712125
0.712132
0.712139
0.712146
0.712154
0.712162
0.71217
0.712179
0.712187
0.712196
0.712206
0.712216
0.712226
0.712237
0.712249
0.712261
0.712274
0.712287
0.712302
0.712317
0.712334
0.712352
0.712372
0.712394
0.712417
0.712443
0.712471
0.712502
0.712536
0.712574
0.712614
0.712658
0.712705
0.712756
0.712809
0.712866
0.712925
0.712986
0.713049
0.713112
0.713175
0.713237
0.713298
0.713357
0.713413
0.713465
0.713513
0.713557
0.713596
0.713629
0.713657
0.71368
0.713698
0.713712
0.71372
0.713724
0.713725
0.713722
0.713716
0.713708
0.713697
0.713685
0.713671
0.713657
0.713642
0.713627
0.713612
0.713597
0.712
0.712
0.711998
0.711998
0.711996
0.711996
0.711994
0.711995
0.711993
0.711994
0.711993
0.711993
0.711993
0.711993
0.711993
0.711994
0.711994
0.711995
0.711995
0.711996
0.711997
0.711999
0.712
0.712001
0.712003
0.712005
0.712006
0.712008
0.712011
0.712013
0.712015
0.712018
0.712021
0.712024
0.712027
0.71203
0.712033
0.712037
0.712041
0.712045
0.712049
0.712053
0.712057
0.712062
0.712067
0.712072
0.712077
0.712082
0.712088
0.712093
0.712099
0.712105
0.712111
0.712118
0.712124
0.712131
0.712138
0.712146
0.712153
0.712161
0.712169
0.712178
0.712186
0.712195
0.712205
0.712215
0.712225
0.712235
0.712247
0.712259
0.712271
0.712285
0.712299
0.712315
0.712331
0.712349
0.712369
0.71239
0.712414
0.712439
0.712468
0.712499
0.712533
0.71257
0.71261
0.712654
0.712701
0.712751
0.712805
0.712861
0.71292
0.71298
0.713042
0.713104
0.713166
0.713227
0.713286
0.713343
0.713397
0.713448
0.713494
0.713536
0.713572
0.713604
0.713631
0.713652
0.713669
0.713681
0.713688
0.713692
0.713692
0.713688
0.713682
0.713674
0.713664
0.713652
0.713639
0.713626
0.713612
0.713598
0.713584
0.71357
0.711988
0.711991
0.711988
0.711992
0.71199
0.711993
0.711991
0.711993
0.711992
0.711993
0.711992
0.711993
0.711993
0.711993
0.711993
0.711994
0.711994
0.711995
0.711995
0.711996
0.711997
0.711998
0.711999
0.712001
0.712002
0.712004
0.712006
0.712008
0.71201
0.712012
0.712015
0.712017
0.71202
0.712023
0.712026
0.71203
0.712033
0.712037
0.71204
0.712044
0.712048
0.712053
0.712057
0.712062
0.712066
0.712071
0.712076
0.712082
0.712087
0.712093
0.712099
0.712105
0.712111
0.712117
0.712124
0.712131
0.712138
0.712145
0.712153
0.71216
0.712168
0.712177
0.712185
0.712194
0.712204
0.712214
0.712224
0.712234
0.712246
0.712257
0.71227
0.712283
0.712298
0.712313
0.71233
0.712348
0.712367
0.712389
0.712412
0.712438
0.712466
0.712497
0.712531
0.712568
0.712609
0.712652
0.712699
0.712749
0.712802
0.712858
0.712915
0.712974
0.713034
0.713094
0.713154
0.713212
0.713269
0.713323
0.713374
0.713421
0.713464
0.713502
0.713536
0.713565
0.713588
0.713607
0.713622
0.713632
0.713638
0.71364
0.713639
0.713636
0.71363
0.713622
0.713612
0.713602
0.71359
0.713578
0.713566
0.713553
0.713541
0.713529
0.712
0.712
0.711996
0.711997
0.711993
0.711994
0.711991
0.711992
0.71199
0.711991
0.71199
0.71199
0.71199
0.711991
0.711991
0.711991
0.711992
0.711993
0.711993
0.711994
0.711995
0.711997
0.711998
0.712
0.712001
0.712003
0.712005
0.712007
0.712009
0.712012
0.712014
0.712017
0.712019
0.712022
0.712026
0.712029
0.712032
0.712036
0.71204
0.712044
0.712048
0.712052
0.712056
0.712061
0.712066
0.712071
0.712076
0.712081
0.712087
0.712092
0.712098
0.712104
0.71211
0.712117
0.712123
0.71213
0.712137
0.712144
0.712152
0.71216
0.712168
0.712176
0.712185
0.712194
0.712203
0.712213
0.712223
0.712234
0.712245
0.712257
0.71227
0.712283
0.712298
0.712313
0.71233
0.712349
0.712369
0.712391
0.712415
0.712441
0.71247
0.712502
0.712536
0.712574
0.712614
0.712658
0.712704
0.712754
0.712805
0.712859
0.712915
0.712971
0.713029
0.713086
0.713142
0.713196
0.713249
0.713298
0.713345
0.713387
0.713425
0.713459
0.713488
0.713512
0.713532
0.713548
0.71356
0.713567
0.713571
0.713572
0.713571
0.713567
0.713561
0.713554
0.713545
0.713536
0.713526
0.713516
0.713506
0.713496
0.713486
0.713477
0.711968
0.711982
0.711977
0.711987
0.711984
0.71199
0.711988
0.711991
0.711989
0.711991
0.71199
0.711991
0.711991
0.711992
0.711992
0.711992
0.711993
0.711993
0.711994
0.711995
0.711996
0.711997
0.711998
0.712
0.712001
0.712003
0.712005
0.712007
0.712009
0.712011
0.712014
0.712017
0.712019
0.712022
0.712025
0.712029
0.712032
0.712036
0.712039
0.712043
0.712047
0.712052
0.712056
0.712061
0.712065
0.712071
0.712076
0.712081
0.712086
0.712092
0.712098
0.712104
0.71211
0.712117
0.712123
0.71213
0.712137
0.712145
0.712152
0.71216
0.712168
0.712177
0.712185
0.712195
0.712204
0.712214
0.712225
0.712236
0.712247
0.71226
0.712273
0.712287
0.712302
0.712319
0.712336
0.712355
0.712376
0.712399
0.712424
0.712451
0.712481
0.712513
0.712548
0.712586
0.712626
0.712669
0.712715
0.712763
0.712813
0.712865
0.712917
0.71297
0.713024
0.713076
0.713127
0.713176
0.713223
0.713266
0.713306
0.713342
0.713374
0.713402
0.713426
0.713446
0.713461
0.713473
0.713481
0.713487
0.713489
0.713489
0.713487
0.713483
0.713478
0.713472
0.713465
0.713458
0.713451
0.713443
0.713436
0.713428
0.713422
0.713416
0.711992
0.711999
0.711992
0.711993
0.711988
0.71199
0.711987
0.711988
0.711987
0.711988
0.711988
0.711988
0.711988
0.711989
0.711989
0.71199
0.711991
0.711992
0.711993
0.711994
0.711995
0.711996
0.711998
0.711999
0.712001
0.712003
0.712005
0.712007
0.712009
0.712011
0.712014
0.712017
0.712019
0.712022
0.712026
0.712029
0.712032
0.712036
0.71204
0.712044
0.712048
0.712052
0.712057
0.712061
0.712066
0.712071
0.712076
0.712082
0.712087
0.712093
0.712099
0.712105
0.712111
0.712118
0.712125
0.712132
0.712139
0.712147
0.712154
0.712163
0.712171
0.71218
0.712189
0.712199
0.712209
0.71222
0.712231
0.712243
0.712255
0.712269
0.712283
0.712298
0.712314
0.712332
0.712351
0.712371
0.712394
0.712418
0.712444
0.712472
0.712503
0.712536
0.712571
0.712609
0.712649
0.712692
0.712736
0.712782
0.712829
0.712877
0.712926
0.712974
0.713021
0.713068
0.713112
0.713154
0.713194
0.71323
0.713262
0.713292
0.713317
0.713338
0.713356
0.713371
0.713382
0.71339
0.713396
0.713399
0.7134
0.713399
0.713397
0.713394
0.71339
0.713386
0.713382
0.713377
0.713372
0.713368
0.713363
0.713359
0.713356
0.713353
0.711889
0.711971
0.711966
0.71199
0.711985
0.711993
0.71199
0.711994
0.711992
0.711993
0.711992
0.711993
0.711993
0.711993
0.711993
0.711994
0.711994
0.711995
0.711995
0.711996
0.711997
0.711998
0.711999
0.712001
0.712002
0.712004
0.712006
0.712008
0.71201
0.712012
0.712015
0.712017
0.71202
0.712023
0.712026
0.71203
0.712033
0.712037
0.712041
0.712045
0.712049
0.712054
0.712058
0.712063
0.712067
0.712073
0.712078
0.712084
0.712089
0.712095
0.712102
0.712108
0.712115
0.712122
0.712129
0.712136
0.712144
0.712152
0.712161
0.71217
0.712179
0.712189
0.712199
0.712209
0.71222
0.712232
0.712245
0.712258
0.712272
0.712287
0.712302
0.712319
0.712337
0.712357
0.712377
0.7124
0.712424
0.71245
0.712477
0.712507
0.712538
0.712572
0.712607
0.712644
0.712683
0.712724
0.712766
0.712808
0.712852
0.712895
0.712938
0.71298
0.71302
0.713059
0.713096
0.71313
0.713162
0.71319
0.713215
0.713237
0.713255
0.713271
0.713284
0.713293
0.713301
0.713306
0.71331
0.713312
0.713312
0.713312
0.713311
0.713309
0.713308
0.713306
0.713304
0.713302
0.7133
0.713299
0.713298
0.713297
0.713297
0.713297
0.712248
0.712206
0.712198
0.712157
0.712145
0.712101
0.712086
0.712035
0.712025
0.711952
0.711969
0.711996
0.71199
0.711995
0.71199
0.711992
0.711989
0.711991
0.711989
0.711991
0.71199
0.711991
0.71199
0.711991
0.711991
0.711992
0.711993
0.711994
0.711995
0.711996
0.711997
0.711998
0.711999
0.712001
0.712003
0.712005
0.712007
0.712009
0.712011
0.712013
0.712016
0.712019
0.712022
0.712025
0.712028
0.712032
0.712035
0.712039
0.712043
0.712047
0.712052
0.712057
0.712061
0.712066
0.712072
)
;

boundaryField
{
    inlet
    {
        type            zeroGradient;
    }
    outlet
    {
        type            fixedValue;
        value           nonuniform 0();
    }
    walls
    {
        type            zeroGradient;
    }
    symwall
    {
        type            empty;
    }
    procBoundary0to1
    {
        type            processor;
        value           nonuniform List<scalar> 10(0.713606 0.713603 0.713598 0.713582 0.713557 0.713518 0.713468 0.71341 0.713351 0.713298);
    }
    procBoundary0to2
    {
        type            processor;
        value           nonuniform List<scalar> 
133
(
0.712077
0.712083
0.712089
0.712095
0.712102
0.712108
0.712116
0.712123
0.712131
0.712139
0.712147
0.712156
0.712165
0.712174
0.712185
0.712195
0.712206
0.712218
0.71223
0.712243
0.712256
0.712271
0.712286
0.712302
0.712319
0.712337
0.712356
0.712376
0.712397
0.71242
0.712445
0.71247
0.712498
0.712527
0.712557
0.712589
0.712622
0.712657
0.712693
0.71273
0.712768
0.712806
0.712844
0.712882
0.712919
0.712955
0.71299
0.713023
0.713054
0.713082
0.713109
0.713132
0.713153
0.713171
0.713186
0.713199
0.71321
0.713218
0.713225
0.71323
0.713234
0.713236
0.713238
0.713239
0.71324
0.713241
0.713241
0.713242
0.713242
0.713243
0.713243
0.713245
0.713246
0.713248
0.71325
0.713252
0.713255
0.712257
0.712209
0.712202
0.712159
0.712147
0.712103
0.712087
0.712036
0.712021
0.711952
0.711929
0.71198
0.711973
0.711995
0.71199
0.711998
0.711995
0.711998
0.711996
0.711997
0.711996
0.711996
0.711995
0.711996
0.711995
0.711996
0.711996
0.711997
0.711997
0.711998
0.711999
0.712
0.712001
0.712003
0.712004
0.712006
0.712008
0.712011
0.712013
0.712015
0.712018
0.712021
0.712024
0.712028
0.712031
0.712035
0.712039
0.712043
0.712048
0.712052
0.712057
0.712062
0.712067
0.712074
0.712077
0.712078
)
;
    }
}


// ************************************************************************* //
