/*--------------------------------*- C++ -*----------------------------------*\
| =========                 |                                                 |
| \\      /  F ield         | OpenFOAM: The Open Source CFD Toolbox           |
|  \\    /   O peration     | Version:  4.1                                   |
|   \\  /    A nd           | Web:      www.OpenFOAM.org                      |
|    \\/     M anipulation  |                                                 |
\*---------------------------------------------------------------------------*/
FoamFile
{
    version     2.0;
    format      ascii;
    class       volScalarField;
    location    "2010";
    object      p;
}
// * * * * * * * * * * * * * * * * * * * * * * * * * * * * * * * * * * * * * //

dimensions      [1 -1 -2 0 0 0 0];

internalField   nonuniform List<scalar> 
1275
(
0.712266
0.712218
0.712211
0.712169
0.712156
0.712112
0.712096
0.712046
0.71203
0.711962
0.712278
0.712226
0.712221
0.712176
0.712165
0.712121
0.712109
0.712062
0.712054
0.712008
0.712296
0.712242
0.712237
0.71219
0.71218
0.712137
0.712125
0.712082
0.71207
0.712031
0.712316
0.71226
0.712256
0.712208
0.712201
0.712158
0.712149
0.712109
0.712102
0.712068
0.712335
0.712279
0.712275
0.712228
0.712221
0.71218
0.71217
0.712134
0.712124
0.712094
0.712351
0.712296
0.712292
0.712247
0.71224
0.712201
0.712191
0.712157
0.712148
0.712119
0.71236
0.712307
0.712302
0.71226
0.712251
0.712215
0.712204
0.712172
0.712161
0.712134
0.712362
0.712314
0.712308
0.712268
0.712259
0.712224
0.712212
0.712181
0.712169
0.712143
0.712356
0.712314
0.712307
0.712269
0.712259
0.712225
0.712213
0.712183
0.71217
0.712144
0.712088
0.712094
0.712101
0.712107
0.712114
0.712121
0.712129
0.712137
0.712145
0.712154
0.712163
0.712173
0.712183
0.712194
0.712205
0.712218
0.71223
0.712244
0.712258
0.712274
0.71229
0.712308
0.712326
0.712346
0.712368
0.712391
0.712415
0.712441
0.712469
0.712499
0.712531
0.712564
0.712599
0.712636
0.712674
0.712713
0.712753
0.712794
0.712834
0.712874
0.712913
0.71295
0.712986
0.71302
0.713051
0.713079
0.713104
0.713126
0.713144
0.71316
0.713173
0.713183
0.713191
0.713197
0.7132
0.713203
0.713204
0.713205
0.713205
0.713205
0.713204
0.713203
0.713203
0.713202
0.713202
0.713202
0.713202
0.713203
0.713204
0.713205
0.713207
0.713209
0.713212
0.713214
0.713218
0.713221
0.713225
0.713229
0.711938
0.711989
0.711982
0.712004
0.711999
0.712008
0.712004
0.712007
0.712005
0.712006
0.712005
0.712006
0.712005
0.712005
0.712005
0.712005
0.712005
0.712006
0.712006
0.712007
0.712008
0.71201
0.712011
0.712012
0.712014
0.712016
0.712018
0.71202
0.712023
0.712026
0.712028
0.712031
0.712035
0.712038
0.712042
0.712046
0.71205
0.712055
0.712059
0.712064
0.712069
0.712075
0.71208
0.712087
0.712092
0.712101
0.712106
0.712114
0.712122
0.71213
0.712139
0.712148
0.712157
0.712167
0.712178
0.712189
0.712201
0.712213
0.712226
0.71224
0.712255
0.71227
0.712286
0.712303
0.712322
0.712341
0.712361
0.712383
0.712405
0.712429
0.712454
0.712481
0.712509
0.712538
0.712568
0.7126
0.712632
0.712666
0.7127
0.712735
0.71277
0.712806
0.71284
0.712874
0.712907
0.712938
0.712967
0.712995
0.71302
0.713042
0.713062
0.713079
0.713094
0.713107
0.713117
0.713126
0.713133
0.713138
0.713142
0.713145
0.713148
0.71315
0.713151
0.713153
0.713154
0.713156
0.713157
0.713159
0.713161
0.713164
0.713166
0.713169
0.713172
0.713175
0.713178
0.713182
0.713185
0.713189
0.713193
0.713198
0.713202
0.713207
0.713212
0.712012
0.712016
0.71201
0.712015
0.712008
0.712011
0.712007
0.712008
0.712005
0.712006
0.712004
0.712005
0.712004
0.712004
0.712004
0.712005
0.712005
0.712006
0.712007
0.712008
0.712009
0.712011
0.712013
0.712015
0.712017
0.712019
0.712021
0.712024
0.712027
0.71203
0.712034
0.712037
0.712041
0.712045
0.71205
0.712054
0.712059
0.712065
0.71207
0.712076
0.712082
0.712089
0.712096
0.712103
0.712111
0.712118
0.712127
0.712136
0.712145
0.712156
0.712166
0.712177
0.712189
0.712201
0.712214
0.712227
0.712242
0.712257
0.712272
0.712289
0.712306
0.712325
0.712344
0.712364
0.712385
0.712407
0.712429
0.712453
0.712478
0.712504
0.71253
0.712558
0.712586
0.712616
0.712646
0.712676
0.712707
0.712738
0.712768
0.712799
0.712829
0.712858
0.712886
0.712913
0.712938
0.712962
0.712984
0.713003
0.713021
0.713037
0.713051
0.713063
0.713073
0.713082
0.713089
0.713095
0.7131
0.713105
0.713109
0.713112
0.713116
0.713119
0.713122
0.713126
0.713129
0.713132
0.713136
0.713139
0.713143
0.713146
0.71315
0.713154
0.713158
0.713162
0.713166
0.71317
0.713175
0.713179
0.713184
0.713189
0.713194
0.713199
0.713205
0.71202
0.71202
0.712015
0.71202
0.712015
0.712018
0.712014
0.712016
0.712012
0.712013
0.71201
0.71201
0.712009
0.712009
0.712008
0.712009
0.712009
0.712009
0.71201
0.712011
0.712012
0.712014
0.712016
0.712018
0.71202
0.712023
0.712026
0.712029
0.712033
0.712036
0.71204
0.712045
0.712049
0.712054
0.71206
0.712065
0.712071
0.712077
0.712084
0.712091
0.712098
0.712106
0.712114
0.712123
0.712132
0.712142
0.712152
0.712163
0.712175
0.712187
0.712199
0.712213
0.712226
0.712241
0.712256
0.712273
0.712289
0.712307
0.712325
0.712345
0.712365
0.712385
0.712407
0.712429
0.712453
0.712477
0.712501
0.712527
0.712553
0.712579
0.712607
0.712634
0.712662
0.71269
0.712718
0.712745
0.712773
0.7128
0.712826
0.712852
0.712877
0.7129
0.712923
0.712943
0.712963
0.71298
0.712996
0.71301
0.713023
0.713034
0.713044
0.713053
0.71306
0.713067
0.713074
0.71308
0.713085
0.71309
0.713095
0.713099
0.713103
0.713107
0.713111
0.713115
0.713119
0.713123
0.713127
0.713132
0.713136
0.71314
0.713144
0.713149
0.713153
0.713157
0.713162
0.713167
0.713171
0.713176
0.713181
0.713186
0.713191
0.713196
0.713202
0.712066
0.712053
0.712048
0.712042
0.712036
0.712032
0.712026
0.712023
0.712019
0.712017
0.712014
0.712013
0.712011
0.712011
0.71201
0.71201
0.71201
0.712011
0.712012
0.712013
0.712015
0.712017
0.712019
0.712022
0.712025
0.712028
0.712031
0.712035
0.712039
0.712044
0.712049
0.712054
0.712059
0.712065
0.712071
0.712078
0.712085
0.712092
0.7121
0.712108
0.712117
0.712126
0.712136
0.712146
0.712157
0.712169
0.712181
0.712193
0.712207
0.712221
0.712235
0.712251
0.712267
0.712284
0.712301
0.71232
0.712339
0.712359
0.712379
0.712401
0.712423
0.712446
0.712469
0.712493
0.712518
0.712543
0.712568
0.712594
0.71262
0.712647
0.712673
0.712699
0.712725
0.712751
0.712777
0.712802
0.712826
0.712849
0.712871
0.712892
0.712912
0.71293
0.712947
0.712963
0.712977
0.712991
0.713003
0.713014
0.713024
0.713034
0.713042
0.71305
0.713057
0.713063
0.713069
0.713074
0.713079
0.713084
0.713089
0.713094
0.713099
0.713103
0.713108
0.713113
0.713117
0.713122
0.713126
0.713131
0.713135
0.713139
0.713144
0.713148
0.713152
0.713157
0.713161
0.713166
0.71317
0.713175
0.71318
0.713185
0.713191
0.713196
0.713201
0.712086
0.712068
0.712062
0.712052
0.712046
0.71204
0.712034
0.71203
0.712025
0.712022
0.712019
0.712017
0.712015
0.712013
0.712013
0.712012
0.712012
0.712013
0.712014
0.712015
0.712017
0.712019
0.712022
0.712025
0.712028
0.712032
0.712036
0.71204
0.712045
0.71205
0.712056
0.712061
0.712068
0.712074
0.712081
0.712089
0.712097
0.712105
0.712114
0.712124
0.712133
0.712144
0.712155
0.712167
0.712179
0.712192
0.712205
0.71222
0.712234
0.71225
0.712266
0.712283
0.712301
0.71232
0.712339
0.712359
0.71238
0.712401
0.712423
0.712446
0.712469
0.712493
0.712517
0.712542
0.712567
0.712593
0.712618
0.712644
0.712669
0.712695
0.71272
0.712744
0.712768
0.712791
0.712814
0.712836
0.712856
0.712876
0.712895
0.712912
0.712929
0.712944
0.712959
0.712972
0.712985
0.712996
0.713006
0.713015
0.713024
0.713032
0.713039
0.713046
0.713053
0.713059
0.713065
0.713072
0.713078
0.713083
0.713089
0.713094
0.713099
0.713104
0.713108
0.713113
0.713117
0.713121
0.713126
0.71313
0.713134
0.713139
0.713143
0.713148
0.713152
0.713157
0.713161
0.713166
0.713171
0.713175
0.71318
0.713186
0.713191
0.713196
0.713202
0.712111
0.712092
0.712084
0.71207
0.712062
0.712052
0.712045
0.712038
0.712032
0.712027
0.712023
0.71202
0.712017
0.712015
0.712014
0.712014
0.712014
0.712014
0.712015
0.712017
0.712019
0.712021
0.712024
0.712028
0.712031
0.712036
0.71204
0.712045
0.71205
0.712056
0.712062
0.712068
0.712075
0.712082
0.71209
0.712098
0.712107
0.712116
0.712126
0.712136
0.712147
0.712159
0.712171
0.712183
0.712196
0.71221
0.712225
0.71224
0.712256
0.712273
0.71229
0.712308
0.712327
0.712347
0.712367
0.712388
0.71241
0.712432
0.712455
0.712478
0.712502
0.712526
0.712551
0.712575
0.7126
0.712625
0.71265
0.712674
0.712698
0.712722
0.712746
0.712768
0.712791
0.712812
0.712833
0.712852
0.712871
0.712889
0.712906
0.712921
0.712936
0.712949
0.712961
0.712973
0.712984
0.712994
0.713004
0.713013
0.713022
0.71303
0.713038
0.713046
0.713053
0.71306
0.713066
0.713072
0.713077
0.713083
0.713088
0.713093
0.713098
0.713103
0.713107
0.713112
0.713117
0.713121
0.713126
0.71313
0.713135
0.713139
0.713144
0.713148
0.713152
0.713157
0.713161
0.713166
0.713171
0.713176
0.713181
0.713186
0.713191
0.713197
0.713202
0.712123
0.712102
0.712092
0.712076
0.712068
0.712056
0.712049
0.71204
0.712034
0.712028
0.712024
0.71202
0.712017
0.712015
0.712014
0.712013
0.712013
0.712014
0.712015
0.712017
0.712019
0.712022
0.712025
0.712028
0.712032
0.712037
0.712041
0.712047
0.712052
0.712058
0.712065
0.712071
0.712079
0.712086
0.712095
0.712103
0.712112
0.712122
0.712132
0.712143
0.712154
0.712166
0.712178
0.712192
0.712205
0.71222
0.712235
0.712251
0.712267
0.712284
0.712302
0.712321
0.71234
0.71236
0.71238
0.712401
0.712423
0.712446
0.712468
0.712492
0.712515
0.712539
0.712563
0.712588
0.712612
0.712636
0.712661
0.712684
0.712708
0.712731
0.712753
0.712775
0.712796
0.712816
0.712835
0.712854
0.712871
0.712888
0.712903
0.712918
0.712933
0.712946
0.712959
0.712971
0.712983
0.712994
0.713004
0.713013
0.713022
0.71303
0.713037
0.713044
0.713051
0.713058
0.713064
0.71307
0.713076
0.713082
0.713088
0.713093
0.713098
0.713103
0.713107
0.713112
0.713117
0.713121
0.713126
0.71313
0.713134
0.713139
0.713143
0.713148
0.713152
0.713157
0.713161
0.713166
0.713171
0.713176
0.713181
0.713186
0.713191
0.713197
0.713202
0.712131
0.71211
0.712099
0.712082
0.712073
0.71206
0.712052
0.712042
0.712036
0.71203
0.712025
0.712021
0.712018
0.712016
0.712015
0.712014
0.712014
0.712014
0.712016
0.712017
0.71202
0.712022
0.712026
0.712029
0.712033
0.712038
0.712043
0.712048
0.712054
0.71206
0.712066
0.712073
0.712081
0.712089
0.712097
0.712106
0.712115
0.712125
0.712135
0.712146
0.712157
0.71217
0.712182
0.712195
0.712209
0.712224
0.712239
0.712255
0.712272
0.712289
0.712307
0.712326
0.712345
0.712365
0.712385
0.712407
0.712428
0.712451
0.712473
0.712496
0.71252
0.712544
0.712567
0.712591
0.712615
0.712639
0.712662
0.712686
0.712708
0.712731
0.712753
0.712774
0.712795
0.712815
0.712834
0.712853
0.71287
0.712887
0.712903
0.712918
0.712933
0.712946
0.712959
0.71297
0.712981
0.712992
0.713002
0.713011
0.71302
0.713028
0.713037
0.713044
0.713051
0.713058
0.713064
0.71307
0.713076
0.713082
0.713087
0.713092
0.713097
0.713102
0.713107
0.713112
0.713116
0.713121
0.713125
0.71313
0.713134
0.713139
0.713143
0.713148
0.713152
0.713157
0.713161
0.713166
0.713171
0.713176
0.713181
0.713186
0.713191
0.713197
0.713202
0.712131
0.71211
0.712099
0.712082
0.712072
0.712058
0.71205
0.712041
0.712034
0.712027
0.712023
0.712019
0.712016
0.712013
0.712012
0.712011
0.712012
0.712012
0.712014
0.712015
0.712018
0.71202
0.712024
0.712027
0.712031
0.712036
0.712041
0.712046
0.712052
0.712058
0.712065
0.712072
0.712079
0.712087
0.712095
0.712104
0.712113
0.712123
0.712133
0.712144
0.712156
0.712168
0.71218
0.712193
0.712207
0.712222
0.712237
0.712253
0.712269
0.712286
0.712304
0.712323
0.712342
0.712362
0.712382
0.712403
0.712425
0.712447
0.712469
0.712492
0.712515
0.712539
0.712563
0.712587
0.712611
0.712634
0.712658
0.712681
0.712704
0.712727
0.712749
0.712771
0.712792
0.712812
0.712831
0.71285
0.712867
0.712884
0.7129
0.712915
0.71293
0.712943
0.712956
0.712969
0.71298
0.712991
0.713001
0.713011
0.713019
0.713028
0.713036
0.713043
0.71305
0.713057
0.713064
0.71307
0.713076
0.713081
0.713087
0.713092
0.713097
0.713102
0.713107
0.713111
0.713116
0.713121
0.713125
0.71313
0.713134
0.713138
0.713143
0.713147
0.713152
0.713156
0.713161
0.713166
0.713171
0.713176
0.713181
0.713186
0.713191
0.713196
0.713202
)
;

boundaryField
{
    inlet
    {
        type            zeroGradient;
    }
    outlet
    {
        type            fixedValue;
        value           nonuniform 0();
    }
    walls
    {
        type            zeroGradient;
    }
    symwall
    {
        type            empty;
    }
    procBoundary2to0
    {
        type            processor;
        value           nonuniform List<scalar> 
133
(
0.712083
0.712087
0.712093
0.712099
0.712105
0.712112
0.712118
0.712125
0.712133
0.71214
0.712148
0.712156
0.712165
0.712174
0.712184
0.712194
0.712205
0.712216
0.712229
0.712242
0.712256
0.712271
0.712287
0.712304
0.712323
0.712343
0.712366
0.71239
0.712416
0.712444
0.712475
0.712508
0.712543
0.712581
0.71262
0.712662
0.712706
0.712751
0.712797
0.712843
0.712889
0.712935
0.712979
0.713021
0.713061
0.713099
0.713133
0.713163
0.71319
0.713213
0.713232
0.713248
0.713261
0.71327
0.713277
0.713281
0.713283
0.713283
0.713282
0.71328
0.713277
0.713274
0.713271
0.713268
0.713264
0.713261
0.713258
0.713256
0.713254
0.713252
0.713251
0.713251
0.713251
0.713251
0.713252
0.713253
0.713255
0.712257
0.712215
0.712208
0.712167
0.712154
0.712111
0.712096
0.712044
0.712034
0.711962
0.711979
0.712005
0.711999
0.712004
0.711999
0.712002
0.711998
0.712
0.711998
0.712
0.711999
0.712
0.712
0.712001
0.712001
0.712002
0.712002
0.712003
0.712004
0.712005
0.712006
0.712007
0.712009
0.71201
0.712012
0.712014
0.712016
0.712018
0.71202
0.712023
0.712025
0.712028
0.712031
0.712034
0.712038
0.712041
0.712045
0.712049
0.712053
0.712057
0.712062
0.712067
0.712072
0.712077
0.712083
0.712083
)
;
    }
    procBoundary2to1
    {
        type            processor;
        value           uniform 0.713258;
    }
    procBoundary2to3
    {
        type            processor;
        value           nonuniform List<scalar> 10(0.713233 0.713218 0.71321 0.713208 0.713207 0.713207 0.713208 0.713208 0.713208 0.713208);
    }
}


// ************************************************************************* //
