/*--------------------------------*- C++ -*----------------------------------*\
| =========                 |                                                 |
| \\      /  F ield         | OpenFOAM: The Open Source CFD Toolbox           |
|  \\    /   O peration     | Version:  4.1                                   |
|   \\  /    A nd           | Web:      www.OpenFOAM.org                      |
|    \\/     M anipulation  |                                                 |
\*---------------------------------------------------------------------------*/
FoamFile
{
    version     2.0;
    format      ascii;
    class       volVectorField;
    location    "810";
    object      U;
}
// * * * * * * * * * * * * * * * * * * * * * * * * * * * * * * * * * * * * * //

dimensions      [0 1 -1 0 0 0 0];

internalField   nonuniform List<vector> 
1275
(
(0.0912865 -0.00475607 0)
(0.0910725 -0.00469918 0)
(0.0907293 -0.00456595 0)
(0.0905718 -0.00455115 0)
(0.0900981 -0.00441722 0)
(0.0836502 0.00674508 0)
(0.0849643 0.0071226 0)
(0.086295 0.00751028 0)
(0.0876381 0.00791226 0)
(0.0889899 0.00832489 0)
(0.0903447 0.00874866 0)
(0.0916979 0.00918087 0)
(0.0930429 0.00962029 0)
(0.0943741 0.010064 0)
(0.0956841 0.0105094 0)
(0.0969663 0.0109531 0)
(0.0982128 0.0113915 0)
(0.0994163 0.0118203 0)
(0.100569 0.0122351 0)
(0.101663 0.012631 0)
(0.10269 0.0130031 0)
(0.103644 0.0133462 0)
(0.104518 0.0136551 0)
(0.105306 0.0139249 0)
(0.106002 0.0141508 0)
(0.106601 0.0143285 0)
(0.107101 0.0144542 0)
(0.107499 0.0145246 0)
(0.107794 0.0145375 0)
(0.107987 0.0144913 0)
(0.108078 0.0143854 0)
(0.10807 0.0142201 0)
(0.107967 0.0139966 0)
(0.107774 0.0137171 0)
(0.107497 0.0133844 0)
(0.107143 0.0130023 0)
(0.106719 0.012575 0)
(0.106233 0.0121073 0)
(0.105694 0.0116044 0)
(0.10511 0.0110717 0)
(0.10449 0.0105146 0)
(0.103843 0.00993871 0)
(0.103177 0.00934924 0)
(0.102501 0.00875132 0)
(0.101821 0.00814973 0)
(0.101145 0.00754884 0)
(0.10048 0.00695257 0)
(0.0998319 0.00636439 0)
(0.0992049 0.00578725 0)
(0.0986038 0.00522365 0)
(0.0980324 0.00467559 0)
(0.0974936 0.00414464 0)
(0.0969898 0.00363195 0)
(0.0965228 0.00313831 0)
(0.0960936 0.00266416 0)
(0.0957029 0.00220967 0)
(0.095351 0.00177474 0)
(0.0950374 0.00135908 0)
(0.0947617 0.00096221 0)
(0.0945228 0.000583529 0)
(0.0943197 0.00022232 0)
(0.094151 -0.00012221 0)
(0.094015 -0.00045091 0)
(0.0939101 -0.000764661 0)
(0.0938346 -0.00106436 0)
(0.0937866 -0.0013509 0)
(0.0937642 -0.00162517 0)
(0.0937655 -0.00188804 0)
(0.0937887 -0.00214031 0)
(0.0938318 -0.0023828 0)
(0.093893 -0.00261622 0)
(0.0939704 -0.00284128 0)
(0.0940623 -0.0030586 0)
(0.0941667 -0.00326876 0)
(0.094282 -0.00347227 0)
(0.0944065 -0.00366959 0)
(0.0945385 -0.00386109 0)
(0.0946764 -0.00404711 0)
(0.0948184 -0.00422789 0)
(0.0949631 -0.00440362 0)
(0.095109 -0.00457444 0)
(0.0952544 -0.00474041 0)
(0.0953978 -0.00490153 0)
(0.0955379 -0.00505773 0)
(0.095673 -0.00520892 0)
(0.0958019 -0.00535491 0)
(0.0959231 -0.0054955 0)
(0.0960353 -0.00563041 0)
(0.0961371 -0.00575934 0)
(0.0962273 -0.00588195 0)
(0.0963045 -0.00599786 0)
(0.0963677 -0.00610667 0)
(0.0964156 -0.00620796 0)
(0.0964473 -0.00630132 0)
(0.0964617 -0.0063863 0)
(0.0964579 -0.00646248 0)
(0.0964351 -0.00652945 0)
(0.0963926 -0.00658682 0)
(0.0963297 -0.00663425 0)
(0.0962459 -0.00667139 0)
(0.0961409 -0.00669799 0)
(0.0960143 -0.00671383 0)
(0.0958659 -0.00671877 0)
(0.0956957 -0.00671269 0)
(0.0955039 -0.00669564 0)
(0.0952905 -0.00666762 0)
(0.0950559 -0.00662887 0)
(0.0948006 -0.00657952 0)
(0.0945251 -0.00652006 0)
(0.09423 -0.00645066 0)
(0.0939161 -0.00637217 0)
(0.0935844 -0.00628462 0)
(0.0932354 -0.00618947 0)
(0.0928709 -0.00608629 0)
(0.0924907 -0.00597751 0)
(0.0920976 -0.00586163 0)
(0.0916902 -0.0057429 0)
(0.0912735 -0.00561754 0)
(0.0908429 -0.00549312 0)
(0.090408 -0.00536155 0)
(0.089957 -0.00523637 0)
(0.0895106 -0.00510163 0)
(0.0890399 -0.00498126 0)
(0.0885912 -0.004846 0)
(0.0880962 -0.00473651 0)
(0.0876604 -0.0046032 0)
(0.0871265 -0.0045099 0)
(0.0866438 -0.00437782 0)
(0.0862447 -0.00431637 0)
(0.0856334 -0.00417838 0)
(0.0853395 -0.00415545 0)
(0.0845498 -0.00401487 0)
(0.0639982 0.00526002 0)
(0.0655434 0.00560687 0)
(0.0671244 0.00596917 0)
(0.0687405 0.0063483 0)
(0.0703884 0.00674265 0)
(0.0720646 0.00715258 0)
(0.0737652 0.00757628 0)
(0.0754854 0.00801294 0)
(0.0772202 0.00846023 0)
(0.0789635 0.00891617 0)
(0.080709 0.00937765 0)
(0.0824495 0.00984152 0)
(0.0841778 0.0103038 0)
(0.0858858 0.0107602 0)
(0.0875654 0.0112061 0)
(0.0892083 0.0116362 0)
(0.0908061 0.0120453 0)
(0.0923505 0.0124278 0)
(0.0938334 0.0127782 0)
(0.0952473 0.013091 0)
(0.0965851 0.0133611 0)
(0.0978404 0.0135838 0)
(0.0990078 0.0137548 0)
(0.100083 0.0138706 0)
(0.101062 0.0139285 0)
(0.101943 0.0139265 0)
(0.102724 0.0138637 0)
(0.103407 0.0137401 0)
(0.103991 0.0135566 0)
(0.104479 0.0133152 0)
(0.104876 0.0130186 0)
(0.105183 0.0126702 0)
(0.105408 0.0122744 0)
(0.105556 0.0118356 0)
(0.105633 0.0113592 0)
(0.105646 0.0108504 0)
(0.105601 0.0103146 0)
(0.105507 0.00975746 0)
(0.105369 0.0091842 0)
(0.105195 0.00859999 0)
(0.104992 0.00800961 0)
(0.104765 0.00741753 0)
(0.104521 0.00682775 0)
(0.104265 0.00624385 0)
(0.104002 0.00566894 0)
(0.103737 0.00510567 0)
(0.103472 0.00455623 0)
(0.103212 0.00402239 0)
(0.102958 0.0035055 0)
(0.102714 0.00300656 0)
(0.102482 0.00252623 0)
(0.102261 0.00206486 0)
(0.102053 0.00162255 0)
(0.10186 0.00119919 0)
(0.10168 0.000794462 0)
(0.101514 0.000407921 0)
(0.101362 3.89856e-05 0)
(0.101223 -0.000313017 0)
(0.101096 -0.000648825 0)
(0.100981 -0.000969226 0)
(0.100876 -0.00127503 0)
(0.100781 -0.00156706 0)
(0.100695 -0.00184614 0)
(0.100616 -0.00211306 0)
(0.100542 -0.0023686 0)
(0.100474 -0.00261349 0)
(0.100409 -0.00284843 0)
(0.100347 -0.00307405 0)
(0.100286 -0.00329094 0)
(0.100224 -0.00349964 0)
(0.100161 -0.00370061 0)
(0.100096 -0.00389425 0)
(0.100027 -0.00408091 0)
(0.0999527 -0.00426087 0)
(0.0998723 -0.00443433 0)
(0.0997845 -0.00460145 0)
(0.0996882 -0.00476231 0)
(0.0995821 -0.00491694 0)
(0.0994653 -0.00506531 0)
(0.0993367 -0.00520734 0)
(0.0991951 -0.00534289 0)
(0.0990396 -0.0054718 0)
(0.0988692 -0.00559382 0)
(0.0986829 -0.00570871 0)
(0.09848 -0.00581618 0)
(0.0982596 -0.00591591 0)
(0.0980209 -0.00600758 0)
(0.0977632 -0.00609084 0)
(0.0974861 -0.00616535 0)
(0.0971888 -0.00623077 0)
(0.0968711 -0.00628676 0)
(0.0965325 -0.00633301 0)
(0.0961729 -0.00636925 0)
(0.0957922 -0.00639523 0)
(0.0953903 -0.00641073 0)
(0.0949673 -0.00641561 0)
(0.0945234 -0.00640977 0)
(0.0940591 -0.00639318 0)
(0.0935747 -0.00636586 0)
(0.0930708 -0.00632795 0)
(0.092548 -0.0062796 0)
(0.0920073 -0.00622113 0)
(0.0914494 -0.00615279 0)
(0.0908753 -0.00607515 0)
(0.0902861 -0.0059885 0)
(0.0896828 -0.00589374 0)
(0.0890668 -0.00579105 0)
(0.0884393 -0.00568181 0)
(0.0878014 -0.00556583 0)
(0.0871547 -0.00544531 0)
(0.0865 -0.00531915 0)
(0.0858396 -0.00519106 0)
(0.085173 -0.005058 0)
(0.0845046 -0.00492652 0)
(0.0838303 -0.00478973 0)
(0.0831598 -0.00465961 0)
(0.0824805 -0.00452179 0)
(0.081815 -0.0043986 0)
(0.0811302 -0.00426136 0)
(0.0804793 -0.00415194 0)
(0.079783 -0.00401536 0)
(0.0791615 -0.00392709 0)
(0.0784354 -0.0037934 0)
(0.0778827 -0.00372833 0)
(0.077065 -0.0035974 0)
(0.0766688 -0.0035668 0)
(0.0756366 -0.00343093 0)
(0.0450252 0.00369635 0)
(0.0465638 0.00399608 0)
(0.0481548 0.0043129 0)
(0.0497983 0.00464795 0)
(0.0514925 0.00500059 0)
(0.0532359 0.00537155 0)
(0.0550259 0.00575976 0)
(0.0568598 0.006165 0)
(0.0587338 0.00658566 0)
(0.0606436 0.0070204 0)
(0.0625845 0.00746678 0)
(0.0645505 0.00792232 0)
(0.0665356 0.00838357 0)
(0.0685328 0.00884687 0)
(0.0705347 0.00930778 0)
(0.0725334 0.00976158 0)
(0.0745207 0.010203 0)
(0.076488 0.0106267 0)
(0.0784268 0.0110268 0)
(0.0803284 0.0113977 0)
(0.0821844 0.0117338 0)
(0.0839867 0.0120296 0)
(0.0857277 0.0122803 0)
(0.0874001 0.0124814 0)
(0.0889978 0.0126292 0)
(0.0905152 0.0127208 0)
(0.0919476 0.012754 0)
(0.0932915 0.0127278 0)
(0.0945443 0.0126421 0)
(0.0957044 0.0124976 0)
(0.0967714 0.0122959 0)
(0.0977457 0.0120398 0)
(0.0986289 0.0117323 0)
(0.0994231 0.0113776 0)
(0.100132 0.0109799 0)
(0.100758 0.0105443 0)
(0.101306 0.0100758 0)
(0.101782 0.00957966 0)
(0.102189 0.00906115 0)
(0.102534 0.00852544 0)
(0.102821 0.00797748 0)
(0.103055 0.00742197 0)
(0.103243 0.00686324 0)
(0.103387 0.00630526 0)
(0.103495 0.00575155 0)
(0.103568 0.00520522 0)
(0.103613 0.00466893 0)
(0.103632 0.00414492 0)
(0.103628 0.003635 0)
(0.103605 0.00314061 0)
(0.103566 0.00266284 0)
(0.103511 0.00220243 0)
(0.103444 0.00175986 0)
(0.103365 0.00133534 0)
(0.103276 0.000928869 0)
(0.103178 0.000540247 0)
(0.103072 0.000169135 0)
(0.102958 -0.000184938 0)
(0.102836 -0.000522538 0)
(0.102707 -0.000844304 0)
(0.10257 -0.00115093 0)
(0.102426 -0.00144314 0)
(0.102274 -0.00172167 0)
(0.102114 -0.00198725 0)
(0.101946 -0.00224062 0)
(0.101769 -0.00248246 0)
(0.101582 -0.00271345 0)
(0.101385 -0.00293422 0)
(0.101178 -0.00314532 0)
(0.100959 -0.0033473 0)
(0.100729 -0.00354061 0)
(0.100486 -0.00372566 0)
(0.10023 -0.0039028 0)
(0.0999602 -0.00407232 0)
(0.0996757 -0.00423444 0)
(0.0993761 -0.00438932 0)
(0.0990605 -0.00453706 0)
(0.0987284 -0.00467773 0)
(0.0983791 -0.0048113 0)
(0.0980121 -0.00493772 0)
(0.0976266 -0.00505689 0)
(0.0972222 -0.00516868 0)
(0.0967983 -0.00527289 0)
(0.0963545 -0.00536932 0)
(0.0958904 -0.00545774 0)
(0.0954056 -0.00553789 0)
(0.0948998 -0.00560951 0)
(0.0943728 -0.00567233 0)
(0.0938245 -0.00572609 0)
(0.0932548 -0.00577053 0)
(0.0926638 -0.00580541 0)
(0.0920517 -0.00583053 0)
(0.0914186 -0.0058457 0)
(0.090765 -0.00585079 0)
(0.0900912 -0.0058457 0)
(0.0893979 -0.00583039 0)
(0.0886857 -0.00580488 0)
(0.0879553 -0.00576925 0)
(0.0872078 -0.00572364 0)
(0.0864439 -0.00566829 0)
(0.085665 -0.00560343 0)
(0.0848719 -0.00552951 0)
(0.0840662 -0.00544684 0)
(0.083249 -0.0053561 0)
(0.0824219 -0.0052576 0)
(0.081586 -0.00515233 0)
(0.0807433 -0.00504045 0)
(0.0798947 -0.00492348 0)
(0.0790425 -0.00480109 0)
(0.0781874 -0.00467566 0)
(0.0773319 -0.00454586 0)
(0.0764765 -0.00441561 0)
(0.0756234 -0.0042816 0)
(0.0747739 -0.00415045 0)
(0.0739282 -0.00401535 0)
(0.073091 -0.00388745 0)
(0.0722557 -0.00375413 0)
(0.0714385 -0.00363382 0)
(0.0706122 -0.00350475 0)
(0.0698267 -0.00339646 0)
(0.0689994 -0.00327351 0)
(0.0682679 -0.00318198 0)
(0.0674116 -0.00306545 0)
(0.066777 -0.00299688 0)
(0.0658315 -0.00288611 0)
(0.0653833 -0.00284591 0)
(0.0642211 -0.00273241 0)
(0.0284291 0.0022374 0)
(0.0297884 0.00247771 0)
(0.0312091 0.00273533 0)
(0.0326927 0.00301135 0)
(0.0342387 0.00330599 0)
(0.0358473 0.00362011 0)
(0.0375176 0.00395348 0)
(0.0392483 0.00430628 0)
(0.0410376 0.00467768 0)
(0.042883 0.00506693 0)
(0.0447813 0.00547234 0)
(0.0467286 0.00589204 0)
(0.0487204 0.0063233 0)
(0.0507515 0.00676306 0)
(0.052816 0.00720748 0)
(0.0549075 0.00765236 0)
(0.0570188 0.00809288 0)
(0.0591425 0.00852394 0)
(0.0612706 0.00894005 0)
(0.063395 0.00933565 0)
(0.0655071 0.00970507 0)
(0.0675984 0.0100428 0)
(0.0696605 0.0103436 0)
(0.071685 0.0106026 0)
(0.073664 0.0108154 0)
(0.0755898 0.0109786 0)
(0.0774554 0.0110891 0)
(0.0792545 0.0111451 0)
(0.0809813 0.0111453 0)
(0.0826312 0.0110896 0)
(0.0842 0.0109787 0)
(0.0856848 0.0108142 0)
(0.0870834 0.0105983 0)
(0.0883946 0.0103343 0)
(0.089618 0.0100257 0)
(0.0907539 0.00967664 0)
(0.0918035 0.00929173 0)
(0.0927685 0.00887567 0)
(0.0936513 0.00843333 0)
(0.0944546 0.00796958 0)
(0.0951817 0.00748918 0)
(0.0958359 0.00699673 0)
(0.0964209 0.00649655 0)
(0.0969405 0.00599267 0)
(0.0973983 0.00548875 0)
(0.0977982 0.00498808 0)
(0.0981437 0.00449356 0)
(0.0984384 0.00400768 0)
(0.0986856 0.00353254 0)
(0.0988884 0.00306989 0)
(0.0990498 0.0026211 0)
(0.0991724 0.00218723 0)
(0.0992588 0.00176903 0)
(0.0993111 0.00136701 0)
(0.0993313 0.000981409 0)
(0.0993213 0.000612293 0)
(0.0992825 0.000259538 0)
(0.0992165 -7.71175e-05 0)
(0.0991243 -0.000398053 0)
(0.0990071 -0.000703741 0)
(0.0988656 -0.000994721 0)
(0.0987007 -0.00127158 0)
(0.0985129 -0.00153494 0)
(0.0983028 -0.00178542 0)
(0.0980707 -0.00202367 0)
(0.097817 -0.00225029 0)
(0.0975418 -0.00246588 0)
(0.0972453 -0.002671 0)
(0.0969276 -0.00286617 0)
(0.0965887 -0.00305187 0)
(0.0962286 -0.00322854 0)
(0.0958473 -0.00339653 0)
(0.0954445 -0.00355619 0)
(0.0950203 -0.00370777 0)
(0.0945743 -0.00385149 0)
(0.0941066 -0.00398752 0)
(0.0936168 -0.00411595 0)
(0.0931049 -0.00423684 0)
(0.0925706 -0.00435022 0)
(0.0920138 -0.00445604 0)
(0.0914344 -0.00455423 0)
(0.0908322 -0.00464471 0)
(0.0902071 -0.00472732 0)
(0.0895592 -0.00480192 0)
(0.0888883 -0.00486833 0)
(0.0881947 -0.00492637 0)
(0.0874784 -0.00497586 0)
(0.0867396 -0.00501659 0)
(0.0859787 -0.00504841 0)
(0.0851959 -0.00507113 0)
(0.0843918 -0.00508462 0)
(0.0835668 -0.00508876 0)
(0.0827217 -0.00508348 0)
(0.0818573 -0.00506874 0)
(0.0809743 -0.00504455 0)
(0.0800738 -0.00501096 0)
(0.0791569 -0.00496808 0)
(0.0782248 -0.00491612 0)
(0.0772788 -0.00485527 0)
(0.0763202 -0.0047859 0)
(0.0753507 -0.00470832 0)
(0.0743718 -0.00462305 0)
(0.0733853 -0.00453048 0)
(0.0723927 -0.00443137 0)
(0.0713961 -0.00432605 0)
(0.0703972 -0.00421563 0)
(0.069398 -0.00410022 0)
(0.0684001 -0.00398147 0)
(0.0674059 -0.0038589 0)
(0.0664168 -0.00373511 0)
(0.0654348 -0.00360845 0)
(0.064462 -0.00348315 0)
(0.0634991 -0.00335539 0)
(0.0625498 -0.00323228 0)
(0.0616112 -0.00310617 0)
(0.060693 -0.00298905 0)
(0.0597815 -0.00286697 0)
(0.0589026 -0.00275956 0)
(0.0580167 -0.00264361 0)
(0.0571891 -0.00254917 0)
(0.0563183 -0.00244191 0)
(0.0555628 -0.00236196 0)
(0.0546799 -0.002268 0)
(0.0540385 -0.00220127 0)
(0.0530837 -0.00212437 0)
(0.0526386 -0.00207477 0)
(0.0514996 -0.00200302 0)
(0.0146589 0.00103929 0)
(0.0157392 0.00121576 0)
(0.0168842 0.00140827 0)
(0.0180959 0.00161789 0)
(0.0193753 0.00184544 0)
(0.0207237 0.00209205 0)
(0.0221416 0.00235808 0)
(0.0236292 0.00264418 0)
(0.0251861 0.00295014 0)
(0.0268116 0.00327581 0)
(0.028504 0.0036202 0)
(0.0302612 0.00398211 0)
(0.0320805 0.00435951 0)
(0.0339584 0.00475002 0)
(0.0358908 0.00515051 0)
(0.037873 0.0055574 0)
(0.0398996 0.00596649 0)
(0.0419647 0.00637323 0)
(0.0440616 0.00677262 0)
(0.0461835 0.00715948 0)
(0.0483227 0.00752845 0)
(0.0504714 0.00787423 0)
(0.0526216 0.00819161 0)
(0.0547648 0.00847574 0)
(0.0568926 0.00872215 0)
(0.0589967 0.00892695 0)
(0.0610689 0.00908686 0)
(0.0631012 0.00919939 0)
(0.0650861 0.00926279 0)
(0.0670166 0.00927617 0)
(0.068886 0.00923947 0)
(0.0706887 0.00915342 0)
(0.0724196 0.00901953 0)
(0.0740743 0.00884 0)
(0.0756495 0.00861764 0)
(0.0771424 0.00835579 0)
(0.0785511 0.00805818 0)
(0.0798746 0.00772887 0)
(0.0811123 0.00737209 0)
(0.0822646 0.00699216 0)
(0.0833322 0.0065934 0)
(0.0843165 0.00618003 0)
(0.0852193 0.00575609 0)
(0.0860427 0.0053254 0)
(0.0867891 0.0048915 0)
(0.0874611 0.00445761 0)
(0.0880616 0.00402662 0)
(0.0885934 0.00360107 0)
(0.0890594 0.00318315 0)
(0.0894626 0.00277471 0)
(0.0898058 0.00237727 0)
(0.0900919 0.00199205 0)
(0.0903234 0.00161998 0)
(0.0905029 0.00126173 0)
(0.090633 0.000917746 0)
(0.0907159 0.000588253 0)
(0.0907537 0.000273312 0)
(0.0907485 -2.71715e-05 0)
(0.090702 -0.000313416 0)
(0.0906161 -0.000585742 0)
(0.0904922 -0.000844547 0)
(0.0903317 -0.00109029 0)
(0.090136 -0.00132347 0)
(0.0899062 -0.0015446 0)
(0.0896433 -0.00175422 0)
(0.0893482 -0.00195285 0)
(0.0890219 -0.002141 0)
(0.088665 -0.00231916 0)
(0.0882781 -0.00248778 0)
(0.0878618 -0.00264729 0)
(0.0874166 -0.00279805 0)
(0.0869429 -0.0029404 0)
(0.0864411 -0.00307463 0)
(0.0859115 -0.00320096 0)
(0.0853544 -0.00331958 0)
(0.0847699 -0.00343063 0)
(0.0841584 -0.00353421 0)
(0.08352 -0.00363036 0)
(0.0828549 -0.00371909 0)
(0.0821634 -0.00380037 0)
(0.0814456 -0.00387416 0)
(0.0807019 -0.00394036 0)
(0.0799325 -0.00399887 0)
(0.0791377 -0.00404957 0)
(0.0783179 -0.00409232 0)
(0.0774736 -0.00412701 0)
(0.0766053 -0.0041535 0)
(0.0757137 -0.00417168 0)
(0.0747995 -0.00418143 0)
(0.0738635 -0.00418269 0)
(0.0729066 -0.00417542 0)
(0.0719299 -0.00415959 0)
(0.0709346 -0.00413524 0)
(0.069922 -0.00410245 0)
(0.0688936 -0.00406133 0)
(0.0678509 -0.00401209 0)
(0.0667956 -0.00395494 0)
(0.0657296 -0.00389021 0)
(0.0646547 -0.00381822 0)
(0.0635731 -0.00373942 0)
(0.0624868 -0.00365424 0)
(0.0613981 -0.0035633 0)
(0.0603093 -0.00346703 0)
(0.0592226 -0.00336629 0)
(0.0581406 -0.00326141 0)
(0.0570655 -0.00315358 0)
(0.0559998 -0.00304284 0)
(0.0549456 -0.00293091 0)
(0.0539053 -0.00281717 0)
(0.0528812 -0.00270427 0)
(0.0518747 -0.00259039 0)
(0.050889 -0.00247972 0)
(0.0499235 -0.00236836 0)
(0.0489839 -0.00226303 0)
(0.0480644 -0.00215659 0)
(0.0471778 -0.00205945 0)
(0.0463059 -0.00196011 0)
(0.0454797 -0.00187345 0)
(0.0446521 -0.00178351 0)
(0.0438955 -0.00170836 0)
(0.0431007 -0.00163118 0)
(0.0424295 -0.00156624 0)
(0.0416423 -0.00150771 0)
(0.0410862 -0.00144844 0)
(0.0402591 -0.00141682 0)
(0.0398768 -0.00136149 0)
(0.0389237 -0.00134644 0)
(0.00358479 0.000139383 0)
(0.00432846 0.000252028 0)
(0.00513457 0.000378476 0)
(0.00600618 0.000520166 0)
(0.0069455 0.000678192 0)
(0.00795509 0.000853932 0)
(0.00903674 0.00104823 0)
(0.0101922 0.00126208 0)
(0.0114225 0.00149585 0)
(0.0127284 0.00174984 0)
(0.01411 0.00202366 0)
(0.0155668 0.00231667 0)
(0.0170978 0.00262747 0)
(0.0187012 0.00295428 0)
(0.0203746 0.0032946 0)
(0.0221149 0.00364547 0)
(0.0239184 0.00400333 0)
(0.0257807 0.00436421 0)
(0.0276968 0.00472371 0)
(0.0296609 0.00507721 0)
(0.0316668 0.00541985 0)
(0.0337076 0.00574677 0)
(0.035776 0.00605318 0)
(0.0378642 0.0063345 0)
(0.0399642 0.00658646 0)
(0.0420674 0.00680525 0)
(0.0441655 0.00698759 0)
(0.0462497 0.00713081 0)
(0.0483116 0.00723291 0)
(0.0503429 0.00729262 0)
(0.0523354 0.00730937 0)
(0.0542817 0.00728333 0)
(0.0561747 0.00721535 0)
(0.0580078 0.0071069 0)
(0.0597752 0.00696006 0)
(0.061472 0.00677737 0)
(0.0630938 0.00656181 0)
(0.0646369 0.00631664 0)
(0.0660987 0.00604536 0)
(0.0674771 0.00575161 0)
(0.0687708 0.00543905 0)
(0.069979 0.00511133 0)
(0.0711018 0.00477197 0)
(0.0721397 0.00442436 0)
(0.0730935 0.00407165 0)
(0.0739647 0.00371678 0)
(0.0747551 0.00336237 0)
(0.0754666 0.00301082 0)
(0.0761015 0.00266417 0)
(0.0766621 0.00232423 0)
(0.077151 0.00199249 0)
(0.0775707 0.00167019 0)
(0.0779238 0.00135829 0)
(0.0782129 0.00105755 0)
(0.0784404 0.000768493 0)
(0.078609 0.000491476 0)
(0.0787209 0.000226675 0)
(0.0787783 -2.58706e-05 0)
(0.0787836 -0.00026624 0)
(0.0787387 -0.000494612 0)
(0.0786455 -0.000711242 0)
(0.0785058 -0.000916446 0)
(0.0783213 -0.00111058 0)
(0.0780936 -0.00129403 0)
(0.077824 -0.00146719 0)
(0.0775138 -0.00163046 0)
(0.0771643 -0.00178424 0)
(0.0767765 -0.0019289 0)
(0.0763514 -0.00206479 0)
(0.07589 -0.00219224 0)
(0.0753931 -0.00231154 0)
(0.0748613 -0.00242294 0)
(0.0742955 -0.00252665 0)
(0.0736963 -0.00262287 0)
(0.0730644 -0.00271173 0)
(0.0724002 -0.00279334 0)
(0.0717045 -0.00286777 0)
(0.0709777 -0.00293508 0)
(0.0702206 -0.00299526 0)
(0.0694337 -0.00304832 0)
(0.0686177 -0.00309424 0)
(0.0677734 -0.00313296 0)
(0.0669015 -0.00316445 0)
(0.066003 -0.00318866 0)
(0.0650787 -0.00320554 0)
(0.0641298 -0.00321505 0)
(0.0631575 -0.00321717 0)
(0.062163 -0.0032119 0)
(0.0611479 -0.00319926 0)
(0.0601136 -0.00317931 0)
(0.059062 -0.00315214 0)
(0.057995 -0.00311787 0)
(0.0569145 -0.00307667 0)
(0.0558227 -0.00302877 0)
(0.054722 -0.00297443 0)
(0.0536147 -0.00291396 0)
(0.0525035 -0.00284772 0)
(0.0513911 -0.00277614 0)
(0.05028 -0.00269966 0)
(0.0491732 -0.00261883 0)
(0.0480735 -0.00253413 0)
(0.0469836 -0.00244627 0)
(0.0459064 -0.00235571 0)
(0.0448446 -0.00226335 0)
(0.0438008 -0.00216947 0)
(0.0427776 -0.0020753 0)
(0.0417771 -0.00198073 0)
(0.0408019 -0.0018875 0)
(0.0398531 -0.00179475 0)
(0.0389337 -0.00170512 0)
(0.0380431 -0.00161641 0)
(0.0371856 -0.00153282 0)
(0.0363569 -0.00145 0)
(0.0355654 -0.00137457 0)
(0.0347994 -0.00129898 0)
(0.0340766 -0.0012333 0)
(0.0333704 -0.00116599 0)
(0.0327181 -0.00111083 0)
(0.0320642 -0.00105318 0)
(0.0314851 -0.00100764 0)
(0.0308703 -0.000962893 0)
(0.0303708 -0.000922837 0)
(0.0297738 -0.000898634 0)
(0.0293676 -0.000855183 0)
(0.0287549 -0.000863683 0)
(0.0284727 -0.000811083 0)
(0.0277899 -0.000846357 0)
(-0.00473008 -0.000387703 0)
(-0.00436265 -0.000333625 0)
(-0.00394133 -0.000269141 0)
(-0.00346206 -0.000192851 0)
(-0.00292114 -0.000103399 0)
(-0.00231462 7.29756e-07 0)
(-0.001639 0.000120754 0)
(-0.00089079 0.000257982 0)
(-6.69918e-05 0.000413288 0)
(0.000835102 0.00058745 0)
(0.00181763 0.000780703 0)
(0.00288221 0.000992989 0)
(0.00402982 0.00122363 0)
(0.00526077 0.00147149 0)
(0.00657461 0.00173482 0)
(0.00797016 0.00201137 0)
(0.00944546 0.00229829 0)
(0.0109977 0.00259232 0)
(0.0126234 0.00288976 0)
(0.0143181 0.00318665 0)
(0.0160767 0.00347879 0)
(0.0178933 0.0037619 0)
(0.0197615 0.00403176 0)
(0.0216739 0.00428427 0)
(0.0236228 0.00451558 0)
(0.0256 0.00472222 0)
(0.0275967 0.00490113 0)
(0.029604 0.00504976 0)
(0.031613 0.00516612 0)
(0.0336143 0.00524881 0)
(0.035599 0.00529703 0)
(0.0375583 0.00531059 0)
(0.0394836 0.00528987 0)
(0.0413671 0.00523578 0)
(0.0432011 0.00514977 0)
(0.0449788 0.00503367 0)
(0.0466942 0.0048897 0)
(0.0483416 0.00472037 0)
(0.0499167 0.00452841 0)
(0.0514153 0.00431669 0)
(0.0528345 0.00408814 0)
(0.0541718 0.00384571 0)
(0.0554257 0.00359229 0)
(0.056595 0.00333067 0)
(0.0576795 0.0030635 0)
(0.0586791 0.00279324 0)
(0.0595946 0.00252214 0)
(0.0604269 0.00225225 0)
(0.0611775 0.00198538 0)
(0.0618478 0.00172312 0)
(0.0624399 0.0014668 0)
(0.0629558 0.00121757 0)
(0.0633975 0.000976344 0)
(0.0637674 0.000743848 0)
(0.0640676 0.00052063 0)
(0.0643006 0.000307076 0)
(0.0644685 0.000103428 0)
(0.0645736 -9.01962e-05 0)
(0.064618 -0.000273786 0)
(0.0646039 -0.000447419 0)
(0.0645332 -0.000611246 0)
(0.0644078 -0.000765475 0)
(0.0642297 -0.000910353 0)
(0.0640005 -0.00104616 0)
(0.0637218 -0.00117319 0)
(0.0633954 -0.00129175 0)
(0.0630227 -0.00140212 0)
(0.0626051 -0.00150462 0)
(0.0621439 -0.0015995 0)
(0.0616406 -0.00168703 0)
(0.0610964 -0.00176743 0)
(0.0605125 -0.0018409 0)
(0.0598901 -0.00190764 0)
(0.0592305 -0.00196778 0)
(0.0585349 -0.00202146 0)
(0.0578045 -0.00206878 0)
(0.0570406 -0.00210981 0)
(0.0562446 -0.00214462 0)
(0.0554177 -0.00217327 0)
(0.0545616 -0.00219579 0)
(0.0536776 -0.00221221 0)
(0.0527674 -0.00222257 0)
(0.0518328 -0.00222692 0)
(0.0508756 -0.00222529 0)
(0.0498978 -0.00221777 0)
(0.0489015 -0.00220443 0)
(0.047889 -0.00218539 0)
(0.0468625 -0.00216079 0)
(0.0458247 -0.0021308 0)
(0.0447781 -0.00209563 0)
(0.0437255 -0.00205554 0)
(0.0426696 -0.00201081 0)
(0.0416135 -0.00196176 0)
(0.0405601 -0.00190877 0)
(0.0395124 -0.00185222 0)
(0.0384734 -0.00179254 0)
(0.037446 -0.00173019 0)
(0.0364332 -0.00166566 0)
(0.0354377 -0.00159939 0)
(0.0344623 -0.00153196 0)
(0.0335092 -0.00146377 0)
(0.0325808 -0.00139546 0)
(0.0316792 -0.00132731 0)
(0.0308061 -0.00126007 0)
(0.0299629 -0.0011938 0)
(0.0291512 -0.00112943 0)
(0.0283712 -0.0010666 0)
(0.0276247 -0.00100666 0)
(0.0269103 -0.000948486 0)
(0.0262305 -0.000894202 0)
(0.0255813 -0.000841507 0)
(0.0249678 -0.000793795 0)
(0.0243812 -0.000747 0)
(0.023832 -0.000706426 0)
(0.0233029 -0.000665657 0)
(0.0228152 -0.000632393 0)
(0.022336 -0.000597805 0)
(0.0219073 -0.000571426 0)
(0.0214677 -0.000543853 0)
(0.0210965 -0.000522667 0)
(0.0206836 -0.000504914 0)
(0.0203703 -0.000484632 0)
(0.0199684 -0.000483936 0)
(0.0197153 -0.000456042 0)
(0.0193067 -0.000486402 0)
(0.0191216 -0.000442782 0)
(0.0186814 -0.000507179 0)
(-0.00959914 -0.00054608 0)
(-0.00960531 -0.00053744 0)
(-0.00957621 -0.000522713 0)
(-0.00950694 -0.000500516 0)
(-0.00939259 -0.000469576 0)
(-0.00922774 -0.000428364 0)
(-0.00900701 -0.000375539 0)
(-0.0087248 -0.000309638 0)
(-0.00837567 -0.000229476 0)
(-0.00795427 -0.000133936 0)
(-0.0074556 -2.22917e-05 0)
(-0.00687507 0.000105925 0)
(-0.00620868 0.000250688 0)
(-0.0054531 0.000411565 0)
(-0.00460578 0.000587575 0)
(-0.00366509 0.000777275 0)
(-0.00263033 0.000978694 0)
(-0.00150184 0.00118945 0)
(-0.000281 0.00140673 0)
(0.00102973 0.00162745 0)
(0.00242683 0.0018483 0)
(0.00390573 0.00206584 0)
(0.00546084 0.00227661 0)
(0.00708567 0.00247725 0)
(0.00877284 0.00266456 0)
(0.0105142 0.0028356 0)
(0.012301 0.00298775 0)
(0.0141239 0.0031188 0)
(0.0159733 0.00322693 0)
(0.0178392 0.00331082 0)
(0.0197115 0.0033696 0)
(0.0215804 0.00340286 0)
(0.023436 0.00341066 0)
(0.0252689 0.0033935 0)
(0.0270701 0.00335226 0)
(0.028831 0.00328816 0)
(0.0305439 0.00320274 0)
(0.0322015 0.00309777 0)
(0.0337976 0.0029752 0)
(0.0353264 0.00283713 0)
(0.0367832 0.00268572 0)
(0.0381639 0.00252317 0)
(0.0394653 0.00235165 0)
(0.0406847 0.00217328 0)
(0.0418203 0.00199009 0)
(0.042871 0.00180398 0)
(0.043836 0.00161672 0)
(0.0447152 0.00142992 0)
(0.0455091 0.00124503 0)
(0.0462182 0.00106332 0)
(0.0468439 0.000885906 0)
(0.0473874 0.000713724 0)
(0.0478504 0.000547555 0)
(0.0482348 0.000388028 0)
(0.0485425 0.000235633 0)
(0.0487758 9.07274e-05 0)
(0.0489368 -4.64445e-05 0)
(0.0490278 -0.000175742 0)
(0.0490513 -0.000297114 0)
(0.0490095 -0.000410584 0)
(0.0489049 -0.000516239 0)
(0.0487398 -0.000614219 0)
(0.0485167 -0.0007047 0)
(0.0482379 -0.000787889 0)
(0.0479058 -0.000864014 0)
(0.0475228 -0.000933312 0)
(0.0470911 -0.000996027 0)
(0.046613 -0.0010524 0)
(0.0460909 -0.00110267 0)
(0.045527 -0.00114707 0)
(0.0449236 -0.00118581 0)
(0.0442831 -0.0012191 0)
(0.0436075 -0.00124713 0)
(0.0428994 -0.00127009 0)
(0.0421609 -0.00128813 0)
(0.0413945 -0.00130143 0)
(0.0406024 -0.00131014 0)
(0.0397872 -0.0013144 0)
(0.0389513 -0.00131438 0)
(0.0380972 -0.00131021 0)
(0.0372274 -0.00130206 0)
(0.0363447 -0.00129009 0)
(0.0354516 -0.00127449 0)
(0.0345508 -0.00125544 0)
(0.0336451 -0.00123316 0)
(0.0327372 -0.00120786 0)
(0.0318299 -0.0011798 0)
(0.0309259 -0.00114922 0)
(0.0300281 -0.00111642 0)
(0.0291389 -0.00108167 0)
(0.0282611 -0.00104527 0)
(0.027397 -0.00100752 0)
(0.0265492 -0.000968739 0)
(0.0257198 -0.000929218 0)
(0.0249108 -0.000889242 0)
(0.024124 -0.000849097 0)
(0.0233611 -0.000809021 0)
(0.0226235 -0.000769274 0)
(0.0219123 -0.000730026 0)
(0.0212284 -0.000691532 0)
(0.0205724 -0.000653881 0)
(0.0199449 -0.000617359 0)
(0.0193459 -0.000581938 0)
(0.0187757 -0.00054799 0)
(0.0182336 -0.000515284 0)
(0.01772 -0.000484383 0)
(0.017233 -0.000454715 0)
(0.0167739 -0.000427209 0)
(0.016339 -0.000400741 0)
(0.0159311 -0.000376892 0)
(0.0155438 -0.000353668 0)
(0.0151834 -0.000333703 0)
(0.0148382 -0.000313694 0)
(0.0145212 -0.00029778 0)
(0.0142115 -0.000280929 0)
(0.0139343 -0.00026905 0)
(0.0136525 -0.000255432 0)
(0.0134123 -0.000247121 0)
(0.0131494 -0.000237394 0)
(0.0129446 -0.000231177 0)
(0.0126906 -0.000227604 0)
(0.01252 -0.000220083 0)
(0.012265 -0.00022847 0)
(0.0121263 -0.000213342 0)
(0.0118631 -0.000245877 0)
(0.0117508 -0.000216099 0)
(0.0114769 -0.000286698 0)
(-0.00983124 -0.000343149 0)
(-0.0100818 -0.000355423 0)
(-0.0103241 -0.000366449 0)
(-0.0105542 -0.000375509 0)
(-0.010768 -0.00038176 0)
(-0.0109601 -0.000384179 0)
(-0.011125 -0.000381702 0)
(-0.0112563 -0.000373119 0)
(-0.0113473 -0.000357263 0)
(-0.0113906 -0.000332939 0)
(-0.0113788 -0.000299114 0)
(-0.0113044 -0.000254885 0)
(-0.0111598 -0.000199641 0)
(-0.0109381 -0.000133048 0)
(-0.0106327 -5.51611e-05 0)
(-0.0102378 3.35996e-05 0)
(-0.0097487 0.000132397 0)
(-0.00916164 0.000240031 0)
(-0.00847421 0.000354941 0)
(-0.00768537 0.000475288 0)
(-0.0067955 0.000598996 0)
(-0.00580643 0.000723847 0)
(-0.00472147 0.000847539 0)
(-0.0035453 0.000967783 0)
(-0.00228395 0.00108236 0)
(-0.000944651 0.00118918 0)
(0.000464278 0.00128638 0)
(0.0019336 0.0013723 0)
(0.00345332 0.0014456 0)
(0.00501289 0.00150519 0)
(0.00660136 0.00155033 0)
(0.00820761 0.00158059 0)
(0.00982048 0.00159583 0)
(0.011429 0.00159622 0)
(0.0130225 0.00158219 0)
(0.0145908 0.00155442 0)
(0.0161243 0.0015138 0)
(0.0176141 0.00146138 0)
(0.0190521 0.00139836 0)
(0.0204309 0.00132605 0)
(0.0217443 0.00124582 0)
(0.0229866 0.00115904 0)
(0.0241532 0.00106714 0)
(0.0252404 0.000971457 0)
(0.0262454 0.000873324 0)
(0.0271661 0.000773978 0)
(0.0280012 0.000674572 0)
(0.0287501 0.000576155 0)
(0.029413 0.000479667 0)
(0.0299905 0.00038593 0)
(0.0304838 0.000295648 0)
(0.0308946 0.000209407 0)
(0.031225 0.000127677 0)
(0.0314774 5.08197e-05 0)
(0.0316546 -2.0909e-05 0)
(0.0317596 -8.73475e-05 0)
(0.0317954 -0.000148421 0)
(0.0317655 -0.000204132 0)
(0.0316732 -0.000254547 0)
(0.031522 -0.000299793 0)
(0.0313154 -0.000340038 0)
(0.031057 -0.000375491 0)
(0.0307504 -0.000406383 0)
(0.030399 -0.000432967 0)
(0.0300063 -0.000455505 0)
(0.0295756 -0.000474264 0)
(0.0291103 -0.000489509 0)
(0.0286137 -0.000501498 0)
(0.0280888 -0.000510482 0)
(0.0275388 -0.000516698 0)
(0.0269666 -0.000520371 0)
(0.0263751 -0.000521711 0)
(0.0257671 -0.000520916 0)
(0.0251453 -0.000518168 0)
(0.0245124 -0.000513641 0)
(0.0238708 -0.000507495 0)
(0.023223 -0.000499881 0)
(0.0225714 -0.000490944 0)
(0.0219183 -0.000480822 0)
(0.0212658 -0.000469649 0)
(0.020616 -0.000457553 0)
(0.0199709 -0.000444663 0)
(0.0193325 -0.000431102 0)
(0.0187025 -0.000416992 0)
(0.0180826 -0.000402453 0)
(0.0174743 -0.000387599 0)
(0.0168791 -0.000372539 0)
(0.0162982 -0.000357376 0)
(0.0157329 -0.000342203 0)
(0.0151842 -0.000327107 0)
(0.0146528 -0.000312157 0)
(0.0141397 -0.000297418 0)
(0.0136453 -0.000282933 0)
(0.0131702 -0.000268744 0)
(0.0127146 -0.000254867 0)
(0.0122788 -0.000241325 0)
(0.0118628 -0.000228116 0)
(0.0114666 -0.000215263 0)
(0.01109 -0.000202753 0)
(0.0107328 -0.000190645 0)
(0.0103946 -0.000178917 0)
(0.010075 -0.000167682 0)
(0.00977335 -0.00015688 0)
(0.00948942 -0.000146703 0)
(0.00922186 -0.000136996 0)
(0.00897098 -0.000128065 0)
(0.0087345 -0.000119578 0)
(0.00851374 -0.000112039 0)
(0.00830481 -0.000104822 0)
(0.00811111 -9.87641e-05 0)
(0.00792582 -9.2797e-05 0)
(0.00775621 -8.82626e-05 0)
(0.00759016 -8.34742e-05 0)
(0.00744202 -8.04347e-05 0)
(0.00729031 -7.67448e-05 0)
(0.00716164 -7.50386e-05 0)
(0.00701873 -7.24823e-05 0)
(0.00690836 -7.16783e-05 0)
(0.00676808 -7.06799e-05 0)
(0.0066757 -6.97914e-05 0)