/*--------------------------------*- C++ -*----------------------------------*\
| =========                 |                                                 |
| \\      /  F ield         | OpenFOAM: The Open Source CFD Toolbox           |
|  \\    /   O peration     | Version:  4.1                                   |
|   \\  /    A nd           | Web:      www.OpenFOAM.org                      |
|    \\/     M anipulation  |                                                 |
\*---------------------------------------------------------------------------*/
FoamFile
{
    version     2.0;
    format      ascii;
    class       volVectorField;
    location    "221";
    object      U;
}
// * * * * * * * * * * * * * * * * * * * * * * * * * * * * * * * * * * * * * //

dimensions      [0 1 -1 0 0 0 0];

internalField   nonuniform List<vector> 
3264
(
(-2.7199e-07 -2.16826e-06 0)
(-0.000112913 2.58793e-05 0)
(-0.000344529 4.29414e-05 0)
(-0.000609607 4.48023e-05 0)
(-0.000892417 4.59013e-05 0)
(-0.00118335 4.43602e-05 0)
(-0.00147696 4.47105e-05 0)
(-0.00177622 4.46275e-05 0)
(-0.00207845 4.54615e-05 0)
(-0.0023871 4.64481e-05 0)
(-0.00270264 4.81975e-05 0)
(-0.00302871 5.06754e-05 0)
(-0.00336785 5.42729e-05 0)
(-0.00372381 5.91844e-05 0)
(-0.00409974 6.57009e-05 0)
(-0.00449884 7.40141e-05 0)
(-0.00492349 8.42697e-05 0)
(-0.00537526 9.64854e-05 0)
(-0.00585441 0.000110537 0)
(-0.00635974 0.000126116 0)
(-0.00688829 0.000142725 0)
(-0.00743524 0.000159678 0)
(-0.00799388 0.000176133 0)
(-0.00855565 0.000191152 0)
(-0.00911041 0.000203764 0)
(-0.00964672 0.000213044 0)
(-0.0101522 0.000218182 0)
(-0.0106141 0.000218539 0)
(-0.0110195 0.000213681 0)
(-0.0113561 0.000203396 0)
(-0.0116123 0.000187687 0)
(-0.0117778 0.000166755 0)
(-0.0118435 0.000140974 0)
(-0.0118022 0.00011086 0)
(-0.0116483 7.70441e-05 0)
(-0.011378 4.02421e-05 0)
(-0.0109895 1.23325e-06 0)
(-0.0104829 -3.91608e-05 0)
(-0.00986001 -8.00931e-05 0)
(-0.00912462 -0.000120706 0)
(-0.00828226 -0.000160142 0)
(-0.00734015 -0.000197561 0)
(-0.0063072 -0.000232145 0)
(-0.00519385 -0.000263116 0)
(-0.00401203 -0.00028975 0)
(-0.00277502 -0.000311391 0)
(-0.00149728 -0.00032747 0)
(-0.000194368 -0.000337528 0)
(0.00111735 -0.000341234 0)
(0.00242088 -0.000338409 0)
(0.00369889 -0.000329045 0)
(0.004934 -0.00031333 0)
(0.00610917 -0.000291655 0)
(0.00720806 -0.00026463 0)
(0.00821541 -0.000233078 0)
(0.0091175 -0.000198033 0)
(0.00990259 -0.000160713 0)
(0.0105613 -0.000122487 0)
(0.0110869 -8.48182e-05 0)
(0.0114759 -4.91946e-05 0)
(0.011728 -1.70276e-05 0)
(0.0118465 1.04671e-05 0)
(0.011838 3.2407e-05 0)
(0.0117124 4.83793e-05 0)
(0.0114827 5.85431e-05 0)
(0.0111638 6.36553e-05 0)
(0.0107727 6.49731e-05 0)
(0.010327 6.40167e-05 0)
(0.00984439 6.2223e-05 0)
(0.00934179 6.05892e-05 0)
(0.00883461 5.94478e-05 0)
(0.00833592 5.84844e-05 0)
(0.00785584 5.70036e-05 0)
(0.00740124 5.43233e-05 0)
(0.00697596 5.01263e-05 0)
(0.00658157 4.46411e-05 0)
(0.00621804 3.86162e-05 0)
(0.00588439 3.31101e-05 0)
(0.00557875 2.91636e-05 0)
(0.00529842 2.74669e-05 0)
(0.00503999 2.81634e-05 0)
(0.00479974 3.08773e-05 0)
(0.00457412 3.4927e-05 0)
(0.00436024 3.9589e-05 0)
(0.00415616 4.42766e-05 0)
(0.00396112 4.85849e-05 0)
(0.00377555 5.2239e-05 0)
(0.00360115 5.50156e-05 0)
(0.00344067 5.6692e-05 0)
(0.00329777 5.70346e-05 0)
(0.0031767 5.58199e-05 0)
(0.00308199 5.28676e-05 0)
(0.00301817 4.80707e-05 0)
(0.00298947 4.14146e-05 0)
(0.0029996 3.29833e-05 0)
(0.00305154 2.29533e-05 0)
(0.00314741 1.15809e-05 0)
(0.00328835 -8.15328e-07 0)
(0.00347444 -1.38738e-05 0)
(0.00370469 -2.72083e-05 0)
(0.00397703 -4.04254e-05 0)
(0.00428838 -5.314e-05 0)
(0.00463466 -6.49895e-05 0)
(0.0050109 -7.56462e-05 0)
(0.0054114 -8.48285e-05 0)
(0.00582979 -9.23102e-05 0)
(0.00625926 -9.79275e-05 0)
(0.0066927 -0.000101584 0)
(0.00712296 -0.000103253 0)
(0.00754303 -0.000102973 0)
(0.00794631 -0.000100845 0)
(0.00832678 -9.70258e-05 0)
(0.00867928 -9.17135e-05 0)
(0.00899963 -8.51409e-05 0)
(0.00928476 -7.7564e-05 0)
(0.00953281 -6.92518e-05 0)
(0.0097431 -6.04779e-05 0)
(0.0099161 -5.1512e-05 0)
(0.0100533 -4.26108e-05 0)
(0.010157 -3.40095e-05 0)
(0.0102303 -2.59143e-05 0)
(0.0102768 -1.84955e-05 0)
(0.0103003 -1.18836e-05 0)
(0.0103048 -6.16776e-06 0)
(0.0102943 -1.39682e-06 0)
(0.0102725 2.41844e-06 0)
(0.010243 5.30144e-06 0)
(0.0102088 7.30552e-06 0)
(0.0101727 8.50905e-06 0)
(0.0101369 9.01006e-06 0)
(0.0101033 8.92035e-06 0)
(0.010073 8.3593e-06 0)
(0.010047 7.44766e-06 0)
(0.0100259 6.30172e-06 0)
(0.0100096 5.0283e-06 0)
(0.00999809 3.72075e-06 0)
(0.00999104 2.45639e-06 0)
(0.00998792 1.29509e-06 0)
(0.00998812 2.7924e-07 0)
(0.00999101 -5.65342e-07 0)
(0.00999592 -1.22759e-06 0)
(0.0100022 -1.7089e-06 0)
(0.0100094 -2.02044e-06 0)
(0.0100169 -2.18053e-06 0)
(0.0100244 -2.21202e-06 0)
(0.0100315 -2.13998e-06 0)
(0.010038 -1.98976e-06 0)
(0.0100438 -1.78545e-06 0)
(0.0100487 -1.54876e-06 0)
(0.0100528 -1.2983e-06 0)
(0.0100561 -1.0492e-06 0)
(0.0100587 -8.13073e-07 0)
(0.0100605 -5.98152e-07 0)
(0.0100618 -4.0963e-07 0)
(0.0100625 -2.50093e-07 0)
(0.0100629 -1.20009e-07 0)
(0.0100629 -1.82141e-08 0)
(0.0100627 5.76111e-08 0)
(0.0100623 1.10528e-07 0)
(0.0100619 1.43985e-07 0)
(0.0100614 1.61524e-07 0)
(0.0100608 1.66569e-07 0)
(0.0100603 1.6227e-07 0)
(0.0100599 1.51405e-07 0)
(0.0100594 1.36329e-07 0)
(0.0100591 1.18965e-07 0)
(0.0100588 1.00819e-07 0)
(0.0100585 8.30132e-08 0)
(0.0100583 6.63346e-08 0)
(0.0100581 5.12877e-08 0)
(0.010058 3.81482e-08 0)
(0.0100579 2.70137e-08 0)
(0.0100579 1.78503e-08 0)
(0.0100579 1.0533e-08 0)
(0.0100578 4.87857e-09 0)
(0.0100578 6.73174e-10 0)
(0.0100578 -2.30763e-09 0)
(0.0100579 -4.28366e-09 0)
(0.0100579 -5.45987e-09 0)
(0.0100579 -6.02006e-09 0)
(0.0100579 -6.12359e-09 0)
(0.0100579 -5.90447e-09 0)
(0.0100579 -5.47211e-09 0)
(0.010058 -4.91312e-09 0)
(0.010058 -4.2939e-09 0)
(0.010058 -3.66338e-09 0)
(0.010058 -3.05595e-09 0)
(0.010058 -2.49421e-09 0)
(0.010058 -1.99148e-09 0)
(0.010058 -1.55407e-09 0)
(0.010058 -1.18309e-09 0)
(0.010058 -8.76115e-10 0)
(0.010058 -6.2834e-10 0)
(0.010058 -4.33699e-10 0)
(0.010058 -2.85141e-10 0)
(0.010058 -1.76214e-10 0)
(0.010058 -9.87909e-11 0)
(0.010058 -4.75532e-11 0)
(0.010058 -1.60078e-11 0)
(0.010058 1.90901e-11 0)
(-7.73516e-05 0.000115032 0)
(-0.000543861 0.000338157 0)
(-0.00123325 0.000475292 0)
(-0.00198011 0.000525729 0)
(-0.00274668 0.000555221 0)
(-0.00351913 0.000566309 0)
(-0.00428498 0.000577565 0)
(-0.00505007 0.000585585 0)
(-0.00581041 0.000595951 0)
(-0.0065722 0.000608519 0)
(-0.00733663 0.000625675 0)
(-0.00810878 0.000647938 0)
(-0.00889113 0.00067602 0)
(-0.00968647 0.00070974 0)
(-0.0104953 0.000748482 0)
(-0.0113167 0.00079096 0)
(-0.012147 0.000835329 0)
(-0.0129803 0.000879197 0)
(-0.013808 0.000919735 0)
(-0.0146192 0.000953812 0)
(-0.0154008 0.000978168 0)
(-0.0161379 0.000989614 0)
(-0.0168148 0.000985235 0)
(-0.0174149 0.000962565 0)
(-0.0179217 0.000919736 0)
(-0.0183195 0.000855571 0)
(-0.0185934 0.000769619 0)
(-0.01873 0.000662146 0)
(-0.0187176 0.000534074 0)
(-0.0185465 0.000386902 0)
(-0.0182089 0.000222602 0)
(-0.0176991 4.35178e-05 0)
(-0.0170137 -0.000147729 0)
(-0.016151 -0.000348323 0)
(-0.0151117 -0.000555322 0)
(-0.0138981 -0.000765715 0)
(-0.0125145 -0.000976456 0)
(-0.0109673 -0.0011845 0)
(-0.00926425 -0.00138684 0)
(-0.00741506 -0.0015805 0)
(-0.00543105 -0.00176256 0)
(-0.00332512 -0.0019302 0)
(-0.00111173 -0.00208068 0)
(0.00119318 -0.00221141 0)
(0.00357224 -0.00231993 0)
(0.00600677 -0.00240398 0)
(0.00847684 -0.00246157 0)
(0.0109615 -0.00249097 0)
(0.0134387 -0.00249082 0)
(0.0158858 -0.00246021 0)
(0.0182796 -0.00239867 0)
(0.0205968 -0.00230634 0)
(0.0228141 -0.0021839 0)
(0.0249083 -0.00203275 0)
(0.0268575 -0.00185492 0)
(0.0286404 -0.00165316 0)
(0.0302374 -0.0014309 0)
(0.0316308 -0.00119221 0)
(0.0328047 -0.000941806 0)
(0.0337461 -0.000684914 0)
(0.0344446 -0.000427221 0)
(0.0348929 -0.000174744 0)
(0.0350877 6.63342e-05 0)
(0.0350294 0.000289865 0)
(0.0347234 0.00048999 0)
(0.0341799 0.000661451 0)
(0.0334149 0.000799956 0)
(0.0324504 0.0009026 0)
(0.0313144 0.00096833 0)
(0.03004 0.000998377 0)
(0.0286644 0.000996511 0)
(0.0272267 0.000968884 0)
(0.0257658 0.000923224 0)
(0.0243178 0.00086745 0)
(0.0229144 0.000808109 0)
(0.0215809 0.000749362 0)
(0.0203356 0.000693003 0)
(0.0191894 0.000639404 0)
(0.0181458 0.000588674 0)
(0.0172028 0.000541312 0)
(0.0163547 0.000498153 0)
(0.0155945 0.000459916 0)
(0.0149152 0.000426773 0)
(0.0143108 0.000398124 0)
(0.0137766 0.000372602 0)
(0.0133097 0.00034823 0)
(0.0129084 0.000322707 0)
(0.0125729 0.000293749 0)
(0.0123045 0.000259399 0)
(0.0121059 0.000218241 0)
(0.0119804 0.000169488 0)
(0.0119313 0.000112974 0)
(0.011962 4.9078e-05 0)
(0.0120752 -2.13696e-05 0)
(0.0122726 -9.71818e-05 0)
(0.0125549 -0.000176902 0)
(0.0129217 -0.000258879 0)
(0.0133708 -0.000341336 0)
(0.0138992 -0.000422426 0)
(0.0145022 -0.000500287 0)
(0.0151738 -0.000573091 0)
(0.0159069 -0.000639089 0)
(0.0166929 -0.000696652 0)
(0.0175226 -0.000744319 0)
(0.0183854 -0.00078084 0)
(0.0192702 -0.000805224 0)
(0.0201649 -0.00081679 0)
(0.0210573 -0.000815208 0)
(0.0219348 -0.000800546 0)
(0.022785 -0.000773294 0)
(0.023596 -0.000734376 0)
(0.0243567 -0.000685137 0)
(0.0250571 -0.000627294 0)
(0.0256891 -0.000562861 0)
(0.0262463 -0.000494048 0)
(0.0267248 -0.000423131 0)
(0.0271233 -0.00035233 0)
(0.0274426 -0.000283686 0)
(0.0276864 -0.00021897 0)
(0.0278602 -0.000159609 0)
(0.0279712 -0.000106665 0)
(0.028028 -6.08261e-05 0)
(0.0280397 -2.24287e-05 0)
(0.0280157 8.50471e-06 0)
(0.0279651 3.22229e-05 0)
(0.0278963 4.9197e-05 0)
(0.0278166 6.00705e-05 0)
(0.0277326 6.56109e-05 0)
(0.0276494 6.6661e-05 0)
(0.0275711 6.40954e-05 0)
(0.0275005 5.87799e-05 0)
(0.0274397 5.15369e-05 0)
(0.0273897 4.3118e-05 0)
(0.0273505 3.41825e-05 0)
(0.0273221 2.52843e-05 0)
(0.0273034 1.68644e-05 0)
(0.0272935 9.25123e-06 0)
(0.0272909 2.66555e-06 0)
(0.0272943 -2.76989e-06 0)
(0.0273022 -7.01726e-06 0)
(0.0273134 -1.01086e-05 0)
(0.0273267 -1.21296e-05 0)
(0.0273409 -1.32043e-05 0)
(0.0273553 -1.34795e-05 0)
(0.0273692 -1.31126e-05 0)
(0.027382 -1.22599e-05 0)
(0.0273935 -1.10687e-05 0)
(0.0274035 -9.67108e-06 0)
(0.0274118 -8.17975e-06 0)
(0.0274186 -6.68656e-06 0)
(0.0274239 -5.26211e-06 0)
(0.0274278 -3.9569e-06 0)
(0.0274305 -2.80338e-06 0)
(0.0274322 -1.81844e-06 0)
(0.0274332 -1.00635e-06 0)
(0.0274334 -3.61616e-07 0)
(0.0274332 1.28288e-07 0)
(0.0274327 4.80466e-07 0)
(0.027432 7.14515e-07 0)
(0.0274311 8.50832e-07 0)
(0.0274302 9.09319e-07 0)
(0.0274292 9.08453e-07 0)
(0.0274284 8.64689e-07 0)
(0.0274276 7.92133e-07 0)
(0.0274269 7.0244e-07 0)
(0.0274263 6.04871e-07 0)
(0.0274258 5.06475e-07 0)
(0.0274255 4.12335e-07 0)
(0.0274251 3.25859e-07 0)
(0.0274249 2.49084e-07 0)
(0.0274247 1.82956e-07 0)
(0.0274246 1.27605e-07 0)
(0.0274245 8.25739e-08 0)
(0.0274245 4.70145e-08 0)
(0.0274245 1.98504e-08 0)
(0.0274245 -9.94069e-11 0)
(0.0274245 -1.4027e-08 0)
(0.0274245 -2.30695e-08 0)
(0.0274245 -2.82667e-08 0)
(0.0274246 -3.05356e-08 0)
(0.0274246 -3.06611e-08 0)
(0.0274246 -2.92948e-08 0)
(0.0274247 -2.69629e-08 0)
(0.0274247 -2.40775e-08 0)
(0.0274247 -2.09508e-08 0)
(0.0274247 -1.78101e-08 0)
(0.0274247 -1.48127e-08 0)
(0.0274247 -1.20597e-08 0)
(0.0274247 -9.60877e-09 0)
(0.0274248 -7.48458e-09 0)
(0.0274248 -5.68824e-09 0)
(0.0274248 -4.20464e-09 0)
(0.0274248 -3.00833e-09 0)
(0.0274248 -2.0683e-09 0)
(0.0274248 -1.35038e-09 0)
(0.0274248 -8.22379e-10 0)
(0.0274248 -4.47624e-10 0)
(0.0274248 -2.02656e-10 0)
(0.0274248 -5.08285e-11 0)
(0.0274248 6.1513e-11 0)
(-0.000175374 0.000602765 0)
(-0.00102017 0.00117967 0)
(-0.00212624 0.00146389 0)
(-0.00326036 0.0015295 0)
(-0.00436438 0.00155542 0)
(-0.0054298 0.00154589 0)
(-0.00644038 0.00154006 0)
(-0.00740796 0.00153168 0)
(-0.00832972 0.00153005 0)
(-0.0092145 0.00153423 0)
(-0.0100637 0.00154661 0)
(-0.0108815 0.00156647 0)
(-0.011668 0.00159289 0)
(-0.0124229 0.00162352 0)
(-0.0131426 0.00165526 0)
(-0.0138219 0.00168412 0)
(-0.0144534 0.00170561 0)
(-0.0150275 0.0017149 0)
(-0.0155335 0.00170714 0)
(-0.0159592 0.00167772 0)
(-0.0162921 0.00162254 0)
(-0.0165194 0.00153819 0)
(-0.0166287 0.00142216 0)
(-0.0166082 0.00127288 0)
(-0.0164473 0.00108979 0)
(-0.0161368 0.00087328 0)
(-0.0156689 0.000624637 0)
(-0.0150373 0.000345934 0)
(-0.0142372 3.99053e-05 0)
(-0.0132658 -0.00029018 0)
(-0.0121213 -0.000640639 0)
(-0.0108039 -0.00100748 0)
(-0.00931477 -0.00138649 0)
(-0.00765686 -0.00177331 0)
(-0.00583434 -0.00216348 0)
(-0.00385276 -0.0025525 0)
(-0.001719 -0.00293582 0)
(0.000558692 -0.00330891 0)
(0.00297076 -0.00366722 0)
(0.0055063 -0.00400626 0)
(0.00815305 -0.00432156 0)
(0.0108975 -0.00460876 0)
(0.0137246 -0.00486355 0)
(0.0166184 -0.0050818 0)
(0.0195613 -0.00525957 0)
(0.0225347 -0.00539314 0)
(0.025519 -0.00547919 0)
(0.0284934 -0.00551478 0)
(0.0314366 -0.00549753 0)
(0.0343265 -0.00542571 0)
(0.0371408 -0.00529833 0)
(0.0398572 -0.00511527 0)
(0.0424537 -0.00487733 0)
(0.0449089 -0.0045863 0)
(0.0472022 -0.004245 0)
(0.0493146 -0.00385725 0)
(0.0512281 -0.00342783 0)
(0.0529266 -0.00296241 0)
(0.0543956 -0.00246745 0)
(0.0556226 -0.00195013 0)
(0.0565967 -0.00141816 0)
(0.0573087 -0.000879784 0)
(0.0577513 -0.000343627 0)
(0.057919 0.000181332 0)
(0.0578081 0.000685825 0)
(0.057417 0.00116034 0)
(0.0567469 0.00159519 0)
(0.0558019 0.00198071 0)
(0.0545907 0.00230759 0)
(0.0531268 0.00256746 0)
(0.0514307 0.00275376 0)
(0.04953 0.00286277 0)
(0.0474612 0.00289461 0)
(0.0452686 0.00285383 0)
(0.0430033 0.00274957 0)
(0.0407204 0.00259507 0)
(0.0384741 0.0024065 0)
(0.0363139 0.00220096 0)
(0.0342807 0.00199402 0)
(0.0324042 0.00179727 0)
(0.0307029 0.00161701 0)
(0.0291845 0.0014545 0)
(0.0278481 0.00130751 0)
(0.0266865 0.00117219 0)
(0.0256892 0.00104445 0)
(0.0248449 0.000920551 0)
(0.0241432 0.000797148 0)
(0.0235756 0.000671273 0)
(0.0231359 0.000540382 0)
(0.0228193 0.000402499 0)
(0.0226223 0.000256382 0)
(0.0225421 0.000101615 0)
(0.0225764 -6.13817e-05 0)
(0.0227223 -0.000231418 0)
(0.0229771 -0.000406652 0)
(0.0233372 -0.000584727 0)
(0.0237984 -0.000762915 0)
(0.0243557 -0.000938249 0)
(0.0250034 -0.00110763 0)
(0.0257347 -0.00126795 0)
(0.0265421 -0.0014161 0)
(0.0274171 -0.00154914 0)
(0.0283505 -0.00166427 0)
(0.0293322 -0.00175892 0)
(0.0303516 -0.00183084 0)
(0.0313973 -0.0018781 0)
(0.0324574 -0.00189925 0)
(0.0335195 -0.00189336 0)
(0.0345709 -0.00186011 0)
(0.035599 -0.0017999 0)
(0.036591 -0.00171394 0)
(0.0375345 -0.00160428 0)
(0.0384177 -0.00147386 0)
(0.03923 -0.00132645 0)
(0.039962 -0.00116654 0)
(0.0406063 -0.000999203 0)
(0.0411576 -0.000829762 0)
(0.0416136 -0.000663528 0)
(0.0419745 -0.000505449 0)
(0.0422437 -0.000359799 0)
(0.0424274 -0.000229933 0)
(0.0425343 -0.000118135 0)
(0.0425748 -2.55861e-05 0)
(0.0425609 4.75724e-05 0)
(0.0425046 0.000102092 0)
(0.0424179 0.000139424 0)
(0.042312 0.000161516 0)
(0.0421965 0.000170613 0)
(0.0420797 0.000169091 0)
(0.041968 0.000159321 0)
(0.0418661 0.000143555 0)
(0.0417773 0.000123855 0)
(0.0417032 0.000102037 0)
(0.0416444 7.96363e-05 0)
(0.0416007 5.78947e-05 0)
(0.041571 3.77604e-05 0)
(0.0415537 1.99019e-05 0)
(0.0415469 4.73154e-06 0)
(0.0415487 -7.56225e-06 0)
(0.0415572 -1.69788e-05 0)
(0.0415704 -2.36656e-05 0)
(0.0415867 -2.78799e-05 0)
(0.0416046 -2.99506e-05 0)
(0.0416229 -3.02461e-05 0)
(0.0416407 -2.91448e-05 0)
(0.0416572 -2.7013e-05 0)
(0.041672 -2.41869e-05 0)
(0.0416848 -2.09616e-05 0)
(0.0416956 -1.75841e-05 0)
(0.0417043 -1.42511e-05 0)
(0.041711 -1.11103e-05 0)
(0.041716 -8.2636e-06 0)
(0.0417195 -5.77328e-06 0)
(0.0417217 -3.66796e-06 0)
(0.0417228 -1.94956e-06 0)
(0.0417232 -5.99918e-07 0)
(0.0417229 4.131e-07 0)
(0.0417222 1.13028e-06 0)
(0.0417212 1.59661e-06 0)
(0.0417201 1.85775e-06 0)
(0.041719 1.95742e-06 0)
(0.0417178 1.93561e-06 0)
(0.0417168 1.82742e-06 0)
(0.0417158 1.66259e-06 0)
(0.041715 1.46536e-06 0)
(0.0417142 1.25478e-06 0)
(0.0417137 1.0451e-06 0)
(0.0417132 8.46451e-07 0)
(0.0417128 6.65443e-07 0)
(0.0417125 5.05861e-07 0)
(0.0417123 3.69281e-07 0)
(0.0417122 2.55637e-07 0)
(0.0417121 1.63711e-07 0)
(0.0417121 9.15423e-08 0)
(0.041712 3.67491e-08 0)
(0.0417121 -3.21561e-09 0)
(0.0417121 -3.08817e-08 0)
(0.0417121 -4.86336e-08 0)
(0.0417121 -5.86301e-08 0)
(0.0417122 -6.27603e-08 0)
(0.0417122 -6.26283e-08 0)
(0.0417122 -5.95575e-08 0)
(0.0417123 -5.46092e-08 0)
(0.0417123 -4.86091e-08 0)
(0.0417123 -4.21783e-08 0)
(0.0417123 -3.57653e-08 0)
(0.0417124 -2.96772e-08 0)
(0.0417124 -2.41088e-08 0)
(0.0417124 -1.91679e-08 0)
(0.0417124 -1.48976e-08 0)
(0.0417124 -1.12947e-08 0)
(0.0417124 -8.32453e-09 0)
(0.0417124 -5.93291e-09 0)
(0.0417124 -4.05513e-09 0)
(0.0417124 -2.62234e-09 0)
(0.0417124 -1.56726e-09 0)
(0.0417124 -8.22367e-10 0)
(0.0417124 -3.35378e-10 0)
(0.0417124 -3.8711e-11 0)
(0.0417124 1.26357e-10 0)
(-0.000308744 0.00121436 0)
(-0.00152993 0.0022355 0)
(-0.00289621 0.0026588 0)
(-0.00418203 0.00270843 0)
(-0.00530628 0.00268388 0)
(-0.00631849 0.00260418 0)
(-0.00720302 0.00252745 0)
(-0.00799202 0.00244944 0)
(-0.008685 0.00238236 0)
(-0.0092963 0.00232492 0)
(-0.0098281 0.0022784 0)
(-0.0102854 0.00224042 0)
(-0.0106682 0.00220812 0)
(-0.0109759 0.00217726 0)
(-0.0112053 0.00214297 0)
(-0.0113518 0.00209977 0)
(-0.0114097 0.00204195 0)
(-0.0113722 0.00196387 0)
(-0.0112319 0.00186016 0)
(-0.0109813 0.00172608 0)
(-0.0106128 0.00155767 0)
(-0.0101194 0.00135193 0)
(-0.0094945 0.00110691 0)
(-0.00873238 0.000821776 0)
(-0.00782816 0.000496749 0)
(-0.00677794 0.000133064 0)
(-0.00557876 -0.000267139 0)
(-0.0042287 -0.000700928 0)
(-0.00272677 -0.00116471 0)
(-0.00107299 -0.00165434 0)
(0.000731694 -0.00216526 0)
(0.00268534 -0.00269255 0)
(0.00478504 -0.00323106 0)
(0.00702686 -0.00377539 0)
(0.00940584 -0.00432002 0)
(0.0119159 -0.00485928 0)
(0.0145498 -0.00538738 0)
(0.0172991 -0.00589847 0)
(0.0201541 -0.00638664 0)
(0.0231038 -0.00684591 0)
(0.0261358 -0.00727035 0)
(0.0292365 -0.00765401 0)
(0.032391 -0.00799105 0)
(0.0355828 -0.00827575 0)
(0.0387945 -0.00850264 0)
(0.0420073 -0.00866655 0)
(0.0452016 -0.00876276 0)
(0.0483568 -0.00878716 0)
(0.0514517 -0.00873641 0)
(0.0544651 -0.00860809 0)
(0.0573755 -0.00840086 0)
(0.0601624 -0.00811464 0)
(0.0628059 -0.00775069 0)
(0.0652875 -0.00731167 0)
(0.0675904 -0.00680163 0)
(0.0696997 -0.00622602 0)
(0.0716027 -0.00559145 0)
(0.0732889 -0.00490563 0)
(0.0747498 -0.00417712 0)
(0.075979 -0.00341511 0)
(0.0769716 -0.00262926 0)
(0.0777242 -0.00182951 0)
(0.0782342 -0.00102594 0)
(0.0785 -0.000228704 0)
(0.0785203 0.000552004 0)
(0.0782939 0.00130597 0)
(0.0778198 0.00202294 0)
(0.0770973 0.00269256 0)
(0.0761256 0.00330446 0)
(0.0749051 0.00384828 0)
(0.0734374 0.0043139 0)
(0.0717265 0.00469177 0)
(0.0697808 0.00497337 0)
(0.0676142 0.00515189 0)
(0.0652483 0.00522314 0)
(0.0627139 0.00518672 0)
(0.0600521 0.00504732 0)
(0.0573134 0.00481571 0)
(0.054556 0.00450865 0)
(0.0518423 0.00414758 0)
(0.0492331 0.00375593 0)
(0.0467826 0.00335595 0)
(0.0445337 0.00296561 0)
(0.0425152 0.00259659 0)
(0.0407421 0.00225363 0)
(0.0392167 0.00193555 0)
(0.0379323 0.00163717 0)
(0.0368761 0.00135168 0)
(0.0360323 0.0010725 0)
(0.0353845 0.000794471 0)
(0.0349173 0.000514249 0)
(0.0346166 0.000230285 0)
(0.0344703 -5.74722e-05 0)
(0.0344673 -0.000347896 0)
(0.0345978 -0.000638968 0)
(0.0348526 -0.000928009 0)
(0.0352226 -0.00121187 0)
(0.0356991 -0.00148707 0)
(0.036273 -0.00174995 0)
(0.0369351 -0.00199675 0)
(0.0376761 -0.00222375 0)
(0.038486 -0.0024273 0)
(0.0393548 -0.00260395 0)
(0.0402721 -0.00275048 0)
(0.0412272 -0.00286402 0)
(0.0422093 -0.00294211 0)
(0.0432075 -0.00298278 0)
(0.0442108 -0.00298467 0)
(0.0452082 -0.00294715 0)
(0.0461892 -0.00287038 0)
(0.0471433 -0.00275545 0)
(0.0480606 -0.00260446 0)
(0.0489315 -0.0024206 0)
(0.0497471 -0.00220818 0)
(0.0504994 -0.0019726 0)
(0.0511809 -0.00172024 0)
(0.0517857 -0.00145828 0)
(0.052309 -0.00119443 0)
(0.0527478 -0.000936502 0)
(0.0531011 -0.000691969 0)
(0.0533703 -0.000467509 0)
(0.0535591 -0.000268553 0)
(0.0536738 -9.89567e-05 0)
(0.0537227 3.918e-05 0)
(0.0537158 0.000145519 0)
(0.0536643 0.000221322 0)
(0.0535796 0.000269159 0)
(0.0534729 0.000292548 0)
(0.0533545 0.000295565 0)
(0.0532331 0.000282499 0)
(0.053116 0.00025756 0)
(0.0530085 0.000224652 0)
(0.0529144 0.000187237 0)
(0.0528357 0.00014824 0)
(0.0527734 0.000110022 0)
(0.052727 7.43801e-05 0)
(0.0526955 4.25816e-05 0)
(0.0526773 1.54148e-05 0)
(0.0526702 -6.74675e-06 0)
(0.0526722 -2.38734e-05 0)
(0.0526812 -3.62058e-05 0)
(0.052695 -4.41831e-05 0)
(0.052712 -4.83756e-05 0)
(0.0527305 -4.94245e-05 0)
(0.0527492 -4.79916e-05 0)
(0.0527673 -4.47174e-05 0)
(0.0527839 -4.01913e-05 0)
(0.0527987 -3.49301e-05 0)
(0.0528113 -2.93666e-05 0)
(0.0528217 -2.38456e-05 0)
(0.05283 -1.86255e-05 0)
(0.0528364 -1.38856e-05 0)
(0.0528409 -9.73524e-06 0)
(0.0528439 -6.22546e-06 0)
(0.0528457 -3.36108e-06 0)
(0.0528465 -1.11222e-06 0)
(0.0528465 5.75002e-07 0)
(0.052846 1.7692e-06 0)
(0.0528451 2.54605e-06 0)
(0.052844 2.98224e-06 0)
(0.0528428 3.15101e-06 0)
(0.0528416 3.11914e-06 0)
(0.0528404 2.9451e-06 0)
(0.0528394 2.67821e-06 0)
(0.0528384 2.35855e-06 0)
(0.0528376 2.01742e-06 0)
(0.052837 1.67818e-06 0)
(0.0528364 1.35729e-06 0)
(0.052836 1.06544e-06 0)
(0.0528357 8.08638e-07 0)
(0.0528354 5.89313e-07 0)
(0.0528353 4.07221e-07 0)
(0.0528352 2.6027e-07 0)
(0.0528351 1.45184e-07 0)
(0.0528351 5.80365e-08 0)
(0.0528351 -5.34091e-09 0)
(0.0528351 -4.90639e-08 0)
(0.0528352 -7.69931e-08 0)
(0.0528352 -9.26083e-08 0)
(0.0528352 -9.89423e-08 0)
(0.0528353 -9.85603e-08 0)
(0.0528353 -9.35704e-08 0)
(0.0528353 -8.56567e-08 0)
(0.0528354 -7.61239e-08 0)
(0.0528354 -6.59488e-08 0)
(0.0528354 -5.58334e-08 0)
(0.0528354 -4.62554e-08 0)
(0.0528354 -3.75146e-08 0)
(0.0528354 -2.97743e-08 0)
(0.0528355 -2.30968e-08 0)
(0.0528355 -1.74721e-08 0)
(0.0528355 -1.28418e-08 0)
(0.0528355 -9.11806e-09 0)
(0.0528355 -6.1972e-09 0)
(0.0528355 -3.97035e-09 0)
(0.0528355 -2.33067e-09 0)
(0.0528355 -1.17683e-09 0)
(0.0528355 -4.21638e-10 0)
(0.0528355 2.9446e-11 0)
(0.0528355 2.26887e-10 0)
(-0.000413463 0.00244493 0)
(-0.00175649 0.00374516 0)
(-0.00305021 0.00410339 0)
(-0.00412898 0.00388748 0)
(-0.00490992 0.00365769 0)
(-0.00550394 0.00339986 0)
(-0.0059067 0.00318173 0)
(-0.00617606 0.00298359 0)
(-0.00631852 0.00281114 0)
(-0.00635695 0.00265765 0)
(-0.0062959 0.00252037 0)
(-0.00614291 0.00239423 0)
(-0.00589885 0.00227413 0)
(-0.00556449 0.00215427 0)
(-0.00513797 0.00202846 0)
(-0.00461691 0.00189037 0)
(-0.00399787 0.00173367 0)
(-0.00327718 0.00155237 0)
(-0.00245087 0.00134101 0)
(-0.00151508 0.0010949 0)
(-0.000466092 0.000810302 0)
(0.000699494 0.000484523 0)
(0.00198468 0.000115986 0)
(0.00339201 -0.000295762 0)
(0.00492354 -0.000750099 0)
(0.00658081 -0.0012454 0)
(0.00836479 -0.00177911 0)
(0.0102759 -0.00234791 0)
(0.0123139 -0.00294774 0)
(0.0144779 -0.003574 0)
(0.0167662 -0.00422156 0)
(0.0191765 -0.00488488 0)
(0.0217053 -0.00555805 0)
(0.0243484 -0.00623487 0)
(0.0271004 -0.00690883 0)
(0.0299549 -0.00757319 0)
(0.0329041 -0.00822095 0)
(0.0359389 -0.00884494 0)
(0.0390489 -0.0094378 0)
(0.0422221 -0.00999206 0)
(0.0454454 -0.0105002 0)
(0.0487038 -0.0109546 0)
(0.0519811 -0.0113478 0)
(0.0552598 -0.0116724 0)
(0.0585209 -0.0119215 0)
(0.0617448 -0.0120882 0)
(0.0649105 -0.0121667 0)
(0.0679969 -0.0121518 0)
(0.0709826 -0.0120393 0)
(0.0738469 -0.0118266 0)
(0.0765697 -0.0115125 0)
(0.0791328 -0.0110977 0)
(0.0815202 -0.0105847 0)
(0.0837182 -0.00997791 0)
(0.0857165 -0.00928363 0)
(0.0875077 -0.0085098 0)
(0.0890876 -0.00766573 0)
(0.0904552 -0.00676178 0)
(0.0916116 -0.00580903 0)
(0.0925602 -0.00481886 0)
(0.0933058 -0.00380271 0)
(0.0938537 -0.0027718 0)
(0.0942097 -0.00173704 0)
(0.0943788 -0.000708881 0)
(0.0943653 0.000302559 0)
(0.0941722 0.00128747 0)
(0.0938011 0.00223621 0)
(0.0932518 0.00313913 0)
(0.092523 0.00398651 0)
(0.0916116 0.00476848 0)
(0.0905139 0.00547505 0)
(0.0892255 0.00609625 0)
(0.0877422 0.00662236 0)
(0.0860612 0.00704417 0)
(0.0841818 0.00735345 0)
(0.0821072 0.00754345 0)
(0.0798458 0.00760971 0)
(0.0774135 0.00755094 0)
(0.0748353 0.00736993 0)
(0.0721462 0.00707424 0)
(0.0693915 0.00667656 0)
(0.0666249 0.00619436 0)
(0.0639053 0.00564891 0)
(0.0612923 0.00506333 0)
(0.0588405 0.00446006 0)
(0.0565953 0.00385828 0)
(0.0545893 0.00327196 0)
(0.0528413 0.0027091 0)
(0.0513571 0.00217227 0)
(0.0501322 0.00166011 0)
(0.0491543 0.00116915 0)
(0.0484067 0.000695511 0)
(0.0478706 0.000236028 0)
(0.0475269 -0.00021108 0)
(0.0473572 -0.000646078 0)
(0.0473439 -0.00106785 0)
(0.0474711 -0.0014742 0)
(0.0477236 -0.00186209 0)
(0.0480873 -0.002228 0)
(0.0485486 -0.00256812 0)
(0.0490946 -0.0028785 0)
(0.0497124 -0.00315525 0)
(0.0503895 -0.00339465 0)
(0.0511136 -0.00359326 0)
(0.0518727 -0.003748 0)
(0.0526547 -0.00385632 0)
(0.0534483 -0.00391629 0)
(0.0542426 -0.00392669 0)
(0.0550273 -0.00388716 0)
(0.055793 -0.00379828 0)
(0.0565313 -0.00366166 0)
(0.0572349 -0.00348 0)
(0.0578977 -0.00325715 0)
(0.0585148 -0.00299805 0)
(0.0590823 -0.00270876 0)
(0.0595974 -0.00239629 0)
(0.0600582 -0.00206852 0)
(0.0604632 -0.00173392 0)
(0.0608117 -0.00140133 0)
(0.0611035 -0.00107952 0)
(0.0613388 -0.000776867 0)
(0.0615186 -0.000500816 0)
(0.061645 -0.000257492 0)
(0.0617212 -5.13172e-05 0)
(0.0617514 0.00011524 0)
(0.0617414 0.000241738 0)
(0.061698 0.000329667 0)
(0.0616285 0.000382177 0)
(0.0615407 0.000403694 0)
(0.0614421 0.000399467 0)
(0.0613398 0.00037511 0)
(0.0612395 0.000336202 0)
(0.0611462 0.000287949 0)
(0.0610632 0.00023496 0)
(0.0609927 0.000181099 0)
(0.0609359 0.000129427 0)
(0.0608928 8.22083e-05 0)
(0.0608626 4.09571e-05 0)
(0.0608442 6.52562e-06 0)
(0.0608358 -2.07959e-05 0)
(0.0608357 -4.11682e-05 0)
(0.060842 -5.50929e-05 0)
(0.0608529 -6.33068e-05 0)
(0.0608668 -6.6688e-05 0)
(0.0608822 -6.61741e-05 0)
(0.0608981 -6.26956e-05 0)
(0.0609135 -5.71251e-05 0)
(0.0609277 -5.02412e-05 0)
(0.0609404 -4.27064e-05 0)
(0.0609513 -3.50575e-05 0)
(0.0609602 -2.77055e-05 0)
(0.0609673 -2.09432e-05 0)
(0.0609727 -1.49579e-05 0)
(0.0609766 -9.84784e-06 0)
(0.0609791 -5.63919e-06 0)
(0.0609806 -2.30338e-06 0)
(0.0609812 2.26904e-07 0)
(0.0609811 2.04359e-06 0)
(0.0609806 3.25147e-06 0)
(0.0609798 3.95879e-06 0)
(0.0609788 4.27028e-06 0)
(0.0609778 4.2823e-06 0)
(0.0609767 4.07978e-06 0)
(0.0609758 3.73481e-06 0)
(0.0609749 3.30626e-06 0)
(0.0609741 2.84037e-06 0)
(0.0609734 2.37185e-06 0)
(0.0609729 1.92534e-06 0)
(0.0609724 1.51704e-06 0)
(0.0609721 1.15631e-06 0)
(0.0609718 8.47209e-07 0)
(0.0609717 5.89847e-07 0)
(0.0609715 3.81599e-07 0)
(0.0609715 2.18062e-07 0)
(0.0609714 9.38411e-08 0)
(0.0609714 3.14322e-09 0)
(0.0609714 -5.97846e-08 0)
(0.0609714 -1.0036e-07 0)
(0.0609715 -1.23476e-07 0)
(0.0609715 -1.33407e-07 0)
(0.0609715 -1.33771e-07 0)
(0.0609716 -1.27544e-07 0)
(0.0609716 -1.17105e-07 0)
(0.0609716 -1.04299e-07 0)
(0.0609716 -9.05083e-08 0)
(0.0609717 -7.6728e-08 0)
(0.0609717 -6.36369e-08 0)
(0.0609717 -5.16632e-08 0)
(0.0609717 -4.10428e-08 0)
(0.0609717 -3.18685e-08 0)
(0.0609717 -2.41319e-08 0)
(0.0609717 -1.7756e-08 0)
(0.0609717 -1.26221e-08 0)
(0.0609717 -8.58904e-09 0)
(0.0609717 -5.50809e-09 0)
(0.0609717 -3.23331e-09 0)
(0.0609717 -1.62787e-09 0)
(0.0609717 -5.70092e-10 0)
(0.0609717 5.77142e-11 0)
(0.0609717 3.06798e-10 0)
(-0.000705644 0.00308392 0)
(-0.00213671 0.00469142 0)
(-0.00261377 0.00492396 0)
(-0.00284593 0.00449571 0)
(-0.00265149 0.00404801 0)
(-0.00235175 0.00360612 0)
(-0.00188369 0.00322632 0)
(-0.00133034 0.00289232 0)
(-0.000679876 0.00259961 0)
(4.56966e-05 0.00233871 0)
(0.000848622 0.00210119 0)
(0.00172403 0.00187962 0)
(0.00267394 0.00166626 0)
(0.0036991 0.00145405 0)
(0.00480229 0.00123578 0)
(0.0059861 0.00100463 0)
(0.00725358 0.000753971 0)
(0.00860761 0.000477726 0)
(0.010051 0.00017041 0)
(0.0115863 -0.000172648 0)
(0.0132159 -0.000555195 0)
(0.0149416 -0.000979943 0)
(0.0167653 -0.00144852 0)
(0.0186882 -0.00196146 0)
(0.0207114 -0.0025182 0)
(0.0228356 -0.00311715 0)
(0.025061 -0.00375574 0)
(0.0273873 -0.00443052 0)
(0.0298136 -0.00513723 0)
(0.0323383 -0.00587089 0)
(0.0349591 -0.00662588 0)
(0.0376726 -0.00739602 0)
(0.0404744 -0.00817462 0)
(0.0433593 -0.00895453 0)
(0.0463205 -0.00972816 0)
(0.0493502 -0.0104875 0)
(0.0524389 -0.0112243 0)
(0.055576 -0.0119296 0)
(0.058749 -0.0125946 0)
(0.0619438 -0.0132101 0)
(0.0651448 -0.0137666 0)
(0.0683348 -0.0142548 0)
(0.0714951 -0.0146654 0)
(0.0746056 -0.0149893 0)
(0.0776451 -0.0152177 0)
(0.0805917 -0.0153427 0)
(0.083423 -0.015357 0)
(0.086117 -0.0152549 0)
(0.0886526 -0.0150321 0)
(0.0910107 -0.0146868 0)
(0.0931748 -0.014219 0)
(0.0951319 -0.0136316 0)
(0.0968735 -0.01293 0)
(0.0983955 -0.0121223 0)
(0.0996986 -0.0112186 0)
(0.100788 -0.010231 0)
(0.101674 -0.00917267 0)
(0.102368 -0.00805768 0)
(0.102886 -0.00690007 0)
(0.103244 -0.00571349 0)
(0.103458 -0.00451081 0)
(0.103545 -0.00330385 0)
(0.103517 -0.00210327 0)
(0.103388 -0.000918647 0)
(0.103168 0.000241456 0)
(0.102861 0.00136922 0)
(0.102474 0.00245732 0)
(0.102005 0.00349867 0)
(0.101455 0.00448614 0)
(0.100817 0.00541237 0)
(0.100085 0.00626959 0)
(0.0992512 0.00704956 0)
(0.0983042 0.0077436 0)
(0.0972335 0.00834272 0)
(0.096028 0.00883784 0)
(0.0946777 0.00922023 0)
(0.0931745 0.00948204 0)
(0.0915136 0.00961702 0)
(0.0896948 0.00962118 0)
(0.0877243 0.00949358 0)
(0.0856157 0.00923681 0)
(0.0833912 0.00885742 0)
(0.0810817 0.0083661 0)
(0.0787263 0.0077774 0)
(0.0763705 0.00710916 0)
(0.0740632 0.00638135 0)
(0.0718531 0.00561459 0)
(0.0697848 0.00482849 0)
(0.0678953 0.00404019 0)
(0.0662117 0.00326331 0)
(0.0647504 0.00250759 0)
(0.0635176 0.00177921 0)
(0.0625106 0.00108155 0)
(0.0617204 0.000416176 0)
(0.0611328 -0.000216198 0)
(0.0607312 -0.00081496 0)
(0.0604974 -0.00137912 0)
(0.0604128 -0.00190711 0)
(0.0604591 -0.00239669 0)
(0.0606183 -0.0028451 0)
(0.060873 -0.00324922 0)
(0.0612066 -0.00360568 0)
(0.0616031 -0.00391116 0)
(0.062047 -0.00416251 0)
(0.0625237 -0.00435697 0)
(0.0630193 -0.00449235 0)
(0.0635206 -0.00456719 0)
(0.0640158 -0.00458095 0)
(0.0644939 -0.00453413 0)
(0.0649458 -0.0044284 0)