/*--------------------------------*- C++ -*----------------------------------*\
| =========                 |                                                 |
| \\      /  F ield         | OpenFOAM: The Open Source CFD Toolbox           |
|  \\    /   O peration     | Version:  4.1                                   |
|   \\  /    A nd           | Web:      www.OpenFOAM.org                      |
|    \\/     M anipulation  |                                                 |
\*---------------------------------------------------------------------------*/
FoamFile
{
    version     2.0;
    format      ascii;
    class       volVectorField;
    location    "47";
    object      U;
}
// * * * * * * * * * * * * * * * * * * * * * * * * * * * * * * * * * * * * * //

dimensions      [0 1 -1 0 0 0 0];

internalField   nonuniform List<vector> 
3264
(
(0.000133095 -0.000273834 0)
(-0.000447889 -9.68185e-05 0)
(-0.00181898 0.000147921 0)
(-0.00378149 0.000462299 0)
(-0.00629263 0.000774192 0)
(-0.00905241 0.0010093 0)
(-0.0117899 0.001123 0)
(-0.0142568 0.00111974 0)
(-0.016304 0.00102949 0)
(-0.0178501 0.00088398 0)
(-0.0188684 0.000708186 0)
(-0.0193635 0.000519146 0)
(-0.019359 0.000327978 0)
(-0.0188874 0.000141545 0)
(-0.0179859 -3.60905e-05 0)
(-0.0166927 -0.000202602 0)
(-0.0150459 -0.000356499 0)
(-0.0130842 -0.000496418 0)
(-0.0108472 -0.000620548 0)
(-0.00837841 -0.000726303 0)
(-0.00572698 -0.000810219 0)
(-0.00295075 -0.000868218 0)
(-0.000117737 -0.000896235 0)
(0.00269365 -0.000891237 0)
(0.00539751 -0.000852439 0)
(0.00790683 -0.000782356 0)
(0.0101431 -0.000687164 0)
(0.0120474 -0.000576001 0)
(0.0135886 -0.000459322 0)
(0.0147673 -0.000346891 0)
(0.015612 -0.000246203 0)
(0.0161716 -0.000161762 0)
(0.0165043 -9.51955e-05 0)
(0.0166687 -4.58752e-05 0)
(0.016717 -1.17147e-05 0)
(0.0166918 1.00925e-05 0)
(0.0166248 2.24948e-05 0)
(0.0165384 2.81989e-05 0)
(0.0164474 2.94631e-05 0)
(0.0163603 2.80323e-05 0)
(0.0162819 2.5164e-05 0)
(0.0162139 2.17051e-05 0)
(0.0161567 1.81847e-05 0)
(0.0161096 1.49025e-05 0)
(0.0160714 1.20039e-05 0)
(0.0160407 9.53648e-06 0)
(0.0160164 7.49076e-06 0)
(0.0159973 5.82784e-06 0)
(0.0159823 4.49641e-06 0)
(0.0159707 3.44307e-06 0)
(0.0159617 2.61778e-06 0)
(0.0159548 1.97635e-06 0)
(0.0159496 1.48131e-06 0)
(0.0159455 1.10163e-06 0)
(0.0159425 8.1217e-07 0)
(0.0159402 5.92776e-07 0)
(0.0159385 4.27494e-07 0)
(0.0159372 3.03787e-07 0)
(0.0159363 2.11865e-07 0)
(0.0159356 1.44126e-07 0)
(0.0159351 9.46903e-08 0)
(0.0159347 5.90347e-08 0)
(0.0159345 3.36895e-08 0)
(0.0159343 1.60057e-08 0)
(0.0159342 3.96886e-09 0)
(0.0159341 -3.94528e-09 0)
(0.0159341 -8.88445e-09 0)
(0.0159341 -1.17077e-08 0)
(0.0159341 -1.30536e-08 0)
(0.0159341 -1.33931e-08 0)
(0.0159341 -1.30703e-08 0)
(0.0159341 -1.23336e-08 0)
(0.0159341 -1.13599e-08 0)
(0.0159341 -1.02726e-08 0)
(0.0159341 -9.15596e-09 0)
(0.0159341 -8.06557e-09 0)
(0.0159342 -7.0361e-09 0)
(0.0159342 -6.08752e-09 0)
(0.0159342 -5.22943e-09 0)
(0.0159342 -4.46436e-09 0)
(0.0159342 -3.7902e-09 0)
(0.0159342 -3.20193e-09 0)
(0.0159342 -2.69283e-09 0)
(0.0159342 -2.25538e-09 0)
(0.0159342 -1.88183e-09 0)
(0.0159342 -1.56462e-09 0)
(0.0159342 -1.29658e-09 0)
(0.0159342 -1.0711e-09 0)
(0.0159342 -8.82211e-10 0)
(0.0159342 -7.24561e-10 0)
(0.0159342 -5.93444e-10 0)
(0.0159342 -4.84754e-10 0)
(0.0159342 -3.94938e-10 0)
(0.0159342 -3.20942e-10 0)
(0.0159342 -2.60156e-10 0)
(0.0159342 -2.10356e-10 0)
(0.0159342 -1.69663e-10 0)
(0.0159342 -1.36494e-10 0)
(0.0159342 -1.09524e-10 0)
(0.0159342 -8.76506e-11 0)
(0.0159342 -6.99582e-11 0)
(0.0159342 -5.5683e-11 0)
(0.0159342 -4.41969e-11 0)
(0.0159342 -3.49795e-11 0)
(0.0159342 -2.76002e-11 0)
(0.0159342 -2.17061e-11 0)
(0.0159342 -1.70062e-11 0)
(0.0159342 -1.32683e-11 0)
(0.0159342 -1.03071e-11 0)
(0.0159342 -7.97193e-12 0)
(0.0159342 -6.14066e-12 0)
(0.0159342 -4.70799e-12 0)
(0.0159342 -3.58683e-12 0)
(0.0159342 -2.71282e-12 0)
(0.0159342 -2.02888e-12 0)
(0.0159342 -1.49865e-12 0)
(0.0159342 -1.08874e-12 0)
(0.0159342 -7.75434e-13 0)
(0.0159342 -5.41713e-13 0)
(0.0159342 -3.69884e-13 0)
(0.0159342 -2.47453e-13 0)
(0.0159342 -1.59677e-13 0)
(0.0159342 -9.72552e-14 0)
(0.0159342 -5.21507e-14 0)
(0.0159342 -1.75912e-14 0)
(0.0159342 7.39753e-15 0)
(0.0159342 2.49217e-14 0)
(0.0159342 3.50082e-14 0)
(0.0159342 3.84017e-14 0)
(0.0159342 3.78437e-14 0)
(0.0159342 3.55393e-14 0)
(0.0159342 3.41769e-14 0)
(0.0159342 3.34155e-14 0)
(0.0159342 3.20611e-14 0)
(0.0159342 3.06405e-14 0)
(0.0159342 2.83817e-14 0)
(0.0159342 2.80705e-14 0)
(0.0159342 2.69328e-14 0)
(0.0159342 2.35774e-14 0)
(0.0159342 1.87932e-14 0)
(0.0159342 1.16102e-14 0)
(0.0159342 5.25065e-15 0)
(0.0159342 -1.10672e-16 0)
(0.0159342 -3.62196e-15 0)
(0.0159342 -3.49396e-15 0)
(0.0159342 -1.74564e-15 0)
(0.0159342 2.7275e-15 0)
(0.0159342 6.90512e-15 0)
(0.0159342 1.02692e-14 0)
(0.0159342 1.26713e-14 0)
(0.0159342 1.30156e-14 0)
(0.0159342 1.26228e-14 0)
(0.0159342 1.01044e-14 0)
(0.0159342 5.88496e-15 0)
(0.0159342 5.44915e-17 0)
(0.0159342 -6.97139e-15 0)
(0.0159342 -1.21029e-14 0)
(0.0159342 -1.39649e-14 0)
(0.0159342 -1.36666e-14 0)
(0.0159342 -1.13448e-14 0)
(0.0159342 -8.56842e-15 0)
(0.0159342 -4.75117e-15 0)
(0.0159342 -9.71341e-16 0)
(0.0159342 1.83841e-15 0)
(0.0159342 2.27336e-15 0)
(0.0159342 1.63688e-15 0)
(0.0159342 4.4579e-16 0)
(0.0159342 3.2732e-16 0)
(0.0159342 3.60197e-16 0)
(0.0159342 1.52581e-15 0)
(0.0159342 2.7224e-15 0)
(0.0159342 4.76455e-15 0)
(0.0159342 8.44518e-15 0)
(0.0159342 1.16209e-14 0)
(0.0159342 1.36471e-14 0)
(0.0159342 1.39077e-14 0)
(0.0159342 1.28601e-14 0)
(0.0159342 1.12617e-14 0)
(0.0159342 9.43345e-15 0)
(0.0159342 9.19004e-15 0)
(0.0159342 9.54312e-15 0)
(0.0159342 1.25915e-14 0)
(0.0159342 2.02949e-14 0)
(0.0159342 3.02203e-14 0)
(0.0159342 4.19015e-14 0)
(0.0159342 5.61078e-14 0)
(0.0159342 7.4238e-14 0)
(0.0159342 9.71846e-14 0)
(0.0159342 1.2598e-13 0)
(0.0159342 1.64369e-13 0)
(0.0159342 2.15287e-13 0)
(0.0159342 2.77118e-13 0)
(0.0159342 3.58557e-13 0)
(0.0159342 3.90781e-13 0)
(0.0159342 4.99965e-13 0)
(0.0159342 1.92106e-13 0)
(0.0159342 -1.24014e-13 0)
(0.0159342 -7.89191e-13 0)
(0.0159342 -8.89302e-12 0)
(0.0159342 -5.64019e-12 0)
(-0.000480427 0.000667322 0)
(-0.00345284 0.00219595 0)
(-0.00746473 0.00328739 0)
(-0.0116378 0.00410057 0)
(-0.0156482 0.00449603 0)
(-0.0191173 0.00442399 0)
(-0.0218876 0.00397813 0)
(-0.0238967 0.00329021 0)
(-0.0251557 0.00247155 0)
(-0.0257006 0.00159868 0)
(-0.0255785 0.000720848 0)
(-0.0248388 -0.000132179 0)
(-0.0235298 -0.000943077 0)
(-0.0216971 -0.00170244 0)
(-0.0193837 -0.00240555 0)
(-0.0166297 -0.00305008 0)
(-0.0134737 -0.00363403 0)
(-0.00995366 -0.00415408 0)
(-0.00610933 -0.00460402 0)
(-0.0019848 -0.00497374 0)
(0.00236793 -0.0052486 0)
(0.00688479 -0.00541002 0)
(0.0114857 -0.00543748 0)
(0.0160715 -0.00531261 0)
(0.020525 -0.00502528 0)
(0.0247168 -0.0045804 0)
(0.0285182 -0.00400281 0)
(0.0318194 -0.00333697 0)
(0.0345476 -0.00264001 0)
(0.0366789 -0.00197001 0)
(0.0382404 -0.00137417 0)
(0.0393007 -0.000881391 0)
(0.0399533 -0.000501123 0)
(0.040299 -0.000227152 0)
(0.0404311 -4.36861e-05 0)
(0.040427 6.88534e-05 0)
(0.0403451 0.000129652 0)
(0.0402258 0.000155178 0)
(0.0400953 0.000158341 0)
(0.0399688 0.000148556 0)
(0.0398541 0.000132279 0)
(0.0397544 0.000113663 0)
(0.0396704 9.51929e-05 0)
(0.0396008 7.82111e-05 0)
(0.0395442 6.33228e-05 0)
(0.0394985 5.06835e-05 0)
(0.039462 4.01973e-05 0)
(0.039433 3.16432e-05 0)
(0.0394101 2.4754e-05 0)
(0.039392 1.92601e-05 0)
(0.0393779 1.49127e-05 0)
(0.0393669 1.14942e-05 0)
(0.0393583 8.82006e-06 0)
(0.0393516 6.73764e-06 0)
(0.0393464 5.12261e-06 0)
(0.0393424 3.87487e-06 0)
(0.0393393 2.91452e-06 0)
(0.039337 2.17824e-06 0)
(0.0393352 1.61603e-06 0)
(0.0393338 1.18863e-06 0)
(0.0393328 8.65313e-07 0)
(0.039332 6.22062e-07 0)
(0.0393315 4.40197e-07 0)
(0.039331 3.05212e-07 0)
(0.0393307 2.05876e-07 0)
(0.0393305 1.33518e-07 0)
(0.0393303 8.14668e-08 0)
(0.0393302 4.46055e-08 0)
(0.0393301 1.90246e-08 0)
(0.0393301 1.74944e-09 0)
(0.0393301 -9.47195e-09 0)
(0.03933 -1.63356e-08 0)
(0.03933 -2.0111e-08 0)
(0.03933 -2.17411e-08 0)
(0.03933 -2.19208e-08 0)
(0.03933 -2.11569e-08 0)
(0.03933 -1.98143e-08 0)
(0.03933 -1.81519e-08 0)
(0.03933 -1.63497e-08 0)
(0.03933 -1.45295e-08 0)
(0.0393301 -1.27707e-08 0)
(0.0393301 -1.11221e-08 0)
(0.0393301 -9.61076e-09 0)
(0.0393301 -8.24876e-09 0)
(0.0393301 -7.03784e-09 0)
(0.0393301 -5.97307e-09 0)
(0.0393301 -5.04543e-09 0)
(0.0393301 -4.24356e-09 0)
(0.0393301 -3.55512e-09 0)
(0.0393301 -2.96757e-09 0)
(0.0393301 -2.46877e-09 0)
(0.0393301 -2.04731e-09 0)
(0.0393301 -1.69274e-09 0)
(0.0393301 -1.39561e-09 0)
(0.0393301 -1.14754e-09 0)
(0.0393301 -9.41108e-10 0)
(0.0393301 -7.69867e-10 0)
(0.0393301 -6.28236e-10 0)
(0.0393301 -5.11425e-10 0)
(0.0393301 -4.15345e-10 0)
(0.0393301 -3.36525e-10 0)
(0.0393301 -2.72032e-10 0)
(0.0393301 -2.19396e-10 0)
(0.0393301 -1.7654e-10 0)
(0.0393301 -1.41727e-10 0)
(0.0393301 -1.13506e-10 0)
(0.0393301 -9.06735e-11 0)
(0.0393301 -7.22406e-11 0)
(0.0393301 -5.73935e-11 0)
(0.0393301 -4.54688e-11 0)
(0.0393301 -3.59181e-11 0)
(0.0393301 -2.82897e-11 0)
(0.0393301 -2.2207e-11 0)
(0.0393301 -1.73655e-11 0)
(0.0393301 -1.35229e-11 0)
(0.0393301 -1.04826e-11 0)
(0.0393301 -8.08765e-12 0)
(0.0393301 -6.20797e-12 0)
(0.0393301 -4.73904e-12 0)
(0.0393301 -3.60087e-12 0)
(0.0393301 -2.72232e-12 0)
(0.0393301 -2.04643e-12 0)
(0.0393301 -1.52588e-12 0)
(0.0393301 -1.12384e-12 0)
(0.0393301 -8.14473e-13 0)
(0.0393301 -5.81187e-13 0)
(0.0393301 -4.08416e-13 0)
(0.0393301 -2.84787e-13 0)
(0.0393301 -1.97687e-13 0)
(0.0393301 -1.37196e-13 0)
(0.0393301 -9.27072e-14 0)
(0.0393301 -5.75848e-14 0)
(0.0393301 -2.79255e-14 0)
(0.0393301 -1.94e-15 0)
(0.0393301 1.85294e-14 0)
(0.0393301 3.43634e-14 0)
(0.0393301 4.63165e-14 0)
(0.0393301 5.52478e-14 0)
(0.0393301 6.02181e-14 0)
(0.0393301 6.10191e-14 0)
(0.0393301 5.57066e-14 0)
(0.0393301 4.73474e-14 0)
(0.0393301 3.83432e-14 0)
(0.0393301 2.82442e-14 0)
(0.0393301 1.77641e-14 0)
(0.0393301 7.27827e-15 0)
(0.0393301 -3.04212e-15 0)
(0.0393301 -1.27474e-14 0)
(0.0393301 -2.17379e-14 0)
(0.0393301 -2.91371e-14 0)
(0.0393301 -3.20514e-14 0)
(0.0393301 -3.20211e-14 0)
(0.0393301 -2.94511e-14 0)
(0.0393301 -2.68419e-14 0)
(0.0393301 -2.36732e-14 0)
(0.0393301 -2.23589e-14 0)
(0.0393301 -2.15586e-14 0)
(0.0393301 -2.05182e-14 0)
(0.0393301 -1.90265e-14 0)
(0.0393301 -1.56469e-14 0)
(0.0393301 -1.28703e-14 0)
(0.0393301 -9.19463e-15 0)
(0.0393301 -5.17887e-15 0)
(0.0393301 -1.13024e-15 0)
(0.0393301 2.19573e-15 0)
(0.0393301 2.71289e-15 0)
(0.0393301 1.85735e-15 0)
(0.0393301 1.67099e-16 0)
(0.0393301 -9.5007e-16 0)
(0.0393301 1.00374e-15 0)
(0.0393301 6.45328e-15 0)
(0.0393301 1.62301e-14 0)
(0.0393301 3.06517e-14 0)
(0.0393301 4.63621e-14 0)
(0.0393301 6.01253e-14 0)
(0.0393301 6.97148e-14 0)
(0.0393301 7.34082e-14 0)
(0.0393301 7.28965e-14 0)
(0.0393301 7.00767e-14 0)
(0.0393301 6.92341e-14 0)
(0.0393301 7.66362e-14 0)
(0.0393301 9.43596e-14 0)
(0.0393301 1.22579e-13 0)
(0.0393301 1.62951e-13 0)
(0.0393301 2.12736e-13 0)
(0.0393301 2.74131e-13 0)
(0.0393301 3.48613e-13 0)
(0.0393301 4.4028e-13 0)
(0.0393301 5.61225e-13 0)
(0.0393301 7.21627e-13 0)
(0.0393301 9.37472e-13 0)
(0.0393301 1.22359e-12 0)
(0.0393301 1.59838e-12 0)
(0.0393301 2.00788e-12 0)
(0.0393301 2.66602e-12 0)
(0.0393301 2.806e-12 0)
(0.0393301 3.54046e-12 0)
(0.0393301 3.50837e-12 0)
(0.0393301 -4.94913e-12 0)
(0.0393301 -2.49064e-12 0)
(-0.00069258 0.00322881 0)
(-0.00450945 0.00642613 0)
(-0.00898611 0.00771088 0)
(-0.0128847 0.00806488 0)
(-0.0160319 0.00775226 0)
(-0.0183264 0.00688834 0)
(-0.0198592 0.00568662 0)
(-0.0207148 0.00430138 0)
(-0.0209776 0.00284024 0)
(-0.020709 0.00136788 0)
(-0.0199567 -7.60079e-05 0)
(-0.0187561 -0.00146811 0)
(-0.0171352 -0.00279509 0)
(-0.0151168 -0.00404977 0)
(-0.0127204 -0.00522849 0)
(-0.00996365 -0.00632898 0)
(-0.00686337 -0.00734831 0)
(-0.00343667 -0.00828068 0)
(0.000298145 -0.00911518 0)
(0.00431962 -0.00983354 0)
(0.00860061 -0.0104083 0)
(0.0131042 -0.0108024 0)
(0.0177781 -0.0109706 0)
(0.0225487 -0.0108661 0)
(0.027316 -0.0104516 0)
(0.0319545 -0.0097141 0)
(0.0363213 -0.00867915 0)
(0.0402746 -0.00741625 0)
(0.0436967 -0.00603042 0)
(0.0465145 -0.00464137 0)
(0.0487104 -0.00335806 0)
(0.0503207 -0.00225873 0)
(0.0514223 -0.00138219 0)
(0.0521146 -0.000730677 0)
(0.0525009 -0.0002801 0)
(0.0526749 7.41006e-06 0)
(0.0527127 0.000172867 0)
(0.0526711 0.000253435 0)
(0.0525893 0.000279123 0)
(0.0524921 0.000272162 0)
(0.0523943 0.000247884 0)
(0.0523036 0.00021619 0)
(0.0522237 0.000183043 0)
(0.0521553 0.000151731 0)
(0.0520981 0.000123829 0)
(0.0520509 9.98763e-05 0)
(0.0520124 7.98304e-05 0)
(0.0519812 6.33541e-05 0)
(0.0519562 4.9989e-05 0)
(0.0519361 3.92538e-05 0)
(0.0519201 3.06956e-05 0)
(0.0519074 2.39129e-05 0)
(0.0518974 1.85628e-05 0)
(0.0518894 1.43595e-05 0)
(0.0518832 1.10687e-05 0)
(0.0518783 8.50041e-06 0)
(0.0518744 6.50216e-06 0)
(0.0518714 4.9521e-06 0)
(0.0518691 3.75345e-06 0)
(0.0518672 2.82958e-06 0)
(0.0518658 2.12001e-06 0)
(0.0518647 1.57713e-06 0)
(0.0518639 1.16355e-06 0)
(0.0518633 8.49963e-07 0)
(0.0518628 6.13473e-07 0)
(0.0518624 4.36214e-07 0)
(0.0518621 3.0429e-07 0)
(0.0518619 2.06916e-07 0)
(0.0518618 1.35749e-07 0)
(0.0518617 8.43536e-08 0)
(0.0518616 4.77839e-08 0)
(0.0518615 2.2253e-08 0)
(0.0518615 4.87346e-09 0)
(0.0518615 -6.54559e-09 0)
(0.0518614 -1.36577e-08 0)
(0.0518614 -1.77033e-08 0)
(0.0518614 -1.96063e-08 0)
(0.0518614 -2.00492e-08 0)
(0.0518614 -1.95313e-08 0)
(0.0518614 -1.84136e-08 0)
(0.0518614 -1.69533e-08 0)
(0.0518614 -1.53303e-08 0)
(0.0518614 -1.36671e-08 0)
(0.0518614 -1.20448e-08 0)
(0.0518614 -1.05137e-08 0)
(0.0518614 -9.10307e-09 0)
(0.0518614 -7.82668e-09 0)
(0.0518614 -6.68818e-09 0)
(0.0518614 -5.6844e-09 0)
(0.0518614 -4.80786e-09 0)
(0.0518614 -4.04867e-09 0)
(0.0518614 -3.39572e-09 0)
(0.0518614 -2.83759e-09 0)
(0.0518614 -2.36311e-09 0)
(0.0518614 -1.9617e-09 0)
(0.0518614 -1.62358e-09 0)
(0.0518614 -1.3399e-09 0)
(0.0518614 -1.10277e-09 0)
(0.0518614 -9.05233e-10 0)
(0.0518614 -7.412e-10 0)
(0.0518614 -6.05405e-10 0)
(0.0518614 -4.93318e-10 0)
(0.0518614 -4.01054e-10 0)
(0.0518614 -3.25305e-10 0)
(0.0518614 -2.63271e-10 0)
(0.0518614 -2.12582e-10 0)
(0.0518614 -1.71258e-10 0)
(0.0518614 -1.37641e-10 0)
(0.0518614 -1.10353e-10 0)
(0.0518614 -8.82511e-11 0)
(0.0518614 -7.03869e-11 0)
(0.0518614 -5.59831e-11 0)
(0.0518614 -4.4399e-11 0)
(0.0518614 -3.51063e-11 0)
(0.0518614 -2.76734e-11 0)
(0.0518614 -2.17445e-11 0)
(0.0518614 -1.70299e-11 0)
(0.0518614 -1.3294e-11 0)
(0.0518614 -1.03415e-11 0)
(0.0518614 -8.01526e-12 0)
(0.0518614 -6.18765e-12 0)
(0.0518614 -4.75465e-12 0)
(0.0518614 -3.63074e-12 0)
(0.0518614 -2.75249e-12 0)
(0.0518614 -2.07075e-12 0)
(0.0518614 -1.54764e-12 0)
(0.0518614 -1.15582e-12 0)
(0.0518614 -8.68537e-13 0)
(0.0518614 -6.60598e-13 0)
(0.0518614 -5.08093e-13 0)
(0.0518614 -3.90414e-13 0)
(0.0518614 -2.96709e-13 0)
(0.0518614 -2.18693e-13 0)
(0.0518614 -1.54526e-13 0)
(0.0518614 -1.01109e-13 0)
(0.0518614 -5.47922e-14 0)
(0.0518614 -1.71586e-14 0)
(0.0518614 1.38452e-14 0)
(0.0518614 3.76869e-14 0)
(0.0518614 5.58487e-14 0)
(0.0518614 7.12046e-14 0)
(0.0518614 8.15062e-14 0)
(0.0518614 8.55877e-14 0)
(0.0518614 8.22929e-14 0)
(0.0518614 7.12281e-14 0)
(0.0518614 5.21627e-14 0)
(0.0518614 2.47163e-14 0)
(0.0518614 -7.68889e-15 0)
(0.0518614 -4.15829e-14 0)
(0.0518614 -7.32308e-14 0)
(0.0518614 -9.94737e-14 0)
(0.0518614 -1.18721e-13 0)
(0.0518614 -1.29076e-13 0)
(0.0518614 -1.30109e-13 0)
(0.0518614 -1.21146e-13 0)
(0.0518614 -1.02659e-13 0)
(0.0518614 -7.85829e-14 0)
(0.0518614 -5.17434e-14 0)
(0.0518614 -2.65113e-14 0)
(0.0518614 -5.08517e-15 0)
(0.0518614 1.16618e-14 0)
(0.0518614 1.95176e-14 0)
(0.0518614 2.12063e-14 0)
(0.0518614 1.71819e-14 0)
(0.0518614 1.0046e-14 0)
(0.0518614 1.01654e-15 0)
(0.0518614 -9.53138e-15 0)
(0.0518614 -1.90383e-14 0)
(0.0518614 -2.30707e-14 0)
(0.0518614 -1.86495e-14 0)
(0.0518614 -3.21582e-15 0)
(0.0518614 2.07145e-14 0)
(0.0518614 5.0157e-14 0)
(0.0518614 8.07263e-14 0)
(0.0518614 1.07132e-13 0)
(0.0518614 1.261e-13 0)
(0.0518614 1.343e-13 0)
(0.0518614 1.33996e-13 0)
(0.0518614 1.31008e-13 0)
(0.0518614 1.31331e-13 0)
(0.0518614 1.43585e-13 0)
(0.0518614 1.70786e-13 0)
(0.0518614 2.17265e-13 0)
(0.0518614 2.81091e-13 0)
(0.0518614 3.61845e-13 0)
(0.0518614 4.61455e-13 0)
(0.0518614 5.79975e-13 0)
(0.0518614 7.26108e-13 0)
(0.0518614 9.12729e-13 0)
(0.0518614 1.15971e-12 0)
(0.0518614 1.49143e-12 0)
(0.0518614 1.94144e-12 0)
(0.0518614 2.53159e-12 0)
(0.0518614 3.32734e-12 0)
(0.0518614 4.37888e-12 0)
(0.0518614 5.49038e-12 0)
(0.0518614 7.8381e-12 0)
(0.0518614 8.23119e-12 0)
(0.0518614 1.2568e-11 0)
(0.0518614 1.5749e-11 0)
(-0.000484811 0.00534444 0)
(-0.00355911 0.00995539 0)
(-0.00690351 0.0110821 0)
(-0.00939742 0.0107664 0)
(-0.0110483 0.00976249 0)
(-0.0119579 0.00828524 0)
(-0.0122908 0.00656425 0)
(-0.0121523 0.00472433 0)
(-0.0116188 0.00284978 0)
(-0.0107352 0.000987771 0)
(-0.00953093 -0.000832193 0)
(-0.00802494 -0.00259287 0)
(-0.00623084 -0.00428395 0)
(-0.00416018 -0.00589949 0)
(-0.00182362 -0.00743609 0)
(0.000767484 -0.00889119 0)
(0.00360116 -0.0102615 0)
(0.00666432 -0.0115406 0)
(0.00994312 -0.012717 0)
(0.0134229 -0.0137702 0)
(0.0170878 -0.0146677 0)
(0.0209188 -0.0153613 0)
(0.0248902 -0.0157861 0)
(0.0289629 -0.0158644 0)
(0.0330767 -0.0155188 0)
(0.0371453 -0.0146966 0)
(0.0410566 -0.0133977 0)
(0.0446853 -0.0116951 0)
(0.0479133 -0.00973073 0)
(0.0506531 -0.00768579 0)
(0.0528638 -0.005737 0)
(0.0545543 -0.00402031 0)
(0.0557748 -0.00261304 0)
(0.0566016 -0.00153521 0)
(0.0571205 -0.000763237 0)
(0.0574143 -0.00024797 0)
(0.0575535 6.88849e-05 0)
(0.0575938 0.000243111 0)
(0.0575755 0.000321618 0)
(0.0575262 0.000340346 0)
(0.0574635 0.000324851 0)
(0.0573982 0.000292152 0)
(0.057336 0.000252888 0)
(0.0572798 0.000213246 0)
(0.0572309 0.000176498 0)
(0.0571891 0.0001441 0)
(0.057154 0.000116448 0)
(0.0571249 9.33622e-05 0)
(0.057101 7.43892e-05 0)
(0.0570814 5.89732e-05 0)
(0.0570656 4.65537e-05 0)
(0.0570528 3.66135e-05 0)
(0.0570424 2.86986e-05 0)
(0.0570341 2.24229e-05 0)
(0.0570275 1.74646e-05 0)
(0.0570222 1.35595e-05 0)
(0.057018 1.0493e-05 0)
(0.0570147 8.09179e-06 0)
(0.0570121 6.21672e-06 0)
(0.05701 4.7567e-06 0)
(0.0570084 3.62325e-06 0)
(0.0570071 2.7461e-06 0)
(0.0570061 2.0696e-06 0)
(0.0570053 1.54977e-06 0)
(0.0570047 1.15193e-06 0)
(0.0570042 8.48822e-07 0)
(0.0570039 6.19029e-07 0)
(0.0570036 4.45796e-07 0)
(0.0570034 3.16035e-07 0)
(0.0570032 2.19552e-07 0)
(0.0570031 1.4843e-07 0)
(0.057003 9.654e-08 0)
(0.0570029 5.91517e-08 0)
(0.0570029 3.26293e-08 0)
(0.0570028 1.41889e-08 0)
(0.0570028 1.70812e-09 0)
(0.0570028 -6.42263e-09 0)
(0.0570028 -1.14175e-08 0)
(0.0570028 -1.41865e-08 0)
(0.0570028 -1.54066e-08 0)
(0.0570028 -1.55772e-08 0)
(0.0570028 -1.50631e-08 0)
(0.0570028 -1.41271e-08 0)
(0.0570028 -1.29562e-08 0)
(0.0570028 -1.16803e-08 0)
(0.0570028 -1.03878e-08 0)
(0.0570028 -9.13632e-09 0)
(0.0570028 -7.96148e-09 0)
(0.0570028 -6.88324e-09 0)
(0.0570028 -5.91059e-09 0)
(0.0570028 -5.04516e-09 0)
(0.0570028 -4.28367e-09 0)
(0.0570028 -3.61986e-09 0)
(0.0570028 -3.04576e-09 0)
(0.0570028 -2.55264e-09 0)
(0.0570028 -2.13159e-09 0)
(0.0570028 -1.77397e-09 0)
(0.0570028 -1.47168e-09 0)
(0.0570028 -1.21726e-09 0)
(0.0570028 -1.00397e-09 0)
(0.0570028 -8.25819e-10 0)
(0.0570028 -6.77528e-10 0)
(0.0570028 -5.54484e-10 0)
(0.0570028 -4.52695e-10 0)
(0.0570028 -3.68724e-10 0)
(0.0570028 -2.99636e-10 0)
(0.0570028 -2.42934e-10 0)
(0.0570028 -1.96506e-10 0)
(0.0570028 -1.58576e-10 0)
(0.0570028 -1.27659e-10 0)
(0.0570028 -1.02512e-10 0)
(0.0570028 -8.21062e-11 0)
(0.0570028 -6.55897e-11 0)
(0.0570028 -5.22564e-11 0)
(0.0570028 -4.15234e-11 0)
(0.0570028 -3.29034e-11 0)
(0.0570028 -2.59986e-11 0)
(0.0570028 -2.04803e-11 0)
(0.0570028 -1.60809e-11 0)
(0.0570028 -1.25828e-11 0)
(0.0570028 -9.81135e-12 0)
(0.0570028 -7.61862e-12 0)
(0.0570028 -5.88828e-12 0)
(0.0570028 -4.52654e-12 0)
(0.0570028 -3.46264e-12 0)
(0.0570028 -2.64167e-12 0)
(0.0570028 -2.01674e-12 0)
(0.0570028 -1.54759e-12 0)
(0.0570028 -1.1958e-12 0)
(0.0570028 -9.31069e-13 0)
(0.0570028 -7.29236e-13 0)
(0.0570028 -5.703e-13 0)
(0.0570028 -4.42773e-13 0)
(0.0570028 -3.38342e-13 0)
(0.0570028 -2.52524e-13 0)
(0.0570028 -1.83e-13 0)
(0.0570028 -1.2491e-13 0)
(0.0570028 -7.53193e-14 0)
(0.0570028 -2.93208e-14 0)
(0.0570028 1.21685e-14 0)
(0.0570028 4.83777e-14 0)
(0.0570028 7.76705e-14 0)
(0.0570028 9.70345e-14 0)
(0.0570028 1.05579e-13 0)
(0.0570028 9.9664e-14 0)
(0.0570028 7.99986e-14 0)
(0.0570028 4.99778e-14 0)
(0.0570028 1.20792e-14 0)
(0.0570028 -2.93701e-14 0)
(0.0570028 -7.29707e-14 0)
(0.0570028 -1.15986e-13 0)
(0.0570028 -1.54124e-13 0)
(0.0570028 -1.83049e-13 0)
(0.0570028 -1.99329e-13 0)
(0.0570028 -1.98954e-13 0)
(0.0570028 -1.80684e-13 0)
(0.0570028 -1.47446e-13 0)
(0.0570028 -1.05825e-13 0)
(0.0570028 -6.02354e-14 0)
(0.0570028 -1.89675e-14 0)
(0.0570028 1.37695e-14 0)
(0.0570028 3.30096e-14 0)
(0.0570028 3.79676e-14 0)
(0.0570028 3.15906e-14 0)
(0.0570028 1.62477e-14 0)
(0.0570028 -2.7728e-15 0)
(0.0570028 -2.28944e-14 0)
(0.0570028 -3.71459e-14 0)
(0.0570028 -4.15254e-14 0)
(0.0570028 -3.21298e-14 0)
(0.0570028 -7.26908e-15 0)
(0.0570028 2.83456e-14 0)
(0.0570028 6.89966e-14 0)
(0.0570028 1.09884e-13 0)
(0.0570028 1.42433e-13 0)
(0.0570028 1.63073e-13 0)
(0.0570028 1.70302e-13 0)
(0.0570028 1.68268e-13 0)
(0.0570028 1.64309e-13 0)
(0.0570028 1.66675e-13 0)
(0.0570028 1.82821e-13 0)
(0.0570028 2.17758e-13 0)
(0.0570028 2.7396e-13 0)
(0.0570028 3.53167e-13 0)
(0.0570028 4.5407e-13 0)
(0.0570028 5.75938e-13 0)
(0.0570028 7.2097e-13 0)
(0.0570028 8.97983e-13 0)
(0.0570028 1.12277e-12 0)
(0.0570028 1.4171e-12 0)
(0.0570028 1.81038e-12 0)
(0.0570028 2.33931e-12 0)
(0.0570028 3.06007e-12 0)
(0.0570028 4.04017e-12 0)
(0.0570028 5.35504e-12 0)
(0.0570028 7.22796e-12 0)
(0.0570028 9.95625e-12 0)
(0.0570028 1.23022e-11 0)
(0.0570028 2.40623e-11 0)
(0.0570028 2.64944e-11 0)
(-1.53666e-05 0.00689986 0)
(-0.00128365 0.0123227 0)
(-0.00279764 0.0132059 0)
(-0.00355967 0.0121562 0)
(-0.00365618 0.0105487 0)
(-0.00322682 0.00859503 0)
(-0.00241852 0.00650952 0)
(-0.00130964 0.00436476 0)
(5.21028e-05 0.00221828 0)
(0.00164504 9.89571e-05 0)
(0.00345726 -0.00197262 0)
(0.00548143 -0.00398261 0)
(0.00770989 -0.00592071 0)
(0.0101324 -0.0077791 0)
(0.0127356 -0.00955169 0)
(0.0155021 -0.0112331 0)
(0.0184113 -0.0128177 0)
(0.0214386 -0.0142979 0)
(0.0245567 -0.0156623 0)
(0.0277359 -0.0168926 0)
(0.0309451 -0.0179596 0)
(0.0341524 -0.0188184 0)
(0.0373244 -0.019403 0)
(0.0404254 -0.0196255 0)
(0.0434149 -0.0193838 0)
(0.0462467 -0.0185853 0)
(0.0488702 -0.0171842 0)
(0.0512338 -0.0152232 0)
(0.0532925 -0.0128497 0)
(0.0550147 -0.0102905 0)
(0.0563896 -0.00779083 0)
(0.0574298 -0.00555134 0)
(0.0581704 -0.00369276 0)
(0.058662 -0.00225376 0)
(0.058961 -0.00121039 0)
(0.0591209 -0.000502146 0)
(0.0591871 -5.50553e-05 0)
(0.0591942 0.000202397 0)
(0.0591672 0.000330752 0)
(0.0591226 0.000376733 0)
(0.0590712 0.000373889 0)
(0.0590192 0.00034487 0)
(0.0589701 0.000304112 0)
(0.0589256 0.000260264 0)
(0.0588865 0.000218125 0)
(0.0588527 0.000180062 0)
(0.058824 0.000146976 0)
(0.0587999 0.000118943 0)
(0.0587798 9.56128e-05 0)
(0.0587631 7.64442e-05 0)
(0.0587494 6.08448e-05 0)
(0.0587382 4.82421e-05 0)
(0.0587291 3.81184e-05 0)
(0.0587217 3.00235e-05 0)
(0.0587157 2.35759e-05 0)
(0.0587109 1.84576e-05 0)
(0.058707 1.4407e-05 0)
(0.0587039 1.12104e-05 0)
(0.0587015 8.69471e-06 0)
(0.0586995 6.72032e-06 0)
(0.0586979 5.17506e-06 0)
(0.0586967 3.96912e-06 0)
(0.0586957 3.03081e-06 0)
(0.0586949 2.30306e-06 0)
(0.0586943 1.74053e-06 0)
(0.0586939 1.3073e-06 0)
(0.0586935 9.74993e-07 0)
(0.0586932 7.21204e-07 0)
(0.058693 5.28323e-07 0)
(0.0586928 3.82527e-07 0)
(0.0586927 2.72997e-07 0)
(0.0586926 1.91288e-07 0)
(0.0586925 1.30831e-07 0)
(0.0586925 8.65265e-08 0)
(0.0586924 5.44347e-08 0)
(0.0586924 3.15195e-08 0)
(0.0586924 1.54515e-08 0)
(0.0586923 4.45132e-09 0)
(0.0586923 -2.83379e-09 0)
(0.0586923 -7.42678e-09 0)
(0.0586923 -1.00964e-08 0)
(0.0586923 -1.14164e-08 0)
(0.0586923 -1.18116e-08 0)
(0.0586923 -1.15934e-08 0)
(0.0586923 -1.09877e-08 0)
(0.0586923 -1.01559e-08 0)
(0.0586923 -9.21141e-09 0)
(0.0586923 -8.2319e-09 0)
(0.0586923 -7.26902e-09 0)
(0.0586923 -6.35548e-09 0)
(0.0586923 -5.51042e-09 0)
(0.0586923 -4.74347e-09 0)
(0.0586923 -4.05772e-09 0)
(0.0586923 -3.4519e-09 0)
(0.0586923 -2.92201e-09 0)
(0.0586923 -2.46241e-09 0)
(0.0586923 -2.06663e-09 0)
(0.0586923 -1.72797e-09 0)
(0.0586923 -1.43979e-09 0)
(0.0586923 -1.19579e-09 0)
(0.0586923 -9.90112e-10 0)
(0.0586923 -8.17456e-10 0)
(0.0586923 -6.73063e-10 0)
(0.0586923 -5.52727e-10 0)
(0.0586923 -4.52761e-10 0)
(0.0586923 -3.69968e-10 0)
(0.0586923 -3.01592e-10 0)
(0.0586923 -2.45271e-10 0)
(0.0586923 -1.98997e-10 0)
(0.0586923 -1.61067e-10 0)
(0.0586923 -1.3005e-10 0)
(0.0586923 -1.04748e-10 0)
(0.0586923 -8.41604e-11 0)
(0.0586923 -6.74519e-11 0)
(0.0586923 -5.39252e-11 0)
(0.0586923 -4.29979e-11 0)
(0.0586923 -3.41894e-11 0)
(0.0586923 -2.71044e-11 0)
(0.0586923 -2.14214e-11 0)
(0.0586923 -1.68779e-11 0)
(0.0586923 -1.32534e-11 0)
(0.0586923 -1.03699e-11 0)
(0.0586923 -8.08222e-12 0)
(0.0586923 -6.27461e-12 0)
(0.0586923 -4.85461e-12 0)
(0.0586923 -3.74851e-12 0)
(0.0586923 -2.89523e-12 0)
(0.0586923 -2.24287e-12 0)
(0.0586923 -1.74655e-12 0)
(0.0586923 -1.36712e-12 0)
(0.0586923 -1.07438e-12 0)
(0.0586923 -8.46939e-13 0)
(0.0586923 -6.69235e-13 0)
(0.0586923 -5.3071e-13 0)
(0.0586923 -4.20397e-13 0)
(0.0586923 -3.3059e-13 0)
(0.0586923 -2.54655e-13 0)
(0.0586923 -1.87979e-13 0)
(0.0586923 -1.26088e-13 0)
(0.0586923 -6.67656e-14 0)
(0.0586923 -1.1359e-14 0)
(0.0586923 3.66926e-14 0)
(0.0586923 7.21322e-14 0)
(0.0586923 9.28255e-14 0)
(0.0586923 9.7385e-14 0)
(0.0586923 8.78835e-14 0)
(0.0586923 6.57494e-14 0)
(0.0586923 3.27094e-14 0)
(0.0586923 -8.82995e-15 0)
(0.0586923 -5.67507e-14 0)
(0.0586923 -1.09178e-13 0)
(0.0586923 -1.60717e-13 0)
(0.0586923 -2.05534e-13 0)
(0.0586923 -2.3638e-13 0)
(0.0586923 -2.47094e-13 0)
(0.0586923 -2.35332e-13 0)
(0.0586923 -2.03737e-13 0)
(0.0586923 -1.5694e-13 0)
(0.0586923 -1.04953e-13 0)
(0.0586923 -5.63323e-14 0)
(0.0586923 -1.78578e-14 0)
(0.0586923 7.1411e-15 0)
(0.0586923 1.90682e-14 0)
(0.0586923 1.66753e-14 0)
(0.0586923 3.92058e-15 0)
(0.0586923 -1.47712e-14 0)
(0.0586923 -3.2111e-14 0)
(0.0586923 -4.15797e-14 0)
(0.0586923 -3.94772e-14 0)
(0.0586923 -2.29497e-14 0)
(0.0586923 6.86948e-15 0)
(0.0586923 4.58961e-14 0)
(0.0586923 8.99858e-14 0)
(0.0586923 1.28808e-13 0)
(0.0586923 1.58334e-13 0)
(0.0586923 1.74116e-13 0)
(0.0586923 1.76796e-13 0)
(0.0586923 1.73975e-13 0)
(0.0586923 1.70692e-13 0)
(0.0586923 1.76496e-13 0)
(0.0586923 1.97755e-13 0)
(0.0586923 2.38925e-13 0)
(0.0586923 3.03839e-13 0)
(0.0586923 3.91117e-13 0)
(0.0586923 5.00112e-13 0)
(0.0586923 6.28789e-13 0)
(0.0586923 7.81686e-13 0)
(0.0586923 9.69066e-13 0)
(0.0586923 1.2017e-12 0)
(0.0586923 1.50425e-12 0)
(0.0586923 1.90491e-12 0)
(0.0586923 2.44796e-12 0)
(0.0586923 3.19626e-12 0)
(0.0586923 4.21552e-12 0)
(0.0586923 5.66538e-12 0)
(0.0586923 7.65732e-12 0)
(0.0586923 1.05817e-11 0)
(0.0586923 1.41934e-11 0)
(0.0586923 2.502e-11 0)
(0.0586923 2.72004e-11 0)
(5.64796e-05 0.00630049 0)
(0.000571928 0.012324 0)
(0.00159159 0.0132499 0)
(0.00283269 0.0118603 0)
(0.00454855 0.0099375 0)
(0.00644845 0.00775527 0)
(0.00852079 0.00549007 0)
(0.0107172 0.00318838 0)
(0.0130397 0.000885223 0)
(0.0154917 -0.00139808 0)
(0.0180788 -0.00364293 0)
(0.0208022 -0.00583255 0)
(0.0236577 -0.00795147 0)
(0.0266355 -0.00998571 0)
(0.02972 -0.0119228 0)
(0.0328906 -0.0137514 0)
(0.0361208 -0.0154598 0)
(0.0393782 -0.0170351 0)
(0.0426237 -0.0184614 0)
(0.0458115 -0.0197172 0)
(0.0488881 -0.020772 0)
(0.0517921 -0.0215814 0)
(0.0544528 -0.0220823 0)
(0.056792 -0.0221913 0)
(0.0587289 -0.0218119 0)
(0.0601957 -0.020855 0)
(0.061161 -0.0192725 0)
(0.0616523 -0.0170958 0)
(0.0617609 -0.0144605 0)
(0.0616168 -0.0115968 0)
(0.0613464 -0.00877511 0)
(0.061039 -0.00623302 0)
(0.060742 -0.00412139 0)
(0.0604737 -0.00249215 0)
(0.0602395 -0.00131882 0)
(0.0600403 -0.000529355 0)
(0.0598746 -3.59636e-05 0)
(0.0597395 0.000245011 0)
(0.0596306 0.000383098 0)
(0.0595433 0.000430981 0)
(0.0594731 0.000425873 0)
(0.0594163 0.000392563 0)
(0.05937 0.00034669 0)
(0.059332 0.000297569 0)
(0.0593005 0.000250358 0)
(0.0592743 0.000207604 0)
(0.0592526 0.000170295 0)
(0.0592345 0.000138533 0)
(0.0592195 0.000111956 0)
(0.059207 8.99968e-05 0)
(0.0591968 7.20223e-05 0)
(0.0591884 5.74157e-05 0)
(0.0591815 4.5614e-05 0)
(0.0591758 3.61232e-05 0)
(0.0591712 2.8521e-05 0)
(0.0591675 2.24527e-05 0)
(0.0591645 1.7624e-05 0)
(0.0591621 1.37927e-05 0)
(0.0591601 1.07615e-05 0)
(0.0591586 8.36966e-06 0)
(0.0591573 6.48757e-06 0)
(0.0591564 5.01068e-06 0)
(0.0591556 3.85507e-06 0)
(0.059155 2.95353e-06 0)
(0.0591545 2.2524e-06 0)
(0.0591541 1.70894e-06 0)
(0.0591538 1.2892e-06 0)
(0.0591535 9.66248e-07 0)
(0.0591534 7.18805e-07 0)
(0.0591532 5.30085e-07 0)
(0.0591531 3.86883e-07 0)
(0.059153 2.78838e-07 0)
(0.0591529 1.97844e-07 0)
(0.0591529 1.37579e-07 0)
(0.0591529 9.31234e-08 0)
(0.0591528 6.06667e-08 0)
(0.0591528 3.7264e-08 0)
(0.0591528 2.06496e-08 0)
(0.0591528 9.08725e-09 0)
(0.0591528 1.25267e-09 0)
(0.0591528 -3.85933e-09 0)
(0.0591528 -7.00738e-09 0)
(0.0591528 -8.76034e-09 0)
(0.0591528 -9.54168e-09 0)
(0.0591528 -9.66397e-09 0)
(0.0591528 -9.35556e-09 0)
(0.0591528 -8.78125e-09 0)
(0.0591528 -8.05815e-09 0)
(0.0591528 -7.26791e-09 0)
(0.0591528 -6.46594e-09 0)
(0.0591528 -5.68855e-09 0)
(0.0591528 -4.95817e-09 0)
(0.0591528 -4.28744e-09 0)
(0.0591528 -3.68212e-09 0)
(0.0591528 -3.14331e-09 0)
(0.0591528 -2.66908e-09 0)
(0.0591528 -2.25559e-09 0)
(0.0591528 -1.89792e-09 0)
(0.0591528 -1.59065e-09 0)
(0.0591528 -1.32828e-09 0)
(0.0591528 -1.10544e-09 0)
(0.0591528 -9.17067e-10 0)
(0.0591528 -7.5853e-10 0)
(0.0591528 -6.25627e-10 0)
(0.0591528 -5.14618e-10 0)
(0.0591528 -4.22209e-10 0)
(0.0591528 -3.45524e-10 0)