/*--------------------------------*- C++ -*----------------------------------*\
| =========                 |                                                 |
| \\      /  F ield         | OpenFOAM: The Open Source CFD Toolbox           |
|  \\    /   O peration     | Version:  4.1                                   |
|   \\  /    A nd           | Web:      www.OpenFOAM.org                      |
|    \\/     M anipulation  |                                                 |
\*---------------------------------------------------------------------------*/
FoamFile
{
    version     2.0;
    format      ascii;
    class       volVectorField;
    location    "3780";
    object      U;
}
// * * * * * * * * * * * * * * * * * * * * * * * * * * * * * * * * * * * * * //

dimensions      [0 1 -1 0 0 0 0];

internalField   nonuniform List<vector> 
1275
(
(0.0123507 5.48575e-06 0)
(0.0125612 2.04164e-05 0)
(0.0127129 3.34672e-05 0)
(0.0128093 4.46279e-05 0)
(0.0128548 5.3856e-05 0)
(0.0128533 6.13033e-05 0)
(0.0128091 6.69736e-05 0)
(0.0127264 7.10767e-05 0)
(0.0126091 7.3675e-05 0)
(0.0124613 7.49942e-05 0)
(0.0122866 7.51377e-05 0)
(0.0120886 7.43235e-05 0)
(0.0118705 7.26726e-05 0)
(0.0116354 7.03805e-05 0)
(0.0113861 6.75656e-05 0)
(0.0111251 6.43912e-05 0)
(0.0108547 6.09592e-05 0)
(0.0105771 5.73962e-05 0)
(0.010294 5.37797e-05 0)
(0.0100071 5.01998e-05 0)
(0.00971774 4.67076e-05 0)
(0.0094273 4.33599e-05 0)
(0.00913682 4.01838e-05 0)
(0.0088473 3.72084e-05 0)
(0.00855954 3.44413e-05 0)
(0.00827432 3.18911e-05 0)
(0.00799224 2.9551e-05 0)
(0.00771388 2.74156e-05 0)
(0.0074397 2.54697e-05 0)
(0.00717014 2.36996e-05 0)
(0.00690556 2.2086e-05 0)
(0.00664629 2.06121e-05 0)
(0.0063926 1.92578e-05 0)
(0.00614476 1.80062e-05 0)
(0.00590296 1.68395e-05 0)
(0.00566741 1.57429e-05 0)
(0.00543825 1.47021e-05 0)
(0.00521563 1.37058e-05 0)
(0.00499967 1.27439e-05 0)
(0.00479044 1.18091e-05 0)
(0.00458803 1.08955e-05 0)
(0.00439248 9.99976e-06 0)
(0.00420383 9.11979e-06 0)
(0.00402208 8.25551e-06 0)
(0.00384723 7.40781e-06 0)
(0.00367927 6.57899e-06 0)
(0.00351815 5.77186e-06 0)
(0.00336383 4.98999e-06 0)
(0.00321623 4.23697e-06 0)
(0.00307528 3.51653e-06 0)
(0.00294089 2.83201e-06 0)
(0.00281296 2.18638e-06 0)
(0.00269139 1.58192e-06 0)
(0.00257605 1.02021e-06 0)
(0.00246683 5.02015e-07 0)
(0.00236359 2.72871e-08 0)
(0.00226622 -4.04834e-07 0)
(0.00217456 -7.95912e-07 0)
(0.00208848 -1.14818e-06 0)
(0.00200785 -1.46436e-06 0)
(0.00193252 -1.74762e-06 0)
(0.00186235 -2.00135e-06 0)
(0.0017972 -2.2291e-06 0)
(0.00173694 -2.43443e-06 0)
(0.00168142 -2.62082e-06 0)
(0.00163053 -2.79158e-06 0)
(0.00158411 -2.94979e-06 0)
(0.00154206 -3.09823e-06 0)
(0.00150424 -3.23938e-06 0)
(0.00147053 -3.37541e-06 0)
(0.00144083 -3.50816e-06 0)
(0.00141501 -3.63917e-06 0)
(0.00139297 -3.76971e-06 0)
(0.00137461 -3.90077e-06 0)
(0.00135982 -4.03316e-06 0)
(0.00134851 -4.16745e-06 0)
(0.0013406 -4.30407e-06 0)
(0.00133598 -4.4433e-06 0)
(0.00133457 -4.5853e-06 0)
(0.00133629 -4.73012e-06 0)
(0.00134105 -4.87772e-06 0)
(0.00134878 -5.02799e-06 0)
(0.00135939 -5.18074e-06 0)
(0.00137281 -5.33573e-06 0)
(0.00138897 -5.49264e-06 0)
(0.00140778 -5.65113e-06 0)
(0.00142917 -5.81077e-06 0)
(0.00145306 -5.97111e-06 0)
(0.00147939 -6.13162e-06 0)
(0.00150806 -6.2918e-06 0)
(0.00153901 -6.45103e-06 0)
(0.00157216 -6.60874e-06 0)
(0.00160742 -6.76425e-06 0)
(0.00164471 -6.91697e-06 0)
(0.00168397 -7.06616e-06 0)
(0.00172509 -7.21126e-06 0)
(0.001768 -7.35151e-06 0)
(0.00181261 -7.48633e-06 0)
(0.00185885 -7.61508e-06 0)
(0.00190661 -7.7371e-06 0)
(0.00195581 -7.852e-06 0)
(0.00200637 -7.95888e-06 0)
(0.00205818 -8.05797e-06 0)
(0.0021112 -8.14764e-06 0)
(0.00216525 -8.22945e-06 0)
(0.00222038 -8.30009e-06 0)
(0.0022763 -8.36386e-06 0)
(0.00233321 -8.41388e-06 0)
(0.0023906 -8.45978e-06 0)
(0.00244902 -8.48763e-06 0)
(0.00250743 -8.51707e-06 0)
(0.00256717 -8.52108e-06 0)
(0.00262608 -8.53714e-06 0)
(0.00268709 -8.51534e-06 0)
(0.00274581 -8.5233e-06 0)
(0.00280831 -8.47409e-06 0)
(0.00286583 -8.4818e-06 0)
(0.00293052 -8.40768e-06 0)
(0.00298532 -8.42517e-06 0)
(0.00305364 -8.3491e-06 0)
(0.00310338 -8.38491e-06 0)
(0.00317795 -8.41579e-06 0)
(0.0032192 -8.47114e-06 0)
(0.00330424 -9.05948e-06 0)
(0.00333301 -9.18916e-06 0)
(0.00343465 -1.21303e-05 0)
(0.00344977 -1.31978e-05 0)
(0.00357664 -2.69379e-05 0)
(0.0315925 -0.000493451 0)
(0.0321877 -0.000386115 0)
(0.0326895 -0.000284461 0)
(0.0331005 -0.000188687 0)
(0.0334248 -9.94286e-05 0)
(0.0336659 -1.65495e-05 0)
(0.0338278 5.95528e-05 0)
(0.0339148 0.000129165 0)
(0.0339308 0.000192145 0)
(0.0338802 0.000248856 0)
(0.0337672 0.000299361 0)
(0.0335962 0.000344065 0)
(0.0333711 0.000383168 0)
(0.0330962 0.000417092 0)
(0.0327752 0.000446116 0)
(0.0324123 0.000470655 0)
(0.0320109 0.00049102 0)
(0.0315749 0.000507601 0)
(0.0311074 0.000520708 0)
(0.030612 0.00053069 0)
(0.0300916 0.000537834 0)
(0.0295494 0.000542445 0)
(0.028988 0.000544773 0)
(0.0284102 0.000545076 0)
(0.0278185 0.000543564 0)
(0.0272152 0.000540449 0)
(0.0266028 0.000535907 0)
(0.0259832 0.000530105 0)
(0.0253584 0.000523188 0)
(0.0247304 0.000515291 0)
(0.0241009 0.00050653 0)
(0.0234716 0.000497013 0)
(0.0228441 0.000486836 0)
(0.0222197 0.000476086 0)
(0.0215999 0.00046484 0)
(0.020986 0.000453173 0)
(0.020379 0.000441149 0)
(0.0197802 0.000428829 0)
(0.0191906 0.000416268 0)
(0.0186111 0.000403519 0)
(0.0180426 0.000390627 0)
(0.0174859 0.000377636 0)
(0.0169416 0.000364587 0)
(0.0164105 0.000351516 0)
(0.0158931 0.000338457 0)
(0.01539 0.000325439 0)
(0.0149015 0.000312491 0)
(0.014428 0.000299637 0)
(0.01397 0.000286899 0)
(0.0135275 0.000274298 0)
(0.0131009 0.000261851 0)
(0.0126902 0.000249574 0)
(0.0122955 0.000237481 0)
(0.0119169 0.000225585 0)
(0.0115544 0.000213898 0)
(0.0112079 0.000202429 0)
(0.0108773 0.000191186 0)
(0.0105625 0.000180177 0)
(0.0102634 0.000169409 0)
(0.00997969 0.000158886 0)
(0.00971123 0.000148612 0)
(0.00945777 0.00013859 0)
(0.00921905 0.000128822 0)
(0.0089948 0.000119307 0)
(0.00878473 0.000110045 0)
(0.00858853 0.000101034 0)
(0.00840591 9.22691e-05 0)
(0.00823655 8.37478e-05 0)
(0.00808013 7.54645e-05 0)
(0.00793633 6.74136e-05 0)
(0.00780482 5.9589e-05 0)
(0.00768529 5.1984e-05 0)
(0.0075774 4.4592e-05 0)
(0.00748085 3.7406e-05 0)
(0.00739531 3.04193e-05 0)
(0.00732047 2.36254e-05 0)
(0.00725602 1.70181e-05 0)
(0.00720166 1.05916e-05 0)
(0.00715709 4.34055e-06 0)
(0.007122 -1.73977e-06 0)
(0.00709611 -7.65351e-06 0)
(0.00707913 -1.34042e-05 0)
(0.00707078 -1.89948e-05 0)
(0.00707077 -2.44277e-05 0)
(0.00707883 -2.97044e-05 0)
(0.00709468 -3.48263e-05 0)
(0.00711806 -3.97939e-05 0)
(0.00714869 -4.46073e-05 0)
(0.00718632 -4.92662e-05 0)
(0.00723068 -5.377e-05 0)
(0.0072815 -5.81177e-05 0)
(0.00733853 -6.23079e-05 0)
(0.00740151 -6.63393e-05 0)
(0.00747018 -7.021e-05 0)
(0.00754429 -7.39189e-05 0)
(0.00762358 -7.74632e-05 0)
(0.00770781 -8.08432e-05 0)
(0.00779672 -8.40542e-05 0)
(0.00789005 -8.70997e-05 0)
(0.00798758 -8.99712e-05 0)
(0.00808904 -9.26788e-05 0)
(0.0081942 -9.52053e-05 0)
(0.00830281 -9.75754e-05 0)
(0.00841466 -9.97523e-05 0)
(0.00852944 -0.000101791 0)
(0.00864706 -0.000103613 0)
(0.00876707 -0.000105333 0)
(0.0088896 -0.000106792 0)
(0.00901389 -0.000108222 0)
(0.00914054 -0.000109299 0)
(0.00926812 -0.000110487 0)
(0.00939824 -0.000111149 0)
(0.00952805 -0.000112172 0)
(0.00966123 -0.000112352 0)
(0.00979202 -0.000113338 0)
(0.00992822 -0.000112926 0)
(0.0100583 -0.00011406 0)
(0.0101982 -0.000112897 0)
(0.0103253 -0.000114423 0)
(0.0104705 -0.00011235 0)
(0.0105911 -0.000114506 0)
(0.0107449 -0.000111571 0)
(0.0108537 -0.000114383 0)
(0.0110219 -0.000111522 0)
(0.0111116 -0.000114403 0)
(0.011302 -0.000115572 0)
(0.0113634 -0.000116865 0)
(0.0115844 -0.000136665 0)
(0.0492445 -0.00127768 0)
(0.0499475 -0.00107269 0)
(0.0505587 -0.000876011 0)
(0.0510803 -0.000687682 0)
(0.0515157 -0.000508938 0)
(0.0518679 -0.000339512 0)
(0.0521403 -0.000180186 0)
(0.0523362 -3.05838e-05 0)
(0.0524588 0.000108929 0)
(0.0525116 0.000238778 0)
(0.0524976 0.000358912 0)
(0.0524203 0.000469787 0)
(0.0522826 0.000571558 0)
(0.0520878 0.000664694 0)
(0.0518387 0.000749474 0)
(0.0515385 0.000826365 0)
(0.0511897 0.000895704 0)
(0.0507955 0.000957939 0)
(0.0503582 0.00101343 0)
(0.0498808 0.00106258 0)
(0.0493655 0.00110574 0)
(0.048815 0.00114329 0)
(0.0482317 0.00117554 0)
(0.047618 0.00120283 0)
(0.046976 0.00122544 0)
(0.0463081 0.00124365 0)
(0.0456165 0.00125772 0)
(0.0449034 0.0012679 0)
(0.0441708 0.0012744 0)
(0.0434208 0.00127745 0)
(0.0426556 0.00127724 0)
(0.041877 0.00127396 0)
(0.0410872 0.00126779 0)
(0.040288 0.00125889 0)
(0.0394815 0.00124744 0)
(0.0386695 0.00123359 0)
(0.0378539 0.00121749 0)
(0.0370365 0.00119931 0)
(0.0362193 0.00117918 0)
(0.0354039 0.00115725 0)
(0.0345921 0.00113368 0)
(0.0337856 0.00110861 0)
(0.032986 0.00108218 0)
(0.032195 0.00105453 0)
(0.0314139 0.00102581 0)
(0.0306443 0.000996152 0)
(0.0298876 0.000965693 0)
(0.029145 0.000934567 0)
(0.0284177 0.0009029 0)
(0.0277069 0.000870815 0)
(0.0270135 0.00083843 0)
(0.0263385 0.000805857 0)
(0.0256827 0.000773199 0)
(0.0250468 0.000740554 0)
(0.0244315 0.000708013 0)
(0.0238373 0.000675657 0)
(0.0232646 0.000643563 0)
(0.0227137 0.000611796 0)
(0.022185 0.000580418 0)
(0.0216786 0.000549479 0)
(0.0211946 0.000519026 0)
(0.0207329 0.000489098 0)
(0.0202936 0.000459726 0)
(0.0198766 0.000430937 0)
(0.0194816 0.000402753 0)
(0.0191084 0.00037519 0)
(0.0187568 0.000348261 0)
(0.0184265 0.000321973 0)
(0.018117 0.000296332 0)
(0.0178281 0.000271339 0)
(0.0175593 0.000246994 0)
(0.0173101 0.000223293 0)
(0.0170802 0.000200232 0)
(0.0168691 0.000177806 0)
(0.0166763 0.000156006 0)
(0.0165012 0.000134826 0)
(0.0163435 0.000114256 0)
(0.0162026 9.42888e-05 0)
(0.016078 7.49143e-05 0)
(0.0159692 5.61243e-05 0)
(0.0158758 3.79103e-05 0)
(0.0157971 2.02642e-05 0)
(0.0157327 3.17853e-06 0)
(0.0156822 -1.33538e-05 0)
(0.015645 -2.93391e-05 0)
(0.0156206 -4.47834e-05 0)
(0.0156085 -5.96916e-05 0)
(0.0156083 -7.40685e-05 0)
(0.0156195 -8.79179e-05 0)
(0.0156416 -0.000101244 0)
(0.0156742 -0.000114048 0)
(0.0157168 -0.000126335 0)
(0.015769 -0.000138106 0)
(0.0158302 -0.000149364 0)
(0.0159002 -0.000160111 0)
(0.0159783 -0.000170348 0)
(0.0160643 -0.000180079 0)
(0.0161577 -0.000189304 0)
(0.016258 -0.000198031 0)
(0.016365 -0.000206255 0)
(0.0164781 -0.000213992 0)
(0.016597 -0.000221227 0)
(0.0167214 -0.000227995 0)
(0.0168508 -0.000234256 0)
(0.0169848 -0.000240083 0)
(0.0171233 -0.000245385 0)
(0.0172656 -0.000250316 0)
(0.0174118 -0.000254671 0)
(0.017561 -0.000258767 0)
(0.0177136 -0.000262175 0)
(0.0178684 -0.000265531 0)
(0.0180264 -0.000267967 0)
(0.0181853 -0.000270727 0)
(0.0183479 -0.00027212 0)
(0.0185094 -0.000274503 0)
(0.0186762 -0.000274709 0)
(0.0188385 -0.000277041 0)
(0.0190097 -0.000275819 0)
(0.0191702 -0.000278558 0)
(0.0193472 -0.000275604 0)
(0.0195021 -0.000279295 0)
(0.0196885 -0.000274455 0)
(0.0198317 -0.000279481 0)
(0.0200336 -0.000273513 0)
(0.0201558 -0.000279304 0)
(0.0203835 -0.000275857 0)
(0.020469 -0.000279499 0)
(0.0207382 -0.000287097 0)
(0.0671071 -0.00199833 0)
(0.0677489 -0.00170307 0)
(0.068304 -0.00141959 0)
(0.0687754 -0.00114756 0)
(0.0691665 -0.000888659 0)
(0.0694811 -0.000642326 0)
(0.0697223 -0.000409546 0)
(0.0698938 -0.000189727 0)
(0.0699985 1.67293e-05 0)
(0.0700399 0.000210425 0)
(0.0700208 0.000391362 0)
(0.0699444 0.000560153 0)
(0.0698132 0.00071705 0)
(0.0696301 0.000862666 0)
(0.0693974 0.000997392 0)
(0.0691177 0.00112182 0)
(0.068793 0.00123641 0)
(0.0684257 0.0013417 0)
(0.0680177 0.00143816 0)
(0.067571 0.00152628 0)
(0.0670873 0.0016065 0)
(0.0665686 0.00167926 0)
(0.0660164 0.00174493 0)
(0.0654324 0.00180389 0)
(0.0648182 0.00185646 0)
(0.0641753 0.00190295 0)
(0.0635052 0.00194364 0)
(0.0628094 0.00197878 0)
(0.0620894 0.00200859 0)
(0.0613465 0.00203327 0)
(0.0605822 0.00205301 0)
(0.0597981 0.00206797 0)
(0.0589955 0.00207831 0)
(0.058176 0.00208417 0)
(0.0573411 0.00208568 0)
(0.0564923 0.00208299 0)
(0.0556311 0.0020762 0)
(0.0547593 0.00206546 0)
(0.0538783 0.00205088 0)
(0.05299 0.0020326 0)
(0.0520959 0.00201076 0)
(0.0511977 0.00198549 0)
(0.0502973 0.00195696 0)
(0.0493963 0.00192531 0)
(0.0484965 0.00189072 0)
(0.0475997 0.00185336 0)
(0.0467075 0.00181342 0)
(0.0458218 0.00177108 0)
(0.0449443 0.00172654 0)
(0.0440765 0.00168001 0)
(0.0432202 0.00163169 0)
(0.0423769 0.0015818 0)
(0.0415481 0.00153053 0)
(0.0407353 0.00147811 0)
(0.0399397 0.00142473 0)
(0.0391628 0.0013706 0)
(0.0384056 0.00131592 0)
(0.0376692 0.00126086 0)
(0.0369546 0.00120563 0)
(0.0362626 0.00115037 0)
(0.0355941 0.00109526 0)
(0.0349496 0.00104043 0)
(0.0343296 0.000986017 0)
(0.0337347 0.000932151 0)
(0.0331651 0.000878937 0)
(0.032621 0.000826471 0)
(0.0321026 0.000774839 0)
(0.0316099 0.000724113 0)
(0.0311428 0.000674357 0)
(0.0307013 0.000625624 0)
(0.0302851 0.000577955 0)
(0.0298939 0.000531388 0)
(0.0295274 0.000485949 0)
(0.0291853 0.000441658 0)
(0.028867 0.000398532 0)
(0.0285722 0.00035658 0)
(0.0283003 0.000315807 0)
(0.0280507 0.000276216 0)
(0.0278229 0.000237805 0)
(0.0276163 0.000200572 0)
(0.0274302 0.000164511 0)
(0.0272641 0.000129615 0)
(0.0271174 9.58756e-05 0)
(0.0269892 6.32846e-05 0)
(0.0268791 3.18324e-05 0)
(0.0267864 1.5088e-06 0)
(0.0267103 -2.76962e-05 0)
(0.0266503 -5.5793e-05 0)
(0.0266057 -8.2792e-05 0)
(0.0265759 -0.000108704 0)
(0.0265601 -0.000133539 0)
(0.0265578 -0.000157308 0)
(0.0265684 -0.000180023 0)
(0.0265912 -0.000201693 0)
(0.0266256 -0.00022233 0)
(0.0266711 -0.000241946 0)
(0.0267269 -0.000260554 0)
(0.0267927 -0.000278163 0)
(0.0268677 -0.000294793 0)
(0.0269515 -0.000310446 0)
(0.0270435 -0.000325155 0)
(0.0271432 -0.000338908 0)
(0.0272501 -0.000351763 0)
(0.0273637 -0.000363674 0)
(0.0274835 -0.000374753 0)
(0.027609 -0.00038488 0)
(0.0277399 -0.000394282 0)
(0.0278756 -0.000402678 0)
(0.0280158 -0.000410528 0)
(0.0281601 -0.000417228 0)
(0.0283078 -0.000423695 0)
(0.0284593 -0.000428696 0)
(0.028613 -0.00043402 0)
(0.0287704 -0.000437245 0)
(0.0289284 -0.00044178 0)
(0.0290909 -0.000443037 0)
(0.0292514 -0.000447299 0)
(0.0294187 -0.000446236 0)
(0.0295792 -0.00045094 0)
(0.0297523 -0.000447078 0)
(0.0299091 -0.000453057 0)
(0.0300907 -0.000446063 0)
(0.0302378 -0.000453892 0)
(0.0304343 -0.000444342 0)
(0.0305606 -0.000453553 0)
(0.0307842 -0.000444033 0)
(0.0308701 -0.000452117 0)
(0.0311413 -0.000448831 0)
(0.0842523 -0.0026506 0)
(0.0847811 -0.00226794 0)
(0.08523 -0.00190107 0)
(0.0856027 -0.00154895 0)
(0.0859025 -0.00121375 0)
(0.0861336 -0.00089453 0)
(0.0862989 -0.000592405 0)
(0.0864022 -0.000306537 0)
(0.0864462 -3.72854e-05 0)
(0.0864346 0.000216136 0)
(0.0863696 0.000453851 0)
(0.0862544 0.000676625 0)
(0.0860912 0.000884861 0)
(0.0858828 0.00107931 0)
(0.0856312 0.00126051 0)
(0.0853385 0.00142918 0)
(0.0850067 0.00158591 0)
(0.0846378 0.00173137 0)
(0.0842332 0.00186612 0)
(0.0837947 0.00199078 0)
(0.0833238 0.00210586 0)
(0.0828218 0.00221189 0)
(0.0822901 0.00230933 0)
(0.08173 0.00239861 0)
(0.0811425 0.00248012 0)
(0.0805289 0.00255422 0)
(0.0798902 0.00262122 0)
(0.0792275 0.00268141 0)
(0.0785418 0.00273502 0)
(0.0778341 0.00278229 0)
(0.0771053 0.00282338 0)
(0.0763566 0.00285849 0)
(0.0755888 0.00288774 0)
(0.0748031 0.00291127 0)
(0.0740004 0.00292918 0)
(0.0731819 0.00294159 0)
(0.0723485 0.00294858 0)
(0.0715015 0.00295026 0)
(0.0706421 0.00294669 0)
(0.0697714 0.00293799 0)
(0.0688907 0.00292423 0)
(0.0680013 0.00290553 0)
(0.0671046 0.00288199 0)
(0.066202 0.00285373 0)
(0.0652949 0.00282089 0)
(0.0643849 0.00278361 0)
(0.0634733 0.00274205 0)
(0.0625618 0.00269639 0)
(0.061652 0.00264681 0)
(0.0607454 0.00259352 0)
(0.0598437 0.00253673 0)
(0.0589483 0.00247667 0)
(0.058061 0.00241359 0)
(0.0571834 0.00234773 0)
(0.0563168 0.00227935 0)
(0.055463 0.00220872 0)
(0.0546232 0.00213611 0)
(0.053799 0.00206179 0)
(0.0529917 0.00198603 0)
(0.0522025 0.0019091 0)
(0.0514328 0.00183126 0)
(0.0506834 0.00175277 0)
(0.0499556 0.00167387 0)
(0.0492502 0.00159481 0)
(0.0485679 0.00151582 0)
(0.0479097 0.00143709 0)
(0.0472759 0.00135884 0)
(0.0466672 0.00128125 0)
(0.046084 0.00120448 0)
(0.0455265 0.00112869 0)
(0.044995 0.00105403 0)
(0.0444895 0.000980613 0)
(0.0440101 0.000908551 0)
(0.0435567 0.000837942 0)
(0.0431291 0.00076887 0)
(0.0427271 0.000701405 0)
(0.0423504 0.000635609 0)
(0.0419987 0.000571531 0)
(0.0416714 0.000509212 0)
(0.0413681 0.000448683 0)
(0.0410883 0.00038997 0)
(0.0408315 0.00033309 0)
(0.0405969 0.000278055 0)
(0.040384 0.000224871 0)
(0.0401921 0.00017354 0)
(0.0400206 0.000124061 0)
(0.0398687 7.64266e-05 0)
(0.0397357 3.06294e-05 0)
(0.0396209 -1.33422e-05 0)
(0.0395236 -5.55021e-05 0)
(0.0394431 -9.58659e-05 0)
(0.0393786 -0.000134452 0)
(0.0393293 -0.000171278 0)
(0.0392947 -0.000206367 0)
(0.0392739 -0.00023974 0)
(0.0392662 -0.000271422 0)
(0.0392711 -0.000301439 0)
(0.0392877 -0.000329815 0)
(0.0393154 -0.000356581 0)
(0.0393536 -0.000381762 0)
(0.0394016 -0.000405398 0)
(0.0394588 -0.000427505 0)
(0.0395247 -0.000448142 0)
(0.0395985 -0.000467302 0)
(0.0396798 -0.000485087 0)
(0.039768 -0.000501433 0)
(0.0398626 -0.000516531 0)
(0.039963 -0.000530194 0)
(0.0400689 -0.000542797 0)
(0.0401796 -0.000553896 0)
(0.0402949 -0.000564235 0)
(0.040414 -0.000572859 0)
(0.040537 -0.000581228 0)
(0.040663 -0.000587401 0)
(0.0407919 -0.000594194 0)
(0.0409237 -0.000597837 0)
(0.0410568 -0.000603603 0)
(0.0411936 -0.000604466 0)
(0.0413286 -0.000609979 0)
(0.0414707 -0.000607594 0)
(0.0416044 -0.000613903 0)
(0.041754 -0.000607597 0)
(0.0418807 -0.000615941 0)
(0.0420433 -0.000605188 0)
(0.0421529 -0.000616267 0)
(0.0423396 -0.000602317 0)
(0.0424132 -0.000613392 0)
(0.0426456 -0.000601667 0)
(0.0991155 -0.00314278 0)
(0.0994895 -0.00268307 0)
(0.0997963 -0.0022434 0)
(0.100041 -0.00182204 0)
(0.100225 -0.00142138 0)
(0.100354 -0.00104015 0)
(0.100429 -0.000679381 0)
(0.100455 -0.000338068 0)
(0.100433 -1.63684e-05 0)
(0.100366 0.000286637 0)
(0.100256 0.00057129 0)
(0.100107 0.000838491 0)
(0.0999184 0.00108885 0)
(0.0996938 0.00132324 0)
(0.0994343 0.00154239 0)
(0.0991416 0.00174715 0)
(0.0988171 0.00193826 0)
(0.0984621 0.0021165 0)
(0.0980778 0.00228259 0)
(0.0976654 0.00243723 0)
(0.0972259 0.00258105 0)
(0.0967603 0.00271465 0)
(0.0962695 0.00283859 0)
(0.0957544 0.00295337 0)
(0.0952158 0.00305943 0)
(0.0946544 0.00315719 0)
(0.0940709 0.003247 0)
(0.0934662 0.00332917 0)
(0.0928408 0.00340397 0)
(0.0921954 0.00347164 0)
(0.0915308 0.00353236 0)
(0.0908476 0.00358629 0)
(0.0901466 0.00363358 0)
(0.0894283 0.00367433 0)
(0.0886935 0.00370862 0)
(0.0879431 0.00373654 0)
(0.0871777 0.00375813 0)
(0.0863983 0.00377345 0)
(0.0856056 0.00378255 0)
(0.0848005 0.00378546 0)
(0.0839841 0.00378224 0)
(0.0831573 0.00377293 0)
(0.0823211 0.0037576 0)
(0.0814766 0.00373631 0)
(0.080625 0.00370916 0)
(0.0797675 0.00367623 0)
(0.0789053 0.00363766 0)
(0.0780396 0.00359356 0)
(0.0771718 0.00354411 0)
(0.0763031 0.00348948 0)
(0.0754351 0.00342986 0)
(0.074569 0.00336547 0)
(0.0737063 0.00329654 0)
(0.0728484 0.00322332 0)
(0.0719967 0.00314609 0)
(0.0711526 0.00306513 0)
(0.0703176 0.00298074 0)
(0.069493 0.00289322 0)
(0.0686802 0.00280289 0)
(0.0678805 0.00271007 0)
(0.0670951 0.00261508 0)
(0.0663253 0.00251826 0)
(0.0655723 0.00241993 0)
(0.064837 0.0023204 0)
(0.0641207 0.00221999 0)
(0.063424 0.002119 0)
(0.062748 0.00201774 0)
(0.0620934 0.00191647 0)
(0.0614609 0.00181548 0)
(0.0608509 0.00171501 0)
(0.0602642 0.0016153 0)
(0.0597009 0.00151659 0)
(0.0591615 0.00141907 0)
(0.0586462 0.00132293 0)
(0.058155 0.00122835 0)
(0.0576881 0.00113548 0)
(0.0572453 0.00104447 0)
(0.0568266 0.00095544 0)
(0.0564317 0.000868501 0)
(0.0560604 0.000783748 0)
(0.0557124 0.000701265 0)
(0.0553873 0.000621121 0)
(0.0550846 0.000543374 0)
(0.0548039 0.000468072 0)
(0.0545446 0.000395252 0)
(0.0543061 0.000324942 0)
(0.0540879 0.00025716 0)
(0.0538892 0.000191919 0)
(0.0537095 0.000129222 0)
(0.0535481 6.90663e-05 0)
(0.0534043 1.14446e-05 0)
(0.0532773 -4.36576e-05 0)
(0.0531665 -9.62586e-05 0)
(0.0530712 -0.000146382 0)
(0.0529906 -0.000194056 0)
(0.0529241 -0.00023931 0)
(0.0528708 -0.000282182 0)
(0.0528302 -0.000322707 0)
(0.0528016 -0.00036093 0)
(0.0527841 -0.000396889 0)
(0.0527773 -0.000430642 0)
(0.0527804 -0.000462219 0)
(0.0527929 -0.000491703 0)
(0.052814 -0.0005191 0)
(0.0528433 -0.000544538 0)
(0.05288 -0.000567964 0)
(0.0529237 -0.000589605 0)
(0.0529738 -0.000609274 0)
(0.0530299 -0.000627398 0)
(0.0530913 -0.000643506 0)
(0.0531578 -0.000658443 0)
(0.0532285 -0.000671149 0)
(0.0533036 -0.000683303 0)
(0.053382 -0.000692683 0)
(0.0534641 -0.000702589 0)
(0.0535485 -0.000708567 0)
(0.053636 -0.000716971 0)
(0.0537254 -0.000719224 0)
(0.0538166 -0.000727175 0)
(0.0539104 -0.000725075 0)
(0.0540031 -0.000733909 0)
(0.054102 -0.000726732 0)
(0.054192 -0.000737522 0)
(0.0542996 -0.000725449 0)
(0.0543785 -0.000737825 0)
(0.0545046 -0.000721742 0)
(0.054556 -0.000734187 0)
(0.0547199 -0.000718724 0)
(0.110069 -0.0034684 0)
(0.110243 -0.00294801 0)
(0.11037 -0.00245189 0)
(0.110456 -0.00197727 0)
(0.110502 -0.00152662 0)
(0.110513 -0.00109836 0)
(0.110488 -0.000693204 0)
(0.110433 -0.000310021 0)
(0.110346 5.1378e-05 0)
(0.110231 0.000392 0)
(0.110089 0.000712477 0)
(0.109921 0.0010138 0)
(0.109729 0.00129678 0)
(0.109512 0.00156241 0)
(0.109273 0.00181157 0)
(0.109011 0.00204517 0)
(0.108727 0.0022641 0)
(0.108422 0.00246919 0)
(0.108097 0.00266125 0)
(0.107751 0.00284103 0)
(0.107386 0.00300923 0)
(0.107001 0.0031665 0)
(0.106596 0.00331342 0)
(0.106173 0.00345055 0)
(0.105731 0.00357834 0)
(0.10527 0.00369723 0)
(0.104791 0.0038076 0)
(0.104294 0.00390975 0)
(0.10378 0.00400397 0)
(0.103248 0.00409048 0)
(0.102699 0.00416948 0)
(0.102133 0.00424111 0)
(0.101551 0.0043055 0)
(0.100952 0.00436272 0)
(0.100338 0.00441286 0)
(0.099708 0.00445595 0)
(0.0990634 0.00449201 0)
(0.0984046 0.00452107 0)
(0.0977319 0.00454313 0)
(0.0970462 0.0045582 0)
(0.096348 0.00456628 0)
(0.095638 0.00456737 0)
(0.094917 0.00456149 0)
(0.0941859 0.00454866 0)
(0.0934456 0.00452893 0)
(0.092697 0.00450235 0)
(0.091941 0.00446899 0)
(0.0911787 0.00442894 0)
(0.0904113 0.00438233 0)
(0.0896397 0.00432929 0)
(0.0888653 0.00427 0)
(0.0880891 0.00420463 0)
(0.0873124 0.0041334 0)
(0.0865365 0.00405656 0)
(0.0857626 0.00397435 0)
(0.084992 0.00388708 0)
(0.0842259 0.00379504 0)
(0.0834658 0.00369855 0)
(0.0827127 0.00359796 0)
(0.0819679 0.00349361 0)
(0.0812327 0.00338587 0)
(0.0805083 0.0032751 0)
(0.0797957 0.00316169 0)
(0.0790961 0.00304601 0)
(0.0784104 0.00292844 0)
(0.0777398 0.00280936 0)
(0.0770851 0.00268913 0)
(0.0764471 0.00256812 0)
(0.0758267 0.00244667 0)
(0.0752245 0.00232514 0)
(0.0746411 0.00220383 0)
(0.0740771 0.00208306 0)
(0.073533 0.00196314 0)
(0.073009 0.00184432 0)
(0.0725056 0.00172687 0)
(0.0720229 0.00161103 0)
(0.0715611 0.00149702 0)
(0.0711202 0.00138505 0)
(0.0707003 0.00127529 0)
(0.0703012 0.00116792 0)
(0.0699227 0.00106308 0)
(0.0695648 0.000960893 0)
(0.069227 0.000861487 0)
(0.0689092 0.000764956 0)
(0.0686108 0.000671383 0)
(0.0683316 0.000580837 0)
(0.068071 0.000493374 0)
(0.0678285 0.000409038 0)
(0.0676036 0.00032786 0)
(0.0673958 0.000249861 0)
(0.0672044 0.000175049 0)
(0.067029 0.000103427 0)
(0.0668688 3.49855e-05 0)
(0.0667232 -3.02922e-05 0)
(0.0665916 -9.24298e-05 0)
(0.0664735 -0.000151459 0)
(0.066368 -0.000207417 0)
(0.0662747 -0.000260348 0)
(0.0661929 -0.000310301 0)
(0.0661219 -0.000357328 0)
(0.0660611 -0.000401494 0)
(0.06601 -0.000442852 0)
(0.0659679 -0.000481484 0)
(0.0659343 -0.000517438 0)
(0.0659086 -0.000550822 0)
(0.0658902 -0.000581659 0)
(0.0658787 -0.000610111 0)
(0.0658734 -0.000636134 0)
(0.0658742 -0.000659999 0)
(0.06588 -0.000681514 0)
(0.0658911 -0.000701172 0)
(0.0659062 -0.00071847 0)
(0.065926 -0.000734349 0)
(0.0659487 -0.000747683 0)
(0.0659758 -0.000760284 0)
(0.0660044 -0.000769824 0)
(0.0660375 -0.000779764 0)
(0.0660707 -0.000785535 0)
(0.0661085 -0.00079362 0)
(0.0661453 -0.000795402 0)
(0.0661861 -0.000802723 0)
(0.0662269 -0.000799883 0)
(0.0662674 -0.000807997 0)
(0.0663143 -0.000799048 0)
(0.0663503 -0.000810373 0)
(0.0664068 -0.000794966 0)
(0.0664282 -0.000806998 0)
(0.0665086 -0.000790128 0)
(0.115362 -0.0035402 0)
(0.115303 -0.00298591 0)
(0.115225 -0.00245869 0)
(0.115135 -0.00195608 0)
(0.115032 -0.00147944 0)
(0.114919 -0.00102757 0)
(0.114796 -0.000600314 0)
(0.114666 -0.000196711 0)
(0.114527 0.000183999 0)
(0.114381 0.0005428 0)
(0.114228 0.000880697 0)
(0.114067 0.00119871 0)
(0.113899 0.00149791 0)
(0.113723 0.00177932 0)
(0.11354 0.00204399 0)
(0.113348 0.00229289 0)
(0.113147 0.002527 0)
(0.112938 0.00274719 0)
(0.112719 0.00295435 0)
(0.112489 0.00314923 0)
(0.11225 0.0033326 0)
(0.111999 0.0035051 0)
(0.111737 0.00366734 0)
(0.111463 0.00381987 0)
(0.111176 0.00396317 0)
(0.110877 0.00409765 0)
(0.110565 0.00422368 0)
(0.11024 0.00434154 0)
(0.1099 0.00445151 0)
(0.109547 0.00455378 0)
(0.10918 0.00464851 0)
(0.108798 0.00473581 0)
(0.108402 0.00481577 0)
(0.107991 0.00488842 0)
(0.107565 0.00495378 0)
(0.107125 0.00501185 0)
(0.10667 0.00506261 0)
(0.106201 0.00510599 0)
(0.105717 0.00514197 0)
(0.10522 0.00517047 0)
(0.104708 0.00519145 0)
(0.104184 0.00520484 0)
(0.103647 0.0052106 0)
(0.103097 0.00520869 0)
(0.102536 0.00519909 0)
(0.101963 0.00518179 0)
(0.10138 0.00515682 0)
(0.100788 0.00512421 0)
(0.100187 0.00508403 0)
(0.0995778 0.00503638 0)
(0.0989619 0.00498138 0)
(0.09834 0.00491919 0)
(0.0977131 0.00484998 0)
(0.0970825 0.00477397 0)
(0.096449 0.00469141 0)
(0.095814 0.00460257 0)
(0.0951784 0.00450774 0)
(0.0945435 0.00440726 0)
(0.0939104 0.00430146 0)
(0.0932802 0.00419072 0)
(0.0926541 0.00407542 0)
(0.0920333 0.00395596 0)
(0.0914187 0.00383276 0)
(0.0908115 0.00370623 0)
(0.0902127 0.0035768 0)
(0.0896232 0.0034449 0)
(0.089044 0.00331095 0)
(0.0884761 0.00317539 0)
(0.0879201 0.00303862 0)
(0.0873769 0.00290106 0)
(0.0868471 0.00276311 0)
(0.0863314 0.00262514 0)
(0.0858303 0.00248754 0)
(0.0853444 0.00235064 0)
(0.0848739 0.00221479 0)
(0.0844194 0.00208031 0)
(0.083981 0.00194747 0)
(0.0835589 0.00181657 0)
(0.0831532 0.00168785 0)
(0.0827642 0.00156155 0)
(0.0823916 0.00143788 0)
(0.0820355 0.00131702 0)
(0.0816959 0.00119916 0)
(0.0813724 0.00108445 0)
(0.0810649 0.000973006 0)
(0.0807731 0.000864954 0)
(0.0804968 0.000760387 0)
(0.0802355 0.000659385 0)
(0.0799889 0.00056201 0)
(0.0797566 0.00046831 0)
(0.0795382 0.00037832 0)
(0.0793332 0.000292058 0)
(0.0791412 0.000209533 0)
(0.0789615 0.000130739 0)
(0.0787939 5.56619e-05 0)
(0.0786376 -1.57253e-05 0)
(0.0784923 -8.3458e-05 0)
(0.0783574 -0.000147579 0)
(0.0782323 -0.000208143 0)
(0.0781167 -0.000265206 0)
(0.0780099 -0.000318841 0)
(0.0779115 -0.000369108 0)
(0.0778209 -0.000416107 0)
(0.0777377 -0.000459888 0)
(0.0776614 -0.000500589 0)
(0.0775916 -0.000538225 0)
(0.0775278 -0.000573011 0)
(0.0774696 -0.000604865 0)
(0.0774165 -0.000634157 0)
(0.0773682 -0.000660594 0)
(0.0773243 -0.000684866 0)
(0.0772843 -0.000706225 0)
(0.0772482 -0.000726023 0)
(0.0772151 -0.000742571 0)
(0.0771855 -0.000758563 0)
(0.077158 -0.000770417 0)
(0.0771339 -0.000783488 0)
(0.0771106 -0.000790463 0)
(0.0770912 -0.000801898 0)
(0.0770709 -0.000803277 0)
(0.0770557 -0.00081496 0)
(0.0770369 -0.000809465 0)
(0.077026 -0.000823027 0)
(0.0770082 -0.000812343 0)
(0.0769988 -0.000823892 0)
(0.0769834 -0.000809806 0)
(0.0769712 -0.000820875 0)
(0.0769636 -0.000805045 0)
(0.113536 -0.00336647 0)
(0.11324 -0.00281013 0)
(0.112958 -0.00228363 0)
(0.1127 -0.00178367 0)
(0.112458 -0.00131036 0)
(0.112239 -0.000862786 0)
(0.112037 -0.000439811 0)
(0.111855 -4.06466e-05 0)
(0.111691 0.000336069 0)
(0.111543 0.000691258 0)
(0.11141 0.00102627 0)
(0.111291 0.00134211 0)
(0.111184 0.00164003 0)
(0.111088 0.00192105 0)
(0.111002 0.00218631 0)
(0.110922 0.00243676 0)
(0.110849 0.0026734 0)
(0.110781 0.0028971 0)
(0.110715 0.00310871 0)
(0.110652 0.00330899 0)
(0.110588 0.00349864 0)
(0.110524 0.00367828 0)
(0.110457 0.0038485 0)
(0.110387 0.00400977 0)
(0.110313 0.00416255 0)
(0.110232 0.00430719 0)
(0.110145 0.00444402 0)
(0.11005 0.00457329 0)
(0.109947 0.0046952 0)
(0.109834 0.0048099 0)
(0.109711 0.0049175 0)
(0.109578 0.00501806 0)
(0.109432 0.00511161 0)
(0.109275 0.00519813 0)
(0.109104 0.00527759 0)
(0.108921 0.00534991 0)
(0.108724 0.00541501 0)
(0.108513 0.00547278 0)
(0.108288 0.0055231 0)
(0.108049 0.00556585 0)
(0.107795 0.00560091 0)
(0.107527 0.00562815 0)
(0.107244 0.00564744 0)
(0.106947 0.00565869 0)
(0.106636 0.0056618 0)
(0.106311 0.0056567 0)
(0.105972 0.00564333 0)
(0.105621 0.00562167 0)
(0.105256 0.00559172 0)
(0.10488 0.00555352 0)
(0.104492 0.00550713 0)
(0.104094 0.00545265 0)
(0.103685 0.00539022 0)
(0.103268 0.00532002 0)
(0.102842 0.00524224 0)
(0.102409 0.00515713 0)
(0.101969 0.00506497 0)
(0.101524 0.00496606 0)
(0.101074 0.00486075 0)
(0.100621 0.0047494 0)
(0.100165 0.0046324 0)
(0.0997077 0.00451016 0)
(0.09925 0.00438312 0)
(0.0987929 0.00425172 0)
(0.0983374 0.00411643 0)
(0.0978843 0.0039777 0)
(0.0974346 0.00383602 0)
(0.0969892 0.00369186 0)
(0.096549 0.00354568 0)
(0.0961147 0.00339796 0)
(0.0956871 0.00324915 0)
(0.0952669 0.00309971 0)
(0.0948547 0.00295006 0)
(0.0944511 0.00280062 0)
(0.0940567 0.0026518 0)
(0.0936718 0.00250398 0)
(0.0932969 0.00235751 0)
(0.0929323 0.00221274 0)
(0.0925784 0.00206999 0)
(0.0922352 0.00192955 0)
(0.0919031 0.00179169 0)
(0.091582 0.00165667 0)
(0.0912721 0.00152469 0)
(0.0909734 0.00139598 0)
(0.0906857 0.0012707 0)
(0.0904091 0.00114902 0)
(0.0901434 0.00103106 0)
(0.0898884 0.000916956 0)
(0.089644 0.000806789 0)
(0.0894098 0.000700639 0)
(0.0891858 0.000598565 0)
(0.0889715 0.000500608 0)
(0.0887667 0.000406794 0)
(0.088571 0.000317133 0)
(0.0883842 0.000231622 0)
(0.0882059 0.000150241 0)
(0.0880357 7.29624e-05 0)
(0.0878733 -2.5525e-07 0)
(0.0877183 -6.94651e-05 0)
(0.0875704 -0.000134726 0)
(0.0874292 -0.000196113 0)
(0.0872943 -0.000253696 0)
(0.0871654 -0.000307574 0)
(0.0870421 -0.00035782 0)
(0.0869242 -0.000404563 0)
(0.0868111 -0.000447859 0)
(0.0867029 -0.000487886 0)