/*--------------------------------*- C++ -*----------------------------------*\
| =========                 |                                                 |
| \\      /  F ield         | OpenFOAM: The Open Source CFD Toolbox           |
|  \\    /   O peration     | Version:  4.1                                   |
|   \\  /    A nd           | Web:      www.OpenFOAM.org                      |
|    \\/     M anipulation  |                                                 |
\*---------------------------------------------------------------------------*/
FoamFile
{
    version     2.0;
    format      ascii;
    class       volVectorField;
    location    "0.0099";
    object      U;
}
// * * * * * * * * * * * * * * * * * * * * * * * * * * * * * * * * * * * * * //

dimensions      [0 1 -1 0 0 0 0];

internalField   nonuniform List<vector> 
441
(
(-0.000136344 0.000128124 0)
(-0.000596998 0.000300429 0)
(-0.00116461 0.000417358 0)
(-0.00177138 0.000463584 0)
(-0.00236372 0.000457063 0)
(-0.00290549 0.000415763 0)
(-0.00337314 0.000352401 0)
(-0.00375118 0.000275047 0)
(-0.00402926 0.000188794 0)
(-0.00420049 9.70983e-05 0)
(-0.00426075 2.62847e-06 0)
(-0.00420837 -9.2238e-05 0)
(-0.00404409 -0.000185078 0)
(-0.00377124 -0.000273087 0)
(-0.00339608 -0.000352581 0)
(-0.00292867 -0.000418152 0)
(-0.00238456 -0.000461339 0)
(-0.00178782 -0.000469003 0)
(-0.00117552 -0.000422789 0)
(-0.000602401 -0.000304529 0)
(-0.00013744 -0.00012982 0)
(-0.000334165 0.000579936 0)
(-0.00143772 0.00133849 0)
(-0.00276383 0.00176844 0)
(-0.00415958 0.00191751 0)
(-0.00550924 0.00186755 0)
(-0.00673627 0.00168765 0)
(-0.00779108 0.00142517 0)
(-0.00864129 0.00111 0)
(-0.00926525 0.000761021 0)
(-0.00964864 0.000391212 0)
(-0.00978288 1.07246e-05 0)
(-0.00966454 -0.000371305 0)
(-0.00929525 -0.000745565 0)
(-0.00868193 -0.00110138 0)
(-0.0078377 -0.00142491 0)
(-0.00678355 -0.00169604 0)
(-0.00555198 -0.00188342 0)
(-0.00419352 -0.00193805 0)
(-0.00278648 -0.00178941 0)
(-0.00144899 -0.00135478 0)
(-0.000336352 -0.000586709 0)
(-0.000494299 0.00117117 0)
(-0.00203514 0.00266343 0)
(-0.00385391 0.00346174 0)
(-0.00575136 0.00371858 0)
(-0.0075774 0.00360223 0)
(-0.00923266 0.00324465 0)
(-0.0106526 0.00273436 0)
(-0.0117953 0.00212674 0)
(-0.0126328 0.00145673 0)
(-0.013147 0.000748278 0)
(-0.0133269 2.00989e-05 0)
(-0.0131683 -0.000710971 0)
(-0.0126732 -0.00142778 0)
(-0.0118501 -0.00211065 0)
(-0.0107157 -0.002734 0)
(-0.00929683 -0.00326066 0)
(-0.00763564 -0.00363243 0)
(-0.00579784 -0.00375774 0)
(-0.00388517 -0.00350182 0)
(-0.00205089 -0.00269465 0)
(-0.000497535 -0.0011841 0)
(-0.000613163 0.00186631 0)
(-0.00247301 0.00419848 0)
(-0.00464434 0.00540748 0)
(-0.0068963 0.00577633 0)
(-0.009055 0.00557607 0)
(-0.011006 0.00501094 0)
(-0.0126755 0.00421605 0)
(-0.0140164 0.00327543 0)
(-0.0149979 0.00224182 0)
(-0.0156003 0.00115112 0)
(-0.015812 3.11279e-05 0)
(-0.0156282 -0.00109336 0)
(-0.0150506 -0.00219704 0)
(-0.0140881 -0.00325067 0)
(-0.0127583 -0.00421591 0)
(-0.0110906 -0.00503649 0)
(-0.0091322 -0.00562401 0)
(-0.00695827 -0.00583849 0)
(-0.00468631 -0.00547116 0)
(-0.00249439 -0.00424812 0)
(-0.000617718 -0.00188679 0)
(-0.000713071 0.00265013 0)
(-0.00284745 0.00591432 0)
(-0.00532225 0.00757306 0)
(-0.00787746 0.00805793 0)
(-0.0103173 0.00775706 0)
(-0.0125145 0.00695651 0)
(-0.0143886 0.00584373 0)
(-0.0158897 0.00453467 0)
(-0.0169867 0.00310152 0)
(-0.0176601 0.0015927 0)
(-0.0178987 4.49808e-05 0)
(-0.0176976 -0.00150919 0)
(-0.0170577 -0.00303672 0)
(-0.0159867 -0.00449883 0)
(-0.0145011 -0.00584364 0)
(-0.0126301 -0.006994 0)
(-0.0104235 -0.00782755 0)
(-0.00796339 -0.00814959 0)
(-0.00538096 -0.00766722 0)
(-0.00287773 -0.00598784 0)
(-0.000719712 -0.00268045 0)
(-0.000814009 0.0035267 0)
(-0.00323384 0.00782194 0)
(-0.00602531 0.0099727 0)
(-0.00889481 0.0105769 0)
(-0.011622 0.0101555 0)
(-0.0140664 0.00908771 0)
(-0.0161421 0.00762037 0)
(-0.0177985 0.00590536 0)
(-0.0190061 0.00403608 0)
(-0.0197477 0.0020737 0)
(-0.0200137 6.33868e-05 0)
(-0.0197993 -0.00195588 0)
(-0.0191042 -0.00394428 0)
(-0.0179331 -0.00585404 0)
(-0.0162991 -0.00761939 0)
(-0.0142291 -0.00914013 0)
(-0.0117727 -0.0102554 0)
(-0.0090178 -0.0107078 0)
(-0.00611024 -0.0101079 0)
(-0.00327822 -0.007928 0)
(-0.00082398 -0.00357066 0)
(-0.000930679 0.00451416 0)
(-0.00368624 0.00995999 0)
(-0.00684935 0.0126518 0)
(-0.0100836 0.0133764 0)
(-0.0131387 0.0128073 0)
(-0.0158593 0.0114313 0)
(-0.0181552 0.00956449 0)
(-0.0199777 0.00739951 0)
(-0.0213019 0.00505294 0)
(-0.0221155 0.00259858 0)
(-0.022412 8.85525e-05 0)
(-0.0221872 -0.00243364 0)
(-0.0214386 -0.00492348 0)
(-0.0201662 -0.00732563 0)
(-0.0183767 -0.00956041 0)
(-0.0160907 -0.0115022 0)
(-0.0133551 -0.0129458 0)
(-0.0102622 -0.0135603 0)
(-0.00697409 -0.0128437 0)
(-0.00375227 -0.0101118 0)
(-0.000945806 -0.00457771 0)
(-0.00107446 0.00564142 0)
(-0.00424656 0.0123873 0)
(-0.0078668 0.0156777 0)
(-0.0115424 0.0165181 0)
(-0.0149856 0.0157618 0)
(-0.0180246 0.0140234 0)
(-0.0205672 0.0117 0)
(-0.0225708 0.00903197 0)
(-0.0240196 0.00616093 0)
(-0.0249098 0.00317253 0)
(-0.0252405 0.000123263 0)
(-0.0250089 -0.00294227 0)
(-0.0242093 -0.00597832 0)
(-0.0228341 -0.00892467 0)
(-0.0208793 -0.0116885 0)
(-0.0183539 -0.0141165 0)
(-0.0152972 -0.0159514 0)
(-0.0118027 -0.0167745 0)
(-0.00805096 -0.0159489 0)
(-0.00434531 -0.0126044 0)
(-0.00109744 -0.00573363 0)
(-0.0012559 0.00694758 0)
(-0.0049542 0.015181 0)
(-0.00914382 0.019135 0)
(-0.0133569 0.0200763 0)
(-0.0172589 0.0190751 0)
(-0.0206611 0.0169007 0)
(-0.0234741 0.0140483 0)
(-0.0256685 0.0108137 0)
(-0.0272446 0.0073655 0)
(-0.0282125 0.00379911 0)
(-0.0285803 0.000171047 0)
(-0.028348 -0.00347838 0)
(-0.0275053 -0.00710774 0)
(-0.0260332 -0.0106566 0)
(-0.0239107 -0.0140214 0)
(-0.0211276 -0.0170189 0)
(-0.0177063 -0.0193308 0)
(-0.0137362 -0.0204315 0)
(-0.00941604 -0.0195177 0)
(-0.00510218 -0.0154921 0)
(-0.0012908 -0.0070821 0)
(-0.00148633 0.00848389 0)
(-0.00585253 0.0184385 0)
(-0.0107508 0.023126 0)
(-0.0156126 0.0241341 0)
(-0.0200461 0.0228023 0)
(-0.0238482 0.0200926 0)
(-0.0269417 0.0166201 0)
(-0.0293217 0.0127449 0)
(-0.0310148 0.0086638 0)
(-0.0320529 0.00447769 0)
(-0.0324583 0.000236286 0)
(-0.0322353 -0.00403258 0)
(-0.0313674 -0.00830024 0)
(-0.0298197 -0.0125136 0)
(-0.0275453 -0.0165635 0)
(-0.0245028 -0.0202361 0)
(-0.0206846 -0.0231418 0)
(-0.0161634 -0.0246226 0)
(-0.0111528 -0.0236653 0)
(-0.00607441 -0.0188856 0)
(-0.0015393 -0.00868128 0)
(-0.00177787 0.0103177 0)
(-0.00698921 0.0222829 0)
(-0.0127608 0.0277711 0)
(-0.0183891 0.0287782 0)
(-0.0234151 0.0269895 0)
(-0.0276297 0.0236108 0)
(-0.0309847 0.019405 0)
(-0.033517 0.0148066 0)
(-0.0352944 0.0100387 0)
(-0.036381 0.00520037 0)
(-0.0368192 0.000324088 0)
(-0.0366202 -0.00458646 0)
(-0.0357603 -0.00952754 0)
(-0.0341824 -0.0144653 0)
(-0.0318035 -0.019294 0)
(-0.028534 -0.0237726 0)
(-0.0243151 -0.0274297 0)
(-0.0191822 -0.029443 0)
(-0.0133516 -0.0285286 0)
(-0.00732102 -0.0229269 0)
(-0.00185802 -0.010609 0)
(-0.00213959 0.0125375 0)
(-0.00840329 0.0268678 0)
(-0.0152239 0.0332053 0)
(-0.021719 0.0340875 0)
(-0.0273575 0.031656 0)
(-0.0319446 0.027431 0)
(-0.0354885 0.0223561 0)
(-0.0380932 0.0169481 0)
(-0.0398862 0.0114504 0)
(-0.0409763 0.00594733 0)
(-0.0414333 0.00043953 0)
(-0.0412783 -0.0051093 0)
(-0.0404795 -0.0107369 0)
(-0.0389521 -0.0164457 0)
(-0.0365651 -0.0221496 0)
(-0.0331603 -0.0275897 0)
(-0.0285978 -0.0322068 0)
(-0.0228406 -0.0349765 0)
(-0.0160806 -0.0342613 0)
(-0.00889475 -0.0277947 0)
(-0.00225982 -0.0129688 0)
(-0.00256593 0.0152553 0)
(-0.0100832 0.0323724 0)
(-0.0180887 0.0395583 0)
(-0.0254725 0.0401015 0)
(-0.0316431 0.0367606 0)
(-0.0364593 0.0314621 0)
(-0.0400271 0.0253651 0)
(-0.0425502 0.0190696 0)
(-0.0442363 0.0128245 0)
(-0.0452509 0.00668037 0)
(-0.0456974 0.000585656 0)
(-0.0456096 -0.00555538 0)
(-0.0449483 -0.0118426 0)
(-0.0435986 -0.0183376 0)
(-0.0413715 -0.0249988 0)
(-0.0380195 -0.0315711 0)
(-0.0332848 -0.0374114 0)
(-0.0270061 -0.0412568 0)
(-0.0192976 -0.0410082 0)
(-0.0107955 -0.0336985 0)
(-0.00274283 -0.0158939 0)
(-0.00300895 0.0185992 0)
(-0.0118663 0.0389703 0)
(-0.0210231 0.0468966 0)
(-0.0291081 0.0467513 0)
(-0.0355177 0.0421368 0)
(-0.0402323 0.0354942 0)
(-0.0435108 0.0282251 0)
(-0.0456893 0.0209976 0)
(-0.0470718 0.0140378 0)
(-0.0478854 0.00733424 0)
(-0.0482687 0.000759454 0)
(-0.0482698 -0.00586318 0)
(-0.0478454 -0.012718 0)
(-0.0468543 -0.0199536 0)
(-0.0450498 -0.0276076 0)
(-0.0420835 -0.0354677 0)
(-0.0375455 -0.0428335 0)
(-0.0310846 -0.0481829 0)
(-0.0226477 -0.0488315 0)
(-0.0128589 -0.0408373 0)
(-0.00326065 -0.0195383 0)
(-0.00332191 0.0226786 0)
(-0.0132342 0.0467329 0)
(-0.0230641 0.0550867 0)
(-0.0312095 0.0537212 0)
(-0.0371712 0.0473796 0)
(-0.0411503 0.0391206 0)
(-0.0436127 0.0305826 0)
(-0.0450429 0.0224575 0)
(-0.0458362 0.0149023 0)
(-0.0462696 0.00780753 0)
(-0.0465071 0.000945559 0)
(-0.046609 -0.00595921 0)
(-0.0465347 -0.0131943 0)
(-0.0461324 -0.0210218 0)
(-0.0451194 -0.0296012 0)
(-0.0430629 -0.0388224 0)
(-0.039394 -0.0479931 0)
(-0.033514 -0.0553576 0)
(-0.0250769 -0.0575428 0)
(-0.0145319 -0.0492798 0)
(-0.00366224 -0.0240364 0)
(-0.00315349 0.0274928 0)
(-0.0129409 0.0554119 0)
(-0.0220262 0.0635276 0)
(-0.0287627 0.0602151 0)
(-0.0329665 0.0516831 0)
(-0.0351614 0.0416423 0)
(-0.0360301 0.0318907 0)
(-0.0361682 0.0230554 0)
(-0.0360116 0.0151593 0)
(-0.0358441 0.00795873 0)
(-0.0358267 0.00110941 0)
(-0.0360221 -0.00576878 0)
(-0.0364026 -0.0130712 0)
(-0.036839 -0.0211886 0)
(-0.0370672 -0.0304402 0)
(-0.0366416 -0.0408936 0)
(-0.0348992 -0.0519803 0)
(-0.0310036 -0.0618319 0)
(-0.0241985 -0.0663895 0)
(-0.0144753 -0.0586995 0)
(-0.0035818 -0.0293985 0)
(-0.00174277 0.0327309 0)
(-0.00836604 0.0640156 0)
(-0.0136083 0.0707094 0)
(-0.0162237 0.0646375 0)
(-0.016592 0.0536679 0)
(-0.0155528 0.0420048 0)
(-0.0138809 0.0314065 0)
(-0.0121362 0.0222987 0)
(-0.0106733 0.0145025 0)
(-0.00969694 0.00761945 0)
(-0.00931473 0.0011953 0)
(-0.00957223 -0.0052353 0)
(-0.0104666 -0.0121533 0)
(-0.011938 -0.0200632 0)
(-0.0138338 -0.0294545 0)
(-0.0158431 -0.0406371 0)
(-0.0174037 -0.0533239 0)
(-0.017628 -0.0657971 0)
(-0.0153876 -0.0735752 0)
(-0.00989647 -0.0678841 0)
(-0.00223037 -0.0352855 0)
(0.00256804 0.0374161 0)
(0.00570261 0.070163 0)
(0.00988701 0.0736902 0)
(0.0154183 0.0643558 0)
(0.021438 0.0513688 0)
(0.0271762 0.0388968 0)
(0.0321583 0.0283178 0)
(0.036156 0.0197088 0)
(0.0390909 0.0126594 0)
(0.0409532 0.00664176 0)
(0.0417507 0.00113828 0)
(0.0414799 -0.00434639 0)
(0.0401121 -0.0103187 0)
(0.037592 -0.0173351 0)
(0.0338538 -0.0260046 0)
(0.028869 -0.0368797 0)
(0.0227514 -0.050089 0)
(0.0159412 -0.0644566 0)
(0.00942375 -0.0757789 0)
(0.00465887 -0.0740338 0)
(0.00209823 -0.0406097 0)
(0.0141617 0.0389671 0)
(0.0398527 0.0688456 0)
(0.0614792 0.0676219 0)
(0.0792256 0.0558726 0)
(0.0932887 0.0426697 0)
(0.104123 0.0311934 0)
(0.11226 0.0220955 0)
(0.118179 0.0150689 0)
(0.122264 0.00955147 0)
(0.124784 0.00498914 0)
(0.1259 0.000897783 0)
(0.125664 -0.00315808 0)
(0.124023 -0.00761658 0)
(0.120795 -0.0129746 0)
(0.115647 -0.0198259 0)
(0.108058 -0.0288297 0)
(0.0973141 -0.0404912 0)
(0.082607 -0.0544844 0)
(0.0633841 -0.0679678 0)
(0.0399801 -0.0716289 0)
(0.0138667 -0.0425738 0)
(0.0484779 0.0329299 0)
(0.117618 0.0529999 0)
(0.162921 0.0474973 0)
(0.192195 0.0368001 0)
(0.211768 0.0268853 0)
(0.225075 0.0190301 0)
(0.234205 0.0131602 0)
(0.240434 0.00881754 0)
(0.244553 0.0055188 0)
(0.247038 0.00285764 0)
(0.248149 0.000507577 0)
(0.247979 -0.00181047 0)
(0.246469 -0.00437111 0)
(0.243382 -0.00748893 0)
(0.238228 -0.0115581 0)
(0.230127 -0.0170701 0)
(0.217564 -0.024563 0)
(0.197996 -0.0343677 0)
(0.167386 -0.0457697 0)
(0.119275 -0.0534899 0)
(0.048537 -0.0362196 0)
(0.182582 0.00425848 0)
(0.295227 0.00680696 0)
(0.347104 0.0093769 0)
(0.371803 0.00858839 0)
(0.385631 0.00667716 0)
(0.393975 0.00484015 0)
(0.399282 0.00337244 0)
(0.402723 0.00225988 0)
(0.404924 0.00140798 0)
(0.406223 0.000719772 0)
(0.406797 0.000112681 0)
(0.40671 -0.000484362 0)
(0.405931 -0.00113899 0)
(0.404318 -0.00192242 0)
(0.401563 -0.00290932 0)
(0.397046 -0.00415747 0)
(0.389515 -0.00563462 0)
(0.376226 -0.00703789 0)
(0.35102 -0.0074201 0)
(0.296516 -0.00563091 0)
(0.180865 -0.0069033 0)
)
;

boundaryField
{
    movingWall
    {
        type            fixedValue;
        value           uniform (0.5 0 0);
    }
    fixedWalls
    {
        type            noSlip;
    }
    frontAndBack
    {
        type            empty;
    }
}


// ************************************************************************* //
