/*--------------------------------*- C++ -*----------------------------------*\
| =========                 |                                                 |
| \\      /  F ield         | OpenFOAM: The Open Source CFD Toolbox           |
|  \\    /   O peration     | Version:  4.1                                   |
|   \\  /    A nd           | Web:      www.OpenFOAM.org                      |
|    \\/     M anipulation  |                                                 |
\*---------------------------------------------------------------------------*/
FoamFile
{
    version     2.0;
    format      ascii;
    class       volScalarField;
    location    "193";
    object      p;
}
// * * * * * * * * * * * * * * * * * * * * * * * * * * * * * * * * * * * * * //

dimensions      [1 -1 -2 0 0 0 0];

internalField   nonuniform List<scalar> 
3264
(
0.712587
0.712585
0.712584
0.712583
0.712582
0.712582
0.712582
0.712582
0.712582
0.712583
0.712584
0.712585
0.712587
0.71259
0.712594
0.712599
0.712605
0.712613
0.712624
0.712637
0.712654
0.712674
0.712699
0.712728
0.712763
0.712803
0.712849
0.712902
0.71296
0.713025
0.713096
0.713173
0.713256
0.713343
0.713434
0.713529
0.713627
0.713725
0.713825
0.713923
0.71402
0.714114
0.714204
0.714289
0.714369
0.714442
0.714508
0.714567
0.714618
0.714662
0.714698
0.714727
0.714749
0.714766
0.714777
0.714783
0.714786
0.714786
0.714783
0.714779
0.714774
0.714768
0.714763
0.714757
0.714753
0.714748
0.714744
0.714741
0.714737
0.714734
0.714731
0.714729
0.714726
0.714723
0.714721
0.714719
0.714717
0.714716
0.714716
0.714717
0.714719
0.714723
0.714729
0.714737
0.714748
0.714761
0.714778
0.714797
0.714819
0.714843
0.71487
0.714898
0.714929
0.71496
0.714991
0.715023
0.715054
0.715085
0.715113
0.715139
0.715163
0.715184
0.715202
0.715217
0.715228
0.715235
0.715239
0.71524
0.715238
0.715234
0.715227
0.715218
0.715208
0.715196
0.715184
0.715171
0.715158
0.715145
0.715132
0.71512
0.715107
0.715095
0.715083
0.715072
0.715061
0.715051
0.71504
0.71503
0.71502
0.71501
0.715
0.71499
0.71498
0.71497
0.71496
0.71495
0.71494
0.71493
0.71492
0.71491
0.714899
0.714889
0.714879
0.714869
0.714858
0.714848
0.714838
0.714827
0.714817
0.714807
0.714796
0.714786
0.714776
0.714765
0.714755
0.714745
0.714734
0.714724
0.714714
0.714704
0.714693
0.714683
0.714673
0.714662
0.714652
0.714642
0.714631
0.714621
0.714611
0.7146
0.71459
0.71458
0.71457
0.714559
0.714549
0.714539
0.714528
0.714518
0.714508
0.714497
0.714487
0.714477
0.714466
0.714456
0.714446
0.714435
0.714425
0.714415
0.714405
0.714394
0.714384
0.714374
0.714363
0.714353
0.714343
0.714332
0.714322
0.714312
0.714301
0.714291
0.712588
0.712587
0.712586
0.712586
0.712585
0.712585
0.712585
0.712585
0.712585
0.712586
0.712587
0.712589
0.712591
0.712594
0.712598
0.712603
0.712609
0.712617
0.712627
0.712639
0.712655
0.712675
0.712698
0.712727
0.71276
0.712799
0.712844
0.712896
0.712953
0.713018
0.713088
0.713164
0.713246
0.713333
0.713424
0.713518
0.713615
0.713714
0.713813
0.713911
0.714008
0.714102
0.714192
0.714278
0.714357
0.714431
0.714497
0.714557
0.714608
0.714652
0.714689
0.714719
0.714742
0.714759
0.714771
0.714778
0.714782
0.714783
0.714781
0.714779
0.714775
0.71477
0.714766
0.714761
0.714757
0.714753
0.714749
0.714745
0.714741
0.714738
0.714735
0.714732
0.71473
0.714727
0.714724
0.714722
0.71472
0.714718
0.714717
0.714717
0.714719
0.714722
0.714728
0.714735
0.714746
0.714759
0.714775
0.714793
0.714815
0.714839
0.714865
0.714894
0.714924
0.714955
0.714987
0.715019
0.71505
0.715081
0.71511
0.715137
0.715161
0.715182
0.715201
0.715216
0.715227
0.715235
0.71524
0.715241
0.715239
0.715235
0.715228
0.715219
0.715208
0.715197
0.715185
0.715172
0.715159
0.715145
0.715132
0.71512
0.715107
0.715095
0.715083
0.715072
0.715061
0.71505
0.71504
0.71503
0.71502
0.71501
0.715
0.71499
0.71498
0.71497
0.71496
0.71495
0.71494
0.71493
0.71492
0.71491
0.714899
0.714889
0.714879
0.714869
0.714858
0.714848
0.714838
0.714827
0.714817
0.714807
0.714796
0.714786
0.714776
0.714765
0.714755
0.714745
0.714734
0.714724
0.714714
0.714704
0.714693
0.714683
0.714673
0.714662
0.714652
0.714642
0.714631
0.714621
0.714611
0.7146
0.71459
0.71458
0.71457
0.714559
0.714549
0.714539
0.714528
0.714518
0.714508
0.714497
0.714487
0.714477
0.714466
0.714456
0.714446
0.714435
0.714425
0.714415
0.714405
0.714394
0.714384
0.714374
0.714363
0.714353
0.714343
0.714332
0.714322
0.714312
0.714301
0.714291
0.71259
0.712588
0.712587
0.712586
0.712585
0.712585
0.712585
0.712585
0.712585
0.712586
0.712587
0.712589
0.712591
0.712593
0.712597
0.712601
0.712607
0.712614
0.712623
0.712635
0.71265
0.712669
0.712691
0.712719
0.712752
0.71279
0.712835
0.712885
0.712943
0.713006
0.713076
0.713152
0.713234
0.71332
0.713411
0.713505
0.713602
0.713701
0.7138
0.713898
0.713995
0.714088
0.714178
0.714263
0.714343
0.714416
0.714482
0.714541
0.714593
0.714637
0.714674
0.714703
0.714726
0.714743
0.714755
0.714763
0.714767
0.714768
0.714768
0.714765
0.714763
0.71476
0.714757
0.714754
0.714751
0.714749
0.714746
0.714744
0.714742
0.714739
0.714737
0.714734
0.714731
0.714728
0.714725
0.714722
0.71472
0.714718
0.714717
0.714717
0.714719
0.714721
0.714726
0.714734
0.714743
0.714756
0.714772
0.71479
0.714812
0.714836
0.714862
0.71489
0.714921
0.714952
0.714984
0.715016
0.715048
0.715078
0.715108
0.715135
0.71516
0.715181
0.7152
0.715215
0.715227
0.715235
0.71524
0.715241
0.71524
0.715235
0.715228
0.715219
0.715209
0.715197
0.715185
0.715172
0.715159
0.715145
0.715132
0.715119
0.715107
0.715095
0.715083
0.715072
0.715061
0.71505
0.71504
0.71503
0.71502
0.71501
0.715
0.71499
0.71498
0.71497
0.71496
0.71495
0.71494
0.71493
0.71492
0.71491
0.714899
0.714889
0.714879
0.714869
0.714858
0.714848
0.714838
0.714827
0.714817
0.714807
0.714796
0.714786
0.714776
0.714765
0.714755
0.714745
0.714734
0.714724
0.714714
0.714704
0.714693
0.714683
0.714673
0.714662
0.714652
0.714642
0.714631
0.714621
0.714611
0.7146
0.71459
0.71458
0.71457
0.714559
0.714549
0.714539
0.714528
0.714518
0.714508
0.714497
0.714487
0.714477
0.714466
0.714456
0.714446
0.714435
0.714425
0.714415
0.714405
0.714394
0.714384
0.714374
0.714363
0.714353
0.714343
0.714332
0.714322
0.714312
0.714301
0.714291
0.712585
0.712584
0.712583
0.712584
0.712583
0.712583
0.712583
0.712584
0.712584
0.712585
0.712586
0.712588
0.71259
0.712592
0.712595
0.712599
0.712604
0.71261
0.712619
0.71263
0.712644
0.712661
0.712683
0.71271
0.712742
0.712779
0.712823
0.712873
0.71293
0.712993
0.713062
0.713138
0.713218
0.713304
0.713395
0.713488
0.713584
0.713682
0.71378
0.713877
0.713972
0.714064
0.714153
0.714236
0.714314
0.714386
0.71445
0.714507
0.714557
0.714599
0.714634
0.714662
0.714684
0.7147
0.714712
0.714719
0.714723
0.714725
0.714726
0.714725
0.714724
0.714724
0.714723
0.714724
0.714724
0.714726
0.714727
0.714729
0.714731
0.714732
0.714733
0.714733
0.714732
0.71473
0.714728
0.714726
0.714723
0.714721
0.714719
0.714719
0.71472
0.714722
0.714727
0.714734
0.714743
0.714756
0.714771
0.714789
0.71481
0.714833
0.71486
0.714888
0.714918
0.714949
0.71498
0.715012
0.715044
0.715075
0.715104
0.715131
0.715156
0.715178
0.715197
0.715212
0.715224
0.715233
0.715238
0.715239
0.715237
0.715233
0.715227
0.715218
0.715208
0.715196
0.715184
0.715171
0.715158
0.715145
0.715132
0.715119
0.715107
0.715095
0.715083
0.715072
0.715061
0.71505
0.71504
0.71503
0.71502
0.71501
0.715
0.71499
0.71498
0.71497
0.71496
0.71495
0.71494
0.71493
0.71492
0.71491
0.714899
0.714889
0.714879
0.714869
0.714858
0.714848
0.714838
0.714827
0.714817
0.714807
0.714796
0.714786
0.714776
0.714765
0.714755
0.714745
0.714734
0.714724
0.714714
0.714704
0.714693
0.714683
0.714673
0.714662
0.714652
0.714642
0.714631
0.714621
0.714611
0.7146
0.71459
0.71458
0.71457
0.714559
0.714549
0.714539
0.714528
0.714518
0.714508
0.714497
0.714487
0.714477
0.714466
0.714456
0.714446
0.714435
0.714425
0.714415
0.714405
0.714394
0.714384
0.714374
0.714363
0.714353
0.714343
0.714332
0.714322
0.714312
0.714301
0.714291
0.712583
0.712583
0.71258
0.71258
0.712579
0.712579
0.712579
0.71258
0.712581
0.712582
0.712583
0.712585
0.712587
0.712589
0.712592
0.712595
0.7126
0.712606
0.712614
0.712624
0.712638
0.712655
0.712676
0.712703
0.712734
0.712771
0.712815
0.712864
0.712921
0.712983
0.713052
0.713127
0.713207
0.713292
0.713381
0.713473
0.713568
0.713663
0.713759
0.713854
0.713946
0.714035
0.71412
0.7142
0.714274
0.714341
0.714402
0.714455
0.7145
0.714538
0.714569
0.714593
0.714612
0.714625
0.714634
0.71464
0.714643
0.714645
0.714646
0.714647
0.714648
0.714651
0.714654
0.714659
0.714665
0.714672
0.71468
0.714688
0.714696
0.714704
0.714711
0.714717
0.714722
0.714726
0.714728
0.714729
0.714729
0.714729
0.714728
0.714728
0.714729
0.714731
0.714735
0.714741
0.71475
0.714762
0.714776
0.714794
0.714814
0.714837
0.714863
0.71489
0.714919
0.71495
0.714981
0.715012
0.715043
0.715073
0.715101
0.715128
0.715152
0.715174
0.715192
0.715207
0.715219
0.715227
0.715232
0.715234
0.715232
0.715228
0.715222
0.715214
0.715204
0.715193
0.715181
0.715169
0.715156
0.715144
0.715131
0.715119
0.715107
0.715095
0.715083
0.715072
0.715061
0.715051
0.715041
0.71503
0.71502
0.71501
0.715
0.71499
0.71498
0.71497
0.71496
0.71495
0.71494
0.71493
0.71492
0.71491
0.714899
0.714889
0.714879
0.714869
0.714858
0.714848
0.714838
0.714827
0.714817
0.714807
0.714796
0.714786
0.714776
0.714765
0.714755
0.714745
0.714734
0.714724
0.714714
0.714704
0.714693
0.714683
0.714673
0.714662
0.714652
0.714642
0.714631
0.714621
0.714611
0.7146
0.71459
0.71458
0.71457
0.714559
0.714549
0.714539
0.714528
0.714518
0.714508
0.714497
0.714487
0.714477
0.714466
0.714456
0.714446
0.714435
0.714425
0.714415
0.714405
0.714394
0.714384
0.714374
0.714363
0.714353
0.714343
0.714332
0.714322
0.714312
0.714301
0.714291
0.712551
0.712566
0.712565
0.712572
0.712573
0.712575
0.712576
0.712578
0.712579
0.712581
0.712583
0.712585
0.712587
0.712589
0.712591
0.712595
0.712599
0.712605
0.712613
0.712623
0.712636
0.712653
0.712674
0.712701
0.712732
0.712769
0.712813
0.712862
0.712918
0.712981
0.713049
0.713123
0.713202
0.713286
0.713373
0.713463
0.713554
0.713647
0.713739
0.713829
0.713917
0.714001
0.71408
0.714154
0.714222
0.714282
0.714336
0.714382
0.71442
0.714452
0.714476
0.714495
0.714509
0.714518
0.714524
0.714527
0.714529
0.71453
0.714532
0.714535
0.714539
0.714545
0.714553
0.714563
0.714575
0.714589
0.714604
0.71462
0.714637
0.714654
0.71467
0.714685
0.714699
0.714712
0.714722
0.71473
0.714736
0.714741
0.714744
0.714747
0.714749
0.714753
0.714757
0.714763
0.714771
0.714782
0.714795
0.714811
0.71483
0.714852
0.714876
0.714902
0.714929
0.714958
0.714987
0.715017
0.715046
0.715074
0.715101
0.715126
0.715149
0.715169
0.715187
0.715201
0.715212
0.715219
0.715224
0.715225
0.715224
0.71522
0.715214
0.715207
0.715198
0.715188
0.715177
0.715165
0.715154
0.715142
0.71513
0.715118
0.715106
0.715095
0.715084
0.715073
0.715062
0.715052
0.715041
0.715031
0.715021
0.715011
0.715001
0.714991
0.714981
0.714971
0.714961
0.71495
0.71494
0.71493
0.71492
0.71491
0.714899
0.714889
0.714879
0.714869
0.714858
0.714848
0.714838
0.714827
0.714817
0.714807
0.714796
0.714786
0.714776
0.714765
0.714755
0.714745
0.714734
0.714724
0.714714
0.714704
0.714693
0.714683
0.714673
0.714662
0.714652
0.714642
0.714631
0.714621
0.714611
0.7146
0.71459
0.71458
0.71457
0.714559
0.714549
0.714539
0.714528
0.714518
0.714508
0.714497
0.714487
0.714477
0.714466
0.714456
0.714446
0.714435
0.714425
0.714415
0.714405
0.714394
0.714384
0.714374
0.714363
0.714353
0.714343
0.714332
0.714322
0.714312
0.714301
0.714291
0.71255
0.712567
0.712565
0.712569
0.71257
0.712572
0.712574
0.712576
0.712579
0.712581
0.712583
0.712585
0.712587
0.71259
0.712593
0.712596
0.712601
0.712607
0.712615
0.712626
0.71264
0.712658
0.71268
0.712707
0.712739
0.712777
0.712821
0.712871
0.712928
0.71299
0.713058
0.713131
0.713209
0.713291
0.713376
0.713463
0.713551
0.713638
0.713725
0.71381
0.713891
0.713967
0.714039
0.714104
0.714163
0.714214
0.714258
0.714295
0.714324
0.714347
0.714364
0.714376
0.714384
0.714389
0.714391
0.714392
0.714393
0.714395
0.714398
0.714403
0.71441
0.714421
0.714434
0.71445
0.714468
0.714489
0.714512
0.714537
0.714563
0.714589
0.714615
0.714641
0.714665
0.714688
0.714708
0.714726
0.714742
0.714755
0.714766
0.714774
0.714782
0.714789
0.714795
0.714802
0.714811
0.714821
0.714833
0.714848
0.714864
0.714883
0.714904
0.714927
0.714952
0.714977
0.715004
0.71503
0.715056
0.715081
0.715105
0.715128
0.715148
0.715166
0.715181
0.715194
0.715203
0.71521
0.715213
0.715214
0.715213
0.71521
0.715204
0.715198
0.71519
0.715181
0.715171
0.715161
0.71515
0.715139
0.715128
0.715117
0.715106
0.715095
0.715084
0.715074
0.715063
0.715053
0.715042
0.715032
0.715022
0.715012
0.715001
0.714991
0.714981
0.714971
0.714961
0.714951
0.71494
0.71493
0.71492
0.71491
0.714899
0.714889
0.714879
0.714869
0.714858
0.714848
0.714838
0.714827
0.714817
0.714807
0.714796
0.714786
0.714776
0.714765
0.714755
0.714745
0.714734
0.714724
0.714714
0.714704
0.714693
0.714683
0.714673
0.714662
0.714652
0.714642
0.714631
0.714621
0.714611
0.7146
0.71459
0.71458
0.71457
0.714559
0.714549
0.714539
0.714528
0.714518
0.714508
0.714497
0.714487
0.714477
0.714466
0.714456
0.714446
0.714435
0.714425
0.714415
0.714405
0.714394
0.714384
0.714374
0.714363
0.714353
0.714343
0.714332
0.714322
0.714312
0.714301
0.714291
0.712394
0.712533
0.712551
0.712573
0.712576
0.71258
0.712581
0.712583
0.712585
0.712586
0.712588
0.71259
0.712593
0.712596
0.712599
0.712603
0.712609
0.712616
0.712626
0.712638
0.712654
0.712674
0.712698
0.712727
0.712761
0.712801
0.712847
0.712898
0.712955
0.713018
0.713086
0.713159
0.713235
0.713315
0.713396
0.713479
0.713562
0.713644
0.713724
0.7138
0.713872
0.713939
0.714
0.714054
0.714101
0.714142
0.714174
0.714201
0.71422
0.714235
0.714244
0.71425
0.714253
0.714254
0.714255
0.714256
0.714258
0.714261
0.714267
0.714276
0.714287
0.714302
0.71432
0.714342
0.714367
0.714394
0.714425
0.714457
0.714491
0.714526
0.714561
0.714596
0.71463
0.714663
0.714694
0.714722
0.714748
0.71477
0.71479
0.714807
0.714822
0.714834
0.714846
0.714856
0.714867
0.714877
0.714889
0.714902
0.714916
0.714932
0.71495
0.714969
0.714989
0.71501
0.715032
0.715053
0.715075
0.715096
0.715115
0.715133
0.71515
0.715164
0.715177
0.715186
0.715194
0.715199
0.715202
0.715202
0.715201
0.715198
0.715193
0.715187
0.715181
0.715173
0.715164
0.715155
0.715146
0.715136
0.715126
0.715116
0.715105
0.715095
0.715085
0.715074
0.715064
0.715054
0.715043
0.715033
0.715023
0.715012
0.715002
0.714992
0.714982
0.714971
0.714961
0.714951
0.714941
0.71493
0.71492
0.71491
0.714899
0.714889
0.714879
0.714869
0.714858
0.714848
0.714838
0.714827
0.714817
0.714807
0.714796
0.714786
0.714776
0.714765
0.714755
0.714745
0.714734
0.714724
0.714714
0.714704
0.714693
0.714683
0.714673
0.714662
0.714652
0.714642
0.714631
0.714621
0.714611
0.7146
0.71459
0.71458
0.71457
0.714559
0.714549
0.714539
0.714528
0.714518
0.714508
0.714497
0.714487
0.714477
0.714466
0.714456
0.714446
0.714435
0.714425
0.714415
0.714405
0.714394
0.714384
0.714374
0.714363
0.714353
0.714343
0.714332
0.714322
0.714312
0.714301
0.714291
0.713132
0.713075
0.713013
0.712945
0.712872
0.712793
0.712705
0.712585
0.713138
0.713092
0.713029
0.712959
0.712886
0.712807
0.712716
0.712617
0.713143
0.713104
0.713046
0.71298
0.71291
0.712838
0.712767
0.712696
0.713154
0.713119
0.713067
0.713006
0.712941
0.712877
0.712813
0.712755
0.713167
0.713135
0.713086
0.713029
0.712971
0.712913
0.71286
0.712812
0.713182
0.713149
0.713101
0.713047
0.712993
0.712942
0.712895
0.712853
0.713197
0.71316
0.713111
0.713059
0.713008
0.712961
0.712917
0.712879
0.713206
0.713159
0.713109
0.713059
0.713011
0.712966
0.712924
0.712886
0.712521
0.71254
0.712561
0.712572
0.712579
0.712582
0.712585
0.712587
0.71259
0.712592
0.712595
0.712598
0.712602
0.712606
0.712612
0.712618
0.712626
0.712637
0.712649
0.712665
0.712684
0.712707
0.712735
0.712767
0.712805
0.712848
0.712897
0.712951
0.71301
0.713074
0.713142
0.713213
0.713288
0.713364
0.713442
0.713519
0.713595
0.713668
0.713738
0.713804
0.713865
0.71392
0.713968
0.714009
0.714044
0.714072
0.714093
0.71411
0.714121
0.714128
0.714133
0.714135
0.714137
0.714138
0.714139
0.714142
0.714147
0.714154
0.714163
0.714176
0.714192
0.714211
0.714233
0.71426
0.714289
0.714322
0.714357
0.714395
0.714435
0.714477
0.714519
0.714562
0.714604
0.714645
0.714685
0.714722
0.714757
0.714788
0.714817
0.714842
0.714865
0.714884
0.714901
0.714916
0.714929
0.714942
0.714954
0.714966
0.714979
0.714992
0.715006
0.71502
0.715036
0.715051
0.715067
0.715084
0.715099
0.715114
0.715129
0.715142
0.715154
0.715164
0.715173
0.715179
0.715184
0.715188
0.71519
0.71519
0.715188
0.715186
0.715182
0.715177
0.715172
0.715165
0.715158
0.71515
0.715142
0.715133
0.715124
0.715115
0.715105
0.715095
0.715085
0.715075
0.715065
0.715055
0.715044
0.715034
0.715024
0.715013
0.715003
0.714993
0.714982
0.714972
0.714961
0.714951
0.714941
0.71493
0.71492
0.71491
0.714899
0.714889
0.714879
0.714868
0.714858
0.714848
0.714838
0.714827
0.714817
0.714807
0.714796
0.714786
0.714776
0.714765
0.714755
0.714745
0.714734
0.714724
0.714714
0.714704
0.714693
0.714683
0.714673
0.714662
0.714652
0.714642
0.714631
0.714621
0.714611
0.7146
0.71459
0.71458
0.71457
0.714559
0.714549
0.714539
0.714528
0.714518
0.714508
0.714497
0.714487
0.714477
0.714466
0.714456
0.714446
0.714435
0.714425
0.714415
0.714405
0.714394
0.714384
0.714374
0.714363
0.714353
0.714343
0.714332
0.714322
0.714312
0.714301
0.714291
0.712544
0.712553
0.712566
0.712579
0.712587
0.712593
0.712597
0.712601
0.712604
0.712608
0.712612
0.712617
0.712623
0.71263
0.712638
0.712649
0.712661
0.712675
0.712692
0.712713
0.712737
0.712766
0.712799
0.712836
0.712879
0.712926
0.712978
0.713035
0.713096
0.71316
0.713228
0.713298
0.713369
0.71344
0.713511
0.71358
0.713647
0.713709
0.713767
0.71382
0.713867
0.713908
0.713942
0.71397
0.713993
0.71401
0.714023
0.714032
0.714039
0.714044
0.714048
0.714051
0.714055
0.714059
0.714064
0.71407
0.714078
0.714088
0.714101
0.714116
0.714134
0.714156
0.714182
0.71421
0.714243
0.714278
0.714317
0.714359
0.714402
0.714448
0.714495
0.714543
0.714591
0.714638
0.714684
0.714728
0.71477
0.714809
0.714845
0.714877
0.714906
0.714932
0.714954
0.714973
0.71499
0.715005
0.715018
0.71503
0.715042
0.715052
0.715063
0.715073
0.715084
0.715094
0.715104
0.715115
0.715124
0.715134
0.715142
0.71515
0.715157
0.715164
0.715169
0.715173
0.715175
0.715177
0.715178
0.715178
0.715177
0.715175
0.715172
0.715168
0.715163
0.715158
0.715152
0.715146
0.715138
0.715131
0.715122
0.715114
0.715105
0.715095
0.715086
0.715076
0.715066
0.715056
0.715045
0.715035
0.715025
0.715014
0.715004
0.714993
0.714983
0.714972
0.714962
0.714951
0.714941
0.71493
0.71492
0.71491
0.714899
0.714889
0.714879
0.714868
0.714858
0.714848
0.714837
0.714827
0.714817
0.714807
0.714796
0.714786
0.714776
0.714765
0.714755
0.714745
0.714734
0.714724
0.714714
0.714704
0.714693
0.714683
0.714673
0.714662
0.714652
0.714642
0.714631
0.714621
0.714611
0.7146
0.71459
0.71458
0.71457
0.714559
0.714549
0.714539
0.714528
0.714518
0.714508
0.714497
0.714487
0.714477
0.714466
0.714456
0.714446
0.714435
0.714425
0.714415
0.714405
0.714394
0.714384
0.714374
0.714363
0.714353
0.714343
0.714332
0.714322
0.714312
0.714301
0.714291
0.712643
0.712619
0.712613
0.712613
0.712616
0.712618
0.712621
0.712624
0.712628
0.712633
0.712639
0.712647
0.712655
0.712666
0.712679
0.712693
0.712711
0.712731
0.712754
0.712781
0.712812
0.712847
0.712886
0.71293
0.712978
0.71303
0.713086
0.713145
0.713207
0.713271
0.713336
0.713402
0.713467
0.713532
0.713594
0.713652
0.713706
0.713755
0.713799
0.713837
0.713869
0.713896
0.713918
0.713936
0.71395
0.713962
0.713973
0.713981
0.713989
0.713995
0.714002
0.714008
0.714014
0.714021
0.714029
0.714038
0.714048
0.714059
0.714073
0.71409
0.714109
0.714132
0.714158
0.714188
0.714221
0.714258
0.714298
0.714342
0.714388
0.714436
0.714486
0.714537
0.714589
0.71464
0.714691
0.714739
0.714786
0.71483
0.714871
0.714909
0.714942
0.714973
0.714999
0.715022
0.715042
0.715058
0.715073
0.715085
0.715095
0.715104
0.715111
0.715118
0.715124
0.71513
0.715136
0.715141
0.715145
0.715149
0.715153
0.715157
0.71516
0.715162
0.715165
0.715166
0.715168
0.715168
0.715169
0.715168
0.715167
0.715166
0.715163
0.715161
0.715157
0.715153
0.715148
0.715142
0.715136
0.715129
0.715121
0.715113
0.715105
0.715096
0.715086
0.715077
0.715067
0.715057
0.715046
0.715036
0.715025
0.715015
0.715004
0.714994
0.714983
0.714973
0.714962
0.714951
0.714941
0.714931
0.71492
0.71491
0.714899
0.714889
0.714879
0.714868
0.714858
0.714848
0.714837
0.714827
0.714817
0.714807
0.714796
0.714786
0.714776
0.714765
0.714755
0.714745
0.714734
0.714724
0.714714
0.714704
0.714693
0.714683
0.714673
0.714662
0.714652
0.714642
0.714631
0.714621
0.714611
0.7146
0.71459
0.71458
0.71457
0.714559
0.714549
0.714539
0.714528
0.714518
0.714508
0.714497
0.714487
0.714477
0.714466
0.714456
0.714446
0.714435
0.714425
0.714415
0.714405
0.714394
0.714384
0.714374
0.714363
0.714353
0.714343
0.714332
0.714322
0.714312
0.714301
0.714291
0.712709
0.712682
0.712667
0.712661
0.712658
0.712657
0.712658
0.71266
0.712663
0.712668
0.712676
0.712685
0.712697
0.712711
0.712727
0.712747
0.712769
0.712795
0.712825
0.712858
0.712896
0.712937
0.712982
0.713032
0.713085
0.713141
0.7132
0.71326
0.713321
0.713382
0.713443
0.713503
0.71356
0.713614
0.713664
0.71371
0.71375
0.713784
0.713815
0.713841
0.713864
0.713884
0.7139
0.713914
0.713925
0.713936
0.713946
0.713955
0.713966
0.713976
0.713985
0.713994
0.714003
0.714012
0.71402
0.71403
0.71404
0.714052
0.714066
0.714082
0.714102
0.714125
0.714151
0.714181
0.714215
0.714253
0.714294
0.714339
0.714386
0.714436
0.714488
0.714541
0.714594
0.714648
0.714701
0.714753
0.714802
0.714849
0.714894
0.714934
0.714971
0.715004
0.715033
0.715058
0.71508
0.715098
0.715112
0.715124
0.715133
0.715141
0.715146
0.71515
0.715153
0.715156
0.715157
0.715158
0.715159
0.71516
0.71516
0.71516
0.715161
0.715161
0.715161
0.715161
0.715162
0.715162
0.715162
0.715161
0.71516
0.715159
0.715158
0.715155
0.715152
0.715149
0.715145
0.71514
0.715134
0.715128
0.715121
0.715113
0.715105
0.715096
0.715087
0.715077
0.715068
0.715057
0.715047
0.715037
0.715026
0.715015
0.715005
0.714994
0.714983
0.714973
0.714962
0.714952
0.714941
0.714931
0.71492
0.71491
0.714899
0.714889
0.714879
0.714868
0.714858
0.714848
0.714837
0.714827
0.714817
0.714807
0.714796
0.714786
0.714776
0.714765
0.714755
0.714745
0.714734
0.714724
0.714714
0.714704
0.714693
0.714683
0.714673
0.714662
0.714652
0.714642
0.714631
0.714621
0.714611
0.7146
0.71459
0.71458
0.71457
0.714559
0.714549
0.714539
0.714528
0.714518
0.714508
0.714497
0.714487
0.714477
0.714466
0.714456
0.714446
0.714435
0.714425
0.714415
0.714405
0.714394
0.714384
0.714374
0.714363
0.714353
0.714343
0.714332
0.714322
0.714312
0.714301
0.714291
0.712773
0.712745
0.712727
0.712714
0.712706
0.712701
0.712698
0.712698
0.7127
0.712705
0.712713
0.712724
0.712737
0.712754
0.712774
0.712798
0.712825
0.712856
0.712891
0.71293
0.712973
0.71302
0.71307
0.713123
0.71318
0.713237
0.713296
0.713355
0.713412
0.713467
0.713521
0.713571
0.713619
0.713664
0.713705
0.713741
0.713772
0.713798
0.713818
0.713836
0.713851
0.713865
0.713879
0.713894
0.71391
0.713925
0.71394
0.713953
0.713964
0.713975
0.713984
0.713993
0.714001
0.71401
0.714018
0.714028
0.714038
0.714051
0.714065
0.714082
0.714102
0.714126
0.714153
0.714183
0.714218
0.714256
0.714297
0.714343
0.714391
0.714441
0.714494
0.714548
0.714602
0.714657
0.714712
0.714765
0.714816
0.714864
0.71491
0.714952
0.714991
0.715025
0.715055
0.715082
0.715104
0.715122
0.715137
0.715148
0.715157
0.715163
0.715167
0.715169
0.71517
0.71517
0.715169
0.715168
0.715167
0.715165
0.715163
0.715162
0.715161
0.71516
0.715159
0.715158
0.715158
0.715158
0.715157
0.715157
0.715156
0.715155
0.715154
0.715152
0.715149
0.715146
0.715143
0.715138
0.715133
0.715127
0.71512
0.715113
0.715105
0.715096
0.715087
0.715078
0.715068
0.715058
0.715048
0.715037
0.715026
0.715016
0.715005
0.714994
0.714984
0.714973
0.714962
0.714952
0.714941
0.714931
0.71492
0.71491
0.714899
0.714889
0.714879
0.714868
0.714858
0.714848
0.714837
0.714827
0.714817
0.714807
0.714796
0.714786
0.714776
0.714765
0.714755
0.714745
0.714734
0.714724
0.714714
0.714704
0.714693
0.714683
0.714673
0.714662
0.714652
0.714642
0.714631
0.714621
0.714611
0.7146
0.71459
0.71458
0.71457
0.714559
0.714549
0.714539
0.714528
0.714518
0.714508
0.714497
0.714487
0.714477
0.714466
0.714456
0.714446
0.714435
0.714425
0.714415
0.714405
0.714394
0.714384
0.714374
0.714363
0.714353
0.714343
0.714332
0.714322
0.714312
0.714301
0.714291
0.712819
0.712791
0.71277
0.712754
0.712741
0.712733
0.712727
0.712725
0.712726
0.712731
0.712739
0.712751
0.712766
0.712785
0.712808
0.712835
0.712865
0.7129
0.712938
0.71298
0.713026
0.713075
0.713127
0.713181
0.713238
0.713295
0.713352
0.713408
0.713461
0.713512
0.713559
0.713602
0.713642
0.713677
0.713706
0.713731
0.713753
0.713774
0.713796
0.713819
0.713842
0.713862
0.713881
0.713898
0.713912
0.713926
0.713938
0.71395
0.713961
0.713971
0.713981
0.713991
0.714
0.714009
0.714019
0.714029
0.71404
0.714053
0.714069
0.714086
0.714107
0.714131
0.714158
0.714189
0.714224
0.714263
0.714305
0.71435
0.714399
0.71445
0.714503
0.714557
0.714612
0.714667
0.714722
0.714775
0.714827
0.714876
0.714922
0.714964
0.715003
0.715038
0.715068
0.715094
0.715117
0.715135
0.715149
0.71516
0.715168
0.715173
0.715176
0.715178
0.715178
0.715177
0.715175
0.715173
0.71517
0.715167
0.715165
0.715163
0.715161
0.715159
0.715158
0.715157
0.715156
0.715155
0.715155
0.715155
0.715154
0.715153
0.715152
0.71515
0.715148
0.715145
0.715141
0.715137
0.715132
0.715126
0.71512
0.715112
0.715105
0.715096
0.715087
0.715078
0.715068
0.715058
0.715048
0.715037
0.715027
0.715016
0.715005
0.714995
0.714984
0.714973
0.714962
0.714952
0.714941
0.714931
0.71492
0.71491
0.714899
0.714889
0.714879
0.714868
0.714858
0.714848
0.714837
0.714827
0.714817
0.714807
0.714796
0.714786
0.714776
0.714765
0.714755
0.714745
0.714734
0.714724
0.714714
0.714704
0.714693
0.714683
0.714673
0.714662
0.714652
0.714642
0.714631
0.714621
0.714611
0.7146
0.71459
0.71458
0.71457
0.714559
0.714549
0.714539
0.714528
0.714518
0.714508
0.714497
0.714487
0.714477
0.714466
0.714456
0.714446
0.714435
0.714425
0.714415
0.714405
0.714394
0.714384
0.714374
0.714363
0.714353
0.714343
0.714332
0.714322
0.714312
0.714301
0.714291
0.712846
0.712818
0.712794
0.712775
0.712761
0.712749
0.712742
0.712739
0.71274
0.712744
0.712753
0.712766
0.712782
0.712803
0.712827
0.712855
0.712887
0.712923
0.712963
0.713006
0.713052
0.713102
0.713154
0.713207
0.713262
0.713316
0.713368
0.713417
0.713463
0.713505
0.713545
0.713583
0.713622
0.713659
0.713695
0.713727
0.713755
0.713781
0.713803
0.713824
0.713842
0.71386
0.713876
0.713892
0.713908
0.713922
0.713936
0.713948
0.71396
0.71397
0.713981
0.71399
0.713999
0.714009
0.714019
0.71403
0.714042
0.714055
0.714071
0.71409
0.714111
0.714135
0.714163
0.714195
0.71423
0.714269
0.714311
0.714357
0.714405
0.714456
0.714509
0.714564
0.714619
0.714674
0.714728
0.714781
0.714833
0.714882
0.714927
0.71497
0.715008
0.715043
0.715073
0.715099
0.715121
0.715139
0.715153
0.715164
0.715171
0.715177
0.715179
0.71518
0.71518
0.715179
0.715177
0.715174
0.715171
0.715168
0.715165
0.715163
0.715161
0.715159
0.715157
0.715156
0.715155
0.715155
0.715154
0.715154
0.715153
0.715152
0.715151
0.715149
0.715147
0.715144
0.715141
0.715136
0.715131
0.715126
0.715119
0.715112
0.715104
0.715096
0.715087
0.715078
0.715068
0.715058
0.715048
0.715037
0.715027
0.715016
0.715005
0.714995
0.714984
0.714973
0.714962
0.714952
0.714941
0.714931
0.71492
0.71491
0.714899
0.714889
0.714879
0.714868
0.714858
0.714848
0.714837
0.714827
0.714817
0.714807
0.714796
0.714786
0.714776
0.714765
0.714755
0.714745
0.714734
0.714724
0.714714
0.714704
0.714693
0.714683
0.714673
0.714662
0.714652
0.714642
0.714631
0.714621
0.714611
0.7146
0.71459
0.71458
0.71457
0.714559
0.714549
0.714539
0.714528
0.714518
0.714508
0.714497
0.714487
0.714477
0.714466
0.714456
0.714446
0.714435
0.714425
0.714415
0.714405
0.714394
0.714384
0.714374
0.714363
0.714353
0.714343
0.714332
0.714322
0.714312
0.714301
0.714291
0.712852
0.712823
0.712797
0.712776
0.71276
0.712747
0.712739
0.712736
0.712736
0.712741
0.71275
0.712762
0.712779
0.712799
0.712823
0.712851
0.712883
0.712917
0.712956
0.712997
0.713042
0.713089
0.713139
0.713191
0.713243
0.713297
0.713349
0.7134
0.713449
0.713496
0.71354
0.713583
0.713622
0.713659
0.713692
0.713721
0.713748
0.713772
0.713795
0.713817
0.713838
0.713858
0.713875
0.713892
0.713907
0.713921
0.713934
0.713946
0.713958
0.713968
0.713978
0.713988
0.713998
0.714007
0.714018
0.714029
0.714041
0.714056
0.714072
0.714091
0.714113
0.714138
0.714167
0.714199
0.714235
0.714275
0.714317
0.714363
0.714412
0.714463
0.714516
0.714571
0.714626
0.714681
0.714735
0.714788
0.714839
0.714888
0.714933
0.714975
0.715014
0.715048
0.715077
0.715103
0.715124
0.715142
0.715155
0.715166
0.715173
0.715178
0.71518
0.715181
0.71518
0.715179
0.715176
0.715174
0.715171
0.715168
0.715165
0.715163
0.715161
0.715159
0.715157
0.715156
0.715156
0.715155
0.715155
0.715154
0.715153
0.715153
0.715151
0.71515
0.715147
0.715144
0.715141
0.715136
0.715131
0.715126
0.715119
0.715112
0.715104
0.715096
0.715087
0.715078
0.715068
0.715058
0.715048
0.715037
0.715027
0.715016
0.715005
0.714995
0.714984
0.714973
0.714962
0.714952
0.714941
0.714931
0.71492
0.71491
0.714899
0.714889
0.714879
0.714868
0.714858
0.714848
0.714837
0.714827
0.714817
0.714807
0.714796
0.714786
0.714776
0.714765
0.714755
0.714745
0.714734
0.714724
0.714714
0.714704
0.714693
0.714683
0.714673
0.714662
0.714652
0.714642
0.714631
0.714621
0.714611
0.7146
0.71459
0.71458
0.71457
0.714559
0.714549
0.714539
0.714528
0.714518
0.714508
0.714497
0.714487
0.714477
0.714466
0.714456
0.714446
0.714435
0.714425
0.714415
0.714405
0.714394
0.714384
0.714374
0.714363
0.714353
0.714343
0.714332
0.714322
0.714312
0.714301
0.714291
)
;

boundaryField
{
    inlet
    {
        type            zeroGradient;
    }
    outlet
    {
        type            fixedValue;