/*--------------------------------*- C++ -*----------------------------------*\
| =========                 |                                                 |
| \\      /  F ield         | OpenFOAM: The Open Source CFD Toolbox           |
|  \\    /   O peration     | Version:  4.1                                   |
|   \\  /    A nd           | Web:      www.OpenFOAM.org                      |
|    \\/     M anipulation  |                                                 |
\*---------------------------------------------------------------------------*/
FoamFile
{
    version     2.0;
    format      ascii;
    class       volVectorField;
    location    "3540";
    object      U;
}
// * * * * * * * * * * * * * * * * * * * * * * * * * * * * * * * * * * * * * //

dimensions      [0 1 -1 0 0 0 0];

internalField   nonuniform List<vector> 
1275
(
(0.07641 -5.70424e-05 0)
(0.0766115 -0.000118202 0)
(0.0764735 -0.000216717 0)
(0.0767148 -0.00027533 0)
(0.0767026 -0.000328556 0)
(0.0770169 -0.000420808 0)
(0.0771241 -0.000440697 0)
(0.0775472 -0.00060389 0)
(0.0777896 -0.000628068 0)
(0.0784345 -0.000856106 0)
(0.112436 -3.97837e-05 0)
(0.112616 -0.000130125 0)
(0.112484 -0.00025895 0)
(0.112671 -0.000342235 0)
(0.112622 -0.000452583 0)
(0.112852 -0.000552985 0)
(0.112874 -0.000666636 0)
(0.113169 -0.000802723 0)
(0.113243 -0.000982047 0)
(0.113588 -0.00113084 0)
(0.136447 -3.24196e-05 0)
(0.136616 -0.000149661 0)
(0.136478 -0.000282086 0)
(0.13663 -0.000401565 0)
(0.136549 -0.000520362 0)
(0.136712 -0.000663242 0)
(0.136681 -0.000778327 0)
(0.136871 -0.000964101 0)
(0.136876 -0.00110083 0)
(0.137074 -0.00131754 0)
(0.148452 -2.81145e-05 0)
(0.148612 -0.000150592 0)
(0.14846 -0.000281793 0)
(0.148579 -0.00040689 0)
(0.14846 -0.000538977 0)
(0.148557 -0.000678648 0)
(0.14846 -0.000823102 0)
(0.148547 -0.000986219 0)
(0.148447 -0.00116653 0)
(0.148509 -0.00134089 0)
(0.148453 -2.29771e-05 0)
(0.148607 -0.000147363 0)
(0.148438 -0.000259216 0)
(0.148526 -0.000392938 0)
(0.148369 -0.000508203 0)
(0.14841 -0.000657787 0)
(0.148255 -0.00078007 0)
(0.148255 -0.000949972 0)
(0.148086 -0.00108735 0)
(0.148034 -0.00126225 0)
(0.136449 -1.57388e-05 0)
(0.136598 -0.000124505 0)
(0.136407 -0.000209001 0)
(0.136467 -0.000329318 0)
(0.13627 -0.000426921 0)
(0.136259 -0.000557869 0)
(0.136045 -0.000668628 0)
(0.135968 -0.00081008 0)
(0.135716 -0.000936805 0)
(0.135568 -0.00107908 0)
(0.112439 -3.38383e-06 0)
(0.112585 -9.52714e-05 0)
(0.112369 -0.000141524 0)
(0.112403 -0.000248374 0)
(0.11217 -0.000312302 0)
(0.112114 -0.000426521 0)
(0.111849 -0.000500197 0)
(0.111707 -0.000618542 0)
(0.11139 -0.000699707 0)
(0.111161 -0.000811421 0)
(0.0764173 2.71587e-05 0)
(0.076563 -3.49111e-05 0)
(0.076316 -3.75908e-05 0)
(0.0763444 -0.000115127 0)
(0.0760813 -0.000145918 0)
(0.07601 -0.000224969 0)
(0.0757048 -0.000266405 0)
(0.0755341 -0.000343451 0)
(0.0751659 -0.000390271 0)
(0.0748944 -0.000460486 0)
(0.0284323 6.12563e-05 0)
(0.0286344 3.06966e-05 0)
(0.0284829 4.73608e-05 0)
(0.0286011 2.86836e-06 0)
(0.0284144 -9.5434e-08 0)
(0.0284232 -3.75887e-05 0)
(0.028186 -4.11507e-05 0)
(0.0280924 -7.11181e-05 0)
(0.0277979 -7.25548e-05 0)
(0.0276139 -9.3788e-05 0)
(0.0761681 -0.00239878 0)
(0.0769387 -0.00249139 0)
(0.0777203 -0.0025939 0)
(0.0785156 -0.00270144 0)
(0.0793235 -0.00281819 0)
(0.0801478 -0.00294225 0)
(0.0809878 -0.00307603 0)
(0.0818467 -0.00321886 0)
(0.0827245 -0.00337241 0)
(0.0836236 -0.00353667 0)
(0.0845445 -0.00371292 0)
(0.0854894 -0.00390153 0)
(0.0864589 -0.00410362 0)
(0.0874546 -0.00431977 0)
(0.0884774 -0.00455102 0)
(0.0895286 -0.00479808 0)
(0.0906088 -0.00506191 0)
(0.0917189 -0.0053433 0)
(0.0928591 -0.00564313 0)
(0.0940299 -0.00596216 0)
(0.095231 -0.00630118 0)
(0.096462 -0.00666081 0)
(0.0977222 -0.00704168 0)
(0.0990102 -0.00744419 0)
(0.100324 -0.00786865 0)
(0.101662 -0.00831513 0)
(0.10302 -0.00878351 0)
(0.104395 -0.00927333 0)
(0.105783 -0.00978385 0)
(0.107178 -0.0103139 0)
(0.108574 -0.0108619 0)
(0.109964 -0.0114259 0)
(0.111341 -0.0120032 0)
(0.112696 -0.0125906 0)
(0.11402 -0.0131844 0)
(0.115302 -0.0137802 0)
(0.116532 -0.014373 0)
(0.117698 -0.0149572 0)
(0.11879 -0.0155265 0)
(0.119794 -0.0160743 0)
(0.120699 -0.0165935 0)
(0.121493 -0.0170768 0)
(0.122165 -0.0175168 0)
(0.122704 -0.0179059 0)
(0.123102 -0.0182372 0)
(0.123349 -0.0185039 0)
(0.123438 -0.0186999 0)
(0.123365 -0.0188202 0)
(0.123127 -0.0188605 0)
(0.122722 -0.018818 0)
(0.122152 -0.0186911 0)
(0.12142 -0.0184796 0)
(0.120532 -0.0181852 0)
(0.119496 -0.0178105 0)
(0.118323 -0.01736 0)
(0.117024 -0.0168395 0)
(0.115614 -0.0162555 0)
(0.114107 -0.0156159 0)
(0.112519 -0.014929 0)
(0.110869 -0.0142034 0)
(0.109173 -0.013448 0)
(0.107448 -0.0126715 0)
(0.105713 -0.0118824 0)
(0.103983 -0.0110885 0)
(0.102274 -0.0102972 0)
(0.100602 -0.00951497 0)
(0.0989783 -0.00874752 0)
(0.0974156 -0.0079997 0)
(0.0959242 -0.00727541 0)
(0.0945115 -0.00657787 0)
(0.0931858 -0.00590896 0)
(0.0919496 -0.00527088 0)
(0.0908107 -0.00466303 0)
(0.0897643 -0.00408818 0)
(0.0888215 -0.0035415 0)
(0.0879672 -0.00303016 0)
(0.0872191 -0.00253987 0)
(0.0865537 -0.00209161 0)
(0.0789181 -0.00117736 0)
(0.0787304 -0.00130322 0)
(0.0792088 -0.00139228 0)
(0.0794487 -0.00149469 0)
(0.0800022 -0.00156077 0)
(0.0804491 -0.00164044 0)
(0.0810414 -0.00169362 0)
(0.0815816 -0.00175047 0)
(0.082193 -0.00179046 0)
(0.082775 -0.00182964 0)
(0.0833928 -0.00185865 0)
(0.083991 -0.00188567 0)
(0.0846063 -0.00190671 0)
(0.0852066 -0.00192592 0)
(0.0858136 -0.00194178 0)
(0.0864078 -0.00195639 0)
(0.0870029 -0.00196933 0)
(0.0875867 -0.0019817 0)
(0.088168 -0.00199353 0)
(0.0887393 -0.00200541 0)
(0.0893064 -0.00201756 0)
(0.0898645 -0.00203032 0)
(0.0904177 -0.00204396 0)
(0.0909631 -0.00205868 0)
(0.0915034 -0.00207479 0)
(0.0920372 -0.00209238 0)
(0.0925663 -0.00211181 0)
(0.09309 -0.00213309 0)
(0.0936098 -0.00215662 0)
(0.0941253 -0.00218236 0)
(0.0946379 -0.00221077 0)
(0.0951476 -0.00224171 0)
(0.0956551 -0.00227579 0)
(0.0961616 -0.00231275 0)
(0.0966662 -0.00235334 0)
(0.0971726 -0.00239722 0)
(0.0976759 -0.0024452 0)
(0.0981864 -0.00249707 0)
(0.0986887 -0.00255336 0)
(0.0992103 -0.00261457 0)
(0.0997082 -0.00267996 0)
(0.100254 -0.00275247 0)
(0.100734 -0.0028272 0)
(0.101332 -0.00291434 0)
(0.101759 -0.00299645 0)
(0.102361 -0.00309965 0)
(0.10292 -0.00320247 0)
(0.103475 -0.00331457 0)
(0.104047 -0.00343405 0)
(0.104624 -0.0035634 0)
(0.105216 -0.00370162 0)
(0.105818 -0.00385051 0)
(0.106433 -0.00400976 0)
(0.107061 -0.00418072 0)
(0.107704 -0.00436353 0)
(0.10836 -0.00455928 0)
(0.109032 -0.00476836 0)
(0.109719 -0.00499172 0)
(0.110421 -0.00522987 0)
(0.111138 -0.00548367 0)
(0.111871 -0.00575368 0)
(0.112619 -0.00604064 0)
(0.113382 -0.00634509 0)
(0.114157 -0.00666765 0)
(0.114945 -0.00700872 0)
(0.115743 -0.00736873 0)
(0.11655 -0.00774789 0)
(0.117363 -0.00814632 0)
(0.118179 -0.00856391 0)
(0.118995 -0.00900037 0)
(0.119806 -0.00945516 0)
(0.120608 -0.00992744 0)
(0.121396 -0.010416 0)
(0.122162 -0.0109195 0)
(0.122902 -0.0114357 0)
(0.123606 -0.0119625 0)
(0.124267 -0.012497 0)
(0.124876 -0.0130358 0)
(0.125424 -0.013575 0)
(0.125901 -0.0141104 0)
(0.126296 -0.0146369 0)
(0.126598 -0.0151491 0)
(0.126797 -0.0156413 0)
(0.126883 -0.0161071 0)
(0.126844 -0.01654 0)
(0.12667 -0.0169332 0)
(0.126353 -0.0172801 0)
(0.125884 -0.0175739 0)
(0.125256 -0.0178084 0)
(0.124463 -0.0179778 0)
(0.123502 -0.0180771 0)
(0.122371 -0.018102 0)
(0.12107 -0.0180496 0)
(0.119603 -0.0179182 0)
(0.117973 -0.0177071 0)
(0.116188 -0.0174175 0)
(0.114259 -0.0170517 0)
(0.112195 -0.0166134 0)
(0.110013 -0.0161075 0)
(0.107727 -0.0155403 0)
(0.105355 -0.0149187 0)
(0.102915 -0.0142508 0)
(0.100429 -0.0135449 0)
(0.0979154 -0.01281 0)
(0.0953959 -0.0120552 0)
(0.0928905 -0.0112892 0)
(0.090419 -0.0105205 0)
(0.088 -0.00975708 0)
(0.0856507 -0.0090058 0)
(0.0833864 -0.00827277 0)
(0.0812207 -0.00756293 0)
(0.0791653 -0.00688026 0)
(0.077229 -0.00622764 0)
(0.0754198 -0.00560697 0)
(0.073742 -0.00501948 0)
(0.0722 -0.00446516 0)
(0.0707934 -0.00394439 0)
(0.0695246 -0.00345512 0)
(0.0683881 -0.00299832 0)
(0.0673858 -0.00256888 0)
(0.0665079 -0.00217058 0)
(0.0657554 -0.00179398 0)
(0.0651193 -0.00144488 0)
(0.113677 -0.00165229 0)
(0.113782 -0.00175667 0)
(0.114012 -0.00194603 0)
(0.114171 -0.00199492 0)
(0.114441 -0.00207511 0)
(0.114651 -0.00211083 0)
(0.114931 -0.00215645 0)
(0.115171 -0.00218546 0)
(0.115453 -0.00221638 0)
(0.11571 -0.00223908 0)
(0.115991 -0.00226122 0)
(0.116257 -0.00227829 0)
(0.116535 -0.00229435 0)
(0.116802 -0.00230704 0)
(0.117076 -0.00231901 0)
(0.117341 -0.00232887 0)
(0.117609 -0.00233851 0)
(0.117869 -0.00234705 0)
(0.11813 -0.00235594 0)
(0.118384 -0.00236459 0)
(0.118638 -0.00237411 0)
(0.118886 -0.00238412 0)
(0.119132 -0.00239548 0)
(0.119374 -0.00240796 0)
(0.119614 -0.00242221 0)
(0.119851 -0.00243811 0)
(0.120085 -0.00245621 0)
(0.120316 -0.0024764 0)
(0.120546 -0.00249923 0)
(0.120773 -0.00252452 0)
(0.121 -0.00255294 0)
(0.121224 -0.00258415 0)
(0.121449 -0.00261905 0)
(0.121671 -0.00265698 0)
(0.121895 -0.00269933 0)
(0.122117 -0.00274483 0)
(0.122342 -0.00279576 0)
(0.122564 -0.00284967 0)
(0.122793 -0.00291053 0)
(0.123015 -0.00297363 0)
(0.12325 -0.00304621 0)
(0.123472 -0.00311907 0)
(0.123714 -0.00320564 0)
(0.123941 -0.00328886 0)
(0.124185 -0.00339082 0)
(0.124427 -0.0034892 0)
(0.124672 -0.00360208 0)
(0.12492 -0.00372055 0)
(0.125174 -0.00384915 0)
(0.12543 -0.0039866 0)
(0.125693 -0.00413411 0)
(0.125957 -0.00429204 0)
(0.126227 -0.00446093 0)
(0.1265 -0.00464147 0)
(0.126778 -0.0048341 0)
(0.127058 -0.00503953 0)
(0.127342 -0.0052582 0)
(0.127627 -0.0054908 0)
(0.127913 -0.00573776 0)
(0.1282 -0.00599965 0)
(0.128486 -0.00627687 0)
(0.128769 -0.00656986 0)
(0.129047 -0.0068789 0)
(0.129319 -0.00720424 0)
(0.129581 -0.00754596 0)
(0.129832 -0.00790405 0)
(0.130066 -0.00827831 0)
(0.130282 -0.00866835 0)
(0.130474 -0.00907357 0)
(0.130638 -0.00949314 0)
(0.130768 -0.00992591 0)
(0.130859 -0.0103705 0)
(0.130904 -0.010825 0)
(0.130895 -0.0112874 0)
(0.130827 -0.0117551 0)
(0.13069 -0.0122251 0)
(0.130477 -0.012694 0)
(0.130178 -0.013158 0)
(0.129784 -0.0136128 0)
(0.129285 -0.0140536 0)
(0.128674 -0.0144753 0)
(0.127939 -0.0148726 0)
(0.127073 -0.0152396 0)
(0.126067 -0.0155706 0)
(0.124913 -0.0158595 0)
(0.123604 -0.0161006 0)
(0.122135 -0.0162883 0)
(0.120502 -0.0164174 0)
(0.118702 -0.0164833 0)
(0.116735 -0.0164822 0)
(0.114603 -0.016411 0)
(0.112308 -0.0162677 0)
(0.109857 -0.0160516 0)
(0.107259 -0.0157629 0)
(0.104525 -0.0154034 0)
(0.101668 -0.0149763 0)
(0.0987049 -0.0144859 0)
(0.0956527 -0.0139382 0)
(0.0925321 -0.0133401 0)
(0.0893644 -0.0126998 0)
(0.0861725 -0.0120259 0)
(0.0829796 -0.0113276 0)
(0.0798091 -0.0106142 0)
(0.0766841 -0.00989475 0)
(0.0736269 -0.00917766 0)
(0.0706584 -0.00847075 0)
(0.0677983 -0.00778084 0)
(0.0650637 -0.00711384 0)
(0.0624697 -0.00647447 0)
(0.0600287 -0.00586652 0)
(0.0577501 -0.00529255 0)
(0.0556408 -0.00475425 0)
(0.0537038 -0.00425224 0)
(0.0519411 -0.00378632 0)
(0.05035 -0.00335561 0)
(0.0489284 -0.00295829 0)
(0.0476687 -0.00259286 0)
(0.0465672 -0.00225598 0)
(0.0456126 -0.00194685 0)
(0.0448006 -0.00166006 0)
(0.0441184 -0.00139751 0)
(0.0435611 -0.00115022 0)
(0.0431182 -0.000924942 0)
(0.13712 -0.00155079 0)
(0.137107 -0.00168024 0)
(0.137153 -0.00184416 0)
(0.137139 -0.00193936 0)
(0.137204 -0.00205321 0)
(0.137224 -0.00212742 0)
(0.137298 -0.00220725 0)
(0.137342 -0.00226257 0)
(0.137417 -0.00231748 0)
(0.137472 -0.00235619 0)
(0.137544 -0.00239267 0)
(0.137601 -0.00241822 0)
(0.137666 -0.00244153 0)
(0.13772 -0.00245757 0)
(0.137777 -0.00247205 0)
(0.137825 -0.00248194 0)
(0.137873 -0.00249111 0)
(0.137913 -0.00249769 0)
(0.137951 -0.00250435 0)
(0.137983 -0.00250993 0)
(0.138011 -0.00251629 0)
(0.138034 -0.00252272 0)
(0.138054 -0.00253054 0)
(0.138069 -0.00253931 0)
(0.13808 -0.00255 0)
(0.138087 -0.00256234 0)
(0.138091 -0.00257706 0)
(0.13809 -0.00259402 0)
(0.138086 -0.00261377 0)
(0.138079 -0.00263627 0)
(0.138069 -0.00266197 0)
(0.138055 -0.00269091 0)
(0.138038 -0.00272344 0)
(0.138019 -0.00275973 0)
(0.137996 -0.00279997 0)
(0.137971 -0.0028446 0)
(0.137943 -0.00289344 0)
(0.137913 -0.00294753 0)
(0.137879 -0.00300589 0)
(0.137843 -0.00307074 0)
(0.137804 -0.00313958 0)
(0.137763 -0.00321663 0)
(0.137719 -0.00329708 0)
(0.13767 -0.00338765 0)
(0.137621 -0.00348161 0)
(0.137564 -0.00358575 0)
(0.137508 -0.00369729 0)
(0.137444 -0.00381654 0)
(0.137379 -0.0039449 0)
(0.137306 -0.00408202 0)
(0.137229 -0.004229 0)
(0.137145 -0.00438588 0)
(0.137054 -0.0045534 0)
(0.136954 -0.00473185 0)
(0.136846 -0.00492178 0)
(0.136727 -0.00512355 0)
(0.136596 -0.0053376 0)
(0.136452 -0.00556428 0)
(0.136292 -0.00580393 0)
(0.136116 -0.00605679 0)
(0.135919 -0.00632305 0)
(0.135701 -0.00660283 0)
(0.135458 -0.00689611 0)
(0.135186 -0.00720278 0)
(0.134883 -0.00752255 0)
(0.134545 -0.00785501 0)
(0.134167 -0.0081995 0)
(0.133744 -0.00855521 0)
(0.133272 -0.00892104 0)
(0.132745 -0.00929565 0)
(0.132157 -0.00967742 0)
(0.131503 -0.0100644 0)
(0.130774 -0.0104543 0)
(0.129965 -0.0108446 0)
(0.129067 -0.0112322 0)
(0.128074 -0.0116139 0)
(0.126977 -0.0119859 0)
(0.125769 -0.0123443 0)
(0.124442 -0.0126847 0)
(0.122989 -0.0130025 0)
(0.121402 -0.013293 0)
(0.119674 -0.0135511 0)
(0.1178 -0.0137717 0)
(0.115774 -0.0139498 0)
(0.113593 -0.0140805 0)
(0.111254 -0.0141592 0)
(0.108757 -0.0141817 0)
(0.106102 -0.0141445 0)
(0.103294 -0.0140447 0)
(0.100336 -0.0138807 0)
(0.0972383 -0.0136516 0)
(0.0940107 -0.013358 0)
(0.0906667 -0.013002 0)
(0.087222 -0.0125867 0)
(0.083695 -0.0121168 0)
(0.0801061 -0.011598 0)
(0.0764776 -0.0110373 0)
(0.0728338 -0.0104424 0)
(0.0691998 -0.00982141 0)
(0.0656018 -0.00918298 0)
(0.0620664 -0.00853582 0)
(0.0586197 -0.0078886 0)
(0.055287 -0.00724969 0)
(0.0520919 -0.00662703 0)
(0.0490551 -0.00602777 0)
(0.0461943 -0.00545811 0)
(0.0435232 -0.0049229 0)
(0.0410511 -0.00442564 0)
(0.0387826 -0.00396821 0)
(0.0367185 -0.00355112 0)
(0.0348553 -0.00317343 0)
(0.0331868 -0.00283318 0)
(0.0317036 -0.00252759 0)
(0.0303961 -0.00225329 0)
(0.0292513 -0.00200691 0)
(0.0282593 -0.00178456 0)
(0.0274059 -0.0015835 0)
(0.0266829 -0.00139962 0)
(0.026076 -0.00123172 0)
(0.0255795 -0.00107526 0)
(0.0251803 -0.000930964 0)
(0.0248742 -0.000793933 0)
(0.0246509 -0.000665714 0)
(0.148385 -0.00159685 0)
(0.14833 -0.0017431 0)
(0.14823 -0.00192691 0)
(0.148137 -0.0020233 0)
(0.148047 -0.00213836 0)
(0.147943 -0.00219981 0)
(0.147849 -0.00227004 0)
(0.147738 -0.00230837 0)
(0.147634 -0.0023503 0)
(0.147515 -0.00237278 0)
(0.1474 -0.00239648 0)
(0.147272 -0.00240806 0)
(0.147144 -0.00242002 0)
(0.147007 -0.00242445 0)
(0.146868 -0.00242921 0)
(0.146721 -0.00242951 0)
(0.146571 -0.00243043 0)
(0.146414 -0.00242904 0)
(0.146254 -0.00242868 0)
(0.146088 -0.00242754 0)
(0.145917 -0.00242787 0)
(0.145741 -0.00242855 0)
(0.145561 -0.00243111 0)
(0.145376 -0.00243485 0)
(0.145187 -0.00244086 0)
(0.144992 -0.00244869 0)
(0.144793 -0.00245916 0)
(0.144589 -0.00247195 0)
(0.144381 -0.00248774 0)
(0.144167 -0.00250625 0)
(0.143949 -0.00252817 0)
(0.143725 -0.00255315 0)
(0.143496 -0.00258198 0)
(0.143262 -0.00261414 0)
(0.143022 -0.00265074 0)
(0.142776 -0.00269082 0)
(0.142525 -0.0027361 0)
(0.142266 -0.00278489 0)
(0.142001 -0.00283989 0)
(0.141728 -0.00289821 0)
(0.141448 -0.00296411 0)
(0.14116 -0.00303288 0)
(0.140863 -0.00311086 0)
(0.140556 -0.00319138 0)
(0.14024 -0.00328213 0)
(0.139913 -0.00337671 0)
(0.139574 -0.00348053 0)
(0.139222 -0.00359048 0)
(0.138858 -0.00370938 0)
(0.138478 -0.0038358 0)
(0.138083 -0.00397135 0)
(0.13767 -0.00411547 0)
(0.137238 -0.00426911 0)
(0.136786 -0.00443214 0)
(0.136312 -0.00460517 0)
(0.135814 -0.0047882 0)
(0.135289 -0.00498162 0)
(0.134736 -0.00518547 0)
(0.134151 -0.00539993 0)
(0.133533 -0.00562494 0)
(0.132877 -0.0058605 0)
(0.132181 -0.00610639 0)
(0.131441 -0.00636234 0)
(0.130653 -0.0066279 0)
(0.129814 -0.00690248 0)
(0.128918 -0.00718532 0)
(0.127961 -0.00747544 0)
(0.126938 -0.00777167 0)
(0.125843 -0.00807259 0)
(0.124672 -0.00837652 0)
(0.123419 -0.00868152 0)
(0.122077 -0.00898535 0)
(0.12064 -0.00928551 0)
(0.119102 -0.00957917 0)
(0.117457 -0.00986322 0)
(0.115699 -0.0101343 0)
(0.113821 -0.0103886 0)
(0.111818 -0.0106225 0)
(0.109684 -0.0108317 0)
(0.107416 -0.0110121 0)
(0.105008 -0.0111595 0)
(0.10246 -0.0112697 0)
(0.0997682 -0.0113386 0)
(0.0969338 -0.0113626 0)
(0.0939585 -0.0113383 0)
(0.090846 -0.011263 0)
(0.0876021 -0.0111348 0)
(0.084235 -0.0109527 0)
(0.0807556 -0.0107164 0)
(0.0771768 -0.0104269 0)
(0.0735148 -0.0100862 0)
(0.0697879 -0.00969736 0)
(0.0660175 -0.00926445 0)
(0.062227 -0.00879269 0)
(0.0584426 -0.00828837 0)
(0.0546922 -0.00775881 0)
(0.0510051 -0.00721225 0)
(0.047411 -0.00665772 0)
(0.0439396 -0.00610464 0)
(0.0406182 -0.00556243 0)
(0.0374714 -0.00504001 0)
(0.0345192 -0.00454527 0)
(0.031776 -0.00408454 0)
(0.0292506 -0.00366229 0)
(0.0269452 -0.00328084 0)
(0.024857 -0.00294049 0)
(0.0229782 -0.00263965 0)
(0.0212976 -0.00237536 0)
(0.0198013 -0.0021437 0)
(0.018475 -0.00194042 0)
(0.0173032 -0.0017613 0)
(0.016272 -0.00160246 0)
(0.015367 -0.00146064 0)
(0.0145771 -0.00133293 0)
(0.01389 -0.00121733 0)
(0.0132975 -0.00111161 0)
(0.0127896 -0.00101494 0)
(0.0123607 -0.000925089 0)
(0.0120024 -0.000842384 0)
(0.0117111 -0.000763943 0)
(0.0114801 -0.000691392 0)
(0.0113064 -0.000620837 0)
(0.0111856 -0.000555133 0)
(0.147835 -0.0014279 0)
(0.147684 -0.00155472 0)
(0.147457 -0.00169138 0)
(0.147244 -0.00177955 0)
(0.146999 -0.00187961 0)
(0.146754 -0.00194087 0)
(0.146494 -0.00200971 0)
(0.146227 -0.00205072 0)
(0.145952 -0.00209518 0)
(0.145669 -0.00212042 0)
(0.145379 -0.00214669 0)
(0.145082 -0.00215998 0)
(0.144778 -0.00217331 0)
(0.144468 -0.00217813 0)
(0.144152 -0.00218285 0)
(0.143829 -0.00218229 0)
(0.143501 -0.00218192 0)
(0.143168 -0.00217859 0)
(0.142829 -0.00217591 0)
(0.142485 -0.00217195 0)
(0.142135 -0.00216912 0)
(0.141781 -0.00216625 0)
(0.141422 -0.00216496 0)
(0.141057 -0.00216454 0)
(0.140688 -0.00216609 0)
(0.140313 -0.00216921 0)
(0.139933 -0.00217465 0)
(0.139547 -0.0021822 0)
(0.139156 -0.00219239 0)
(0.138758 -0.00220514 0)
(0.138354 -0.00222083 0)
(0.137944 -0.00223948 0)
(0.137526 -0.00226137 0)
(0.137101 -0.00228662 0)
(0.136668 -0.00231538 0)
(0.136226 -0.00234795 0)
(0.135776 -0.00238426 0)
(0.135315 -0.0024249 0)
(0.134844 -0.00246948 0)
(0.134362 -0.00251903 0)
(0.133869 -0.00257268 0)
(0.133362 -0.00263195 0)
(0.132842 -0.00269563 0)
(0.132306 -0.00276532 0)
(0.131756 -0.00284028 0)
(0.131187 -0.002921 0)
(0.130602 -0.00300846 0)
(0.129995 -0.00310152 0)
(0.129368 -0.00320185 0)
(0.128717 -0.00330836 0)
(0.128042 -0.00342239 0)
(0.12734 -0.00354324 0)
(0.12661 -0.00367181 0)
(0.125848 -0.00380768 0)
(0.125054 -0.00395141 0)
(0.124224 -0.00410274 0)
(0.123356 -0.00426194 0)
(0.122446 -0.00442877 0)
(0.121492 -0.00460326 0)
(0.120491 -0.00478509 0)
(0.119438 -0.00497404 0)
(0.118331 -0.00516962 0)
(0.117166 -0.00537134 0)
(0.115938 -0.00557847 0)
(0.114643 -0.00579019 0)
(0.113277 -0.00600545 0)
(0.111835 -0.00622306 0)
(0.110313 -0.00644159 0)
(0.108706 -0.00665942 0)
(0.107009 -0.00687469 0)
(0.105217 -0.00708532 0)
(0.103326 -0.00728899 0)
(0.101331 -0.00748318 0)
(0.0992281 -0.00766515 0)
(0.0970129 -0.007832 0)
(0.0946823 -0.00798066 0)
(0.0922334 -0.00810799 0)
(0.0896642 -0.00821077 0)
(0.0869739 -0.00828585 0)
(0.0841625 -0.00833011 0)
(0.0812317 -0.00834063 0)
(0.0781847 -0.00831473 0)
(0.0750264 -0.00825009 0)
(0.0717638 -0.00814479 0)
(0.0684062 -0.00799753 0)
(0.0649652 -0.00780767 0)
(0.0614551 -0.00757539 0)
(0.057893 -0.00730187 0)
(0.054299 -0.00698941 0)
(0.0506959 -0.00664152 0)
(0.0471094 -0.006263 0)
(0.0435672 -0.00585996 0)
(0.0400986 -0.00543969 0)
(0.0367331 -0.00501044 0)
(0.0334994 -0.00458113 0)
(0.0304235 -0.00416082 0)
(0.0275273 -0.00375808 0)
(0.0248276 -0.00338031 0)
(0.0223349 -0.0030331 0)
(0.0200532 -0.00271983 0)
(0.0179801 -0.00244146 0)
(0.0161079 -0.00219686 0)
(0.0144249 -0.00198316 0)
(0.0129167 -0.00179657 0)
(0.0115677 -0.00163297 0)
(0.0103627 -0.00148857 0)
(0.0092867 -0.00136019 0)
(0.00832642 -0.00124544 0)
(0.0074693 -0.00114264 0)
(0.0067046 -0.00105071 0)
(0.00602229 -0.000968879 0)
(0.00541443 -0.000896475 0)
(0.00487322 -0.000832906 0)
(0.00439323 -0.000777197 0)
(0.00396824 -0.000728674 0)
(0.00359477 -0.000685883 0)
(0.00326752 -0.000648347 0)
(0.0029844 -0.000614222 0)
(0.00274073 -0.000583621 0)
(0.00253537 -0.000554428 0)
(0.00236439 -0.000527408 0)
(0.00222693 -0.000500484 0)
(0.00212045 -0.000474521 0)
(0.135262 -0.00122244 0)
(0.135021 -0.00134142 0)
(0.134678 -0.00146289 0)
(0.134366 -0.00154577 0)
(0.133992 -0.00163111 0)
(0.13363 -0.00168181 0)
(0.133229 -0.00173424 0)
(0.13283 -0.00176082 0)
(0.132405 -0.00178833 0)
(0.131978 -0.00179812 0)
(0.131532 -0.00180838 0)
(0.131083 -0.00180712 0)
(0.13062 -0.00180628 0)
(0.130154 -0.00179833 0)
(0.129677 -0.00179099 0)
(0.129197 -0.0017796 0)
(0.128709 -0.00176914 0)
(0.128217 -0.00175674 0)
(0.127719 -0.00174561 0)
(0.127218 -0.00173398 0)
(0.126711 -0.00172393 0)
(0.126201 -0.00171436 0)
(0.125686 -0.00170664 0)
(0.125167 -0.00170008 0)
(0.124643 -0.00169561 0)
(0.124115 -0.00169277 0)
(0.123581 -0.00169221 0)
(0.123043 -0.00169364 0)
(0.122498 -0.00169754 0)
(0.121948 -0.00170368 0)
(0.121391 -0.00171251 0)
(0.120828 -0.00172376 0)
(0.120256 -0.00173795 0)
(0.119677 -0.00175471 0)
(0.119089 -0.00177472 0)
(0.11849 -0.00179737 0)
(0.117882 -0.00182368 0)
(0.117262 -0.00185265 0)
(0.11663 -0.00188578 0)
(0.115985 -0.00192153 0)
(0.115325 -0.00196203 0)
(0.11465 -0.00200508 0)
(0.113958 -0.00205346 0)
(0.113248 -0.0021045 0)
(0.112518 -0.00216112 0)
(0.111767 -0.00222095 0)
(0.110994 -0.00228623 0)
(0.110197 -0.00235529 0)
(0.109373 -0.00242983 0)
(0.108521 -0.0025086 0)
(0.107639 -0.00259282 0)
(0.106725 -0.00268164 0)
(0.105776 -0.00277582 0)
(0.104789 -0.00287478 0)
(0.103763 -0.00297893 0)
(0.102695 -0.00308782 0)
(0.101581 -0.00320159 0)
(0.10042 -0.0033198 0)
(0.0992064 -0.00344235 0)
(0.0979387 -0.00356872 0)
(0.0966132 -0.00369856 0)
(0.0952263 -0.00383122 0)
(0.0937749 -0.00396609 0)
(0.0922551 -0.0041023 0)
(0.0906637 -0.00423897 0)
(0.0889971 -0.00437498 0)
(0.0872518 -0.00450913 0)
(0.0854246 -0.00464001 0)
(0.0835124 -0.00476609 0)
(0.0815123 -0.00488566 0)
(0.0794219 -0.00499688 0)
(0.0772392 -0.00509775 0)
(0.0749626 -0.00518615 0)
(0.0725915 -0.00525989 0)
(0.0701259 -0.00531668 0)
(0.0675668 -0.00535424 0)
(0.0649164 -0.00537034 0)
(0.0621784 -0.00536284 0)
(0.0593579 -0.00532982 0)
(0.0564619 -0.00526962 0)
(0.0534994 -0.00518096 0)
(0.0504815 -0.0050631 0)
(0.0474218 -0.00491588 0)
(0.0443363 -0.00473992 0)
(0.0412433 -0.00453675 0)
(0.0381636 -0.00430887 0)
(0.0351194 -0.00405989 0)
(0.0321345 -0.00379452 0)
(0.0292329 -0.00351838 0)
(0.026438 -0.00323783 0)
(0.0237715 -0.00295949 0)
(0.0212519 -0.00268974 0)
(0.0188935 -0.00243419 0)
(0.0167054 -0.00219716 0)
(0.0146912 -0.0019813 0)
(0.0128495 -0.0017875 0)
(0.0111746 -0.00161497 0)
(0.0096578 -0.00146163 0)
(0.00828878 -0.00132464 0)
(0.00705606 -0.00120098 0)
(0.00594749 -0.00108802 0)
(0.00495077 -0.000984104 0)
(0.00405379 -0.000888694 0)
(0.00324535 -0.000802291 0)
(0.00251543 -0.000725832 0)
(0.00185567 -0.000660101 0)
(0.0012588 -0.000605185 0)
(0.000718909 -0.000560405 0)
(0.000230358 -0.00052447 0)
(-0.000211584 -0.000495834 0)
(-0.000611938 -0.00047304 0)
(-0.000974695 -0.00045477 0)
(-0.00130439 -0.000440135 0)
(-0.00160409 -0.000428184 0)
(-0.00187763 -0.000418568 0)
(-0.00212696 -0.00041039 0)
(-0.00235514 -0.000403754 0)
(-0.00256315 -0.000397568 0)
(-0.00275326 -0.000392434 0)
(-0.00292591 -0.000386938 0)
(-0.00308247 -0.000382171 0)
(-0.00322337 -0.000376445 0)
(-0.003349 -0.000371096 0)
(0.110778 -0.000898304 0)
(0.110452 -0.000981629 0)
(0.110009 -0.00105345 0)
(0.1096 -0.00110706 0)
(0.109109 -0.00115743 0)
(0.108636 -0.00118822 0)
(0.108108 -0.00121888 0)
(0.107589 -0.00123347 0)
(0.107034 -0.0012485 0)
(0.106482 -0.00125176 0)
(0.105906 -0.0012553 0)
(0.105332 -0.00125082 0)
(0.104742 -0.00124651 0)
(0.104152 -0.00123706 0)
(0.103552 -0.00122789 0)
(0.102953 -0.00121569 0)
(0.102346 -0.001204 0)
(0.10174 -0.00119082 0)
(0.10113 -0.00117843 0)
(0.10052 -0.00116563 0)
(0.0999069 -0.0011539 0)
(0.0992939 -0.00114252 0)
(0.0986787 -0.00113244 0)
(0.098063 -0.00112325 0)
(0.0974451 -0.00111557 0)
(0.0968262 -0.00110914 0)
(0.0962047 -0.00110438 0)
(0.0955811 -0.00110114 0)
(0.0949543 -0.0010997 0)
(0.0943243 -0.00109999 0)
(0.0936899 -0.00110218 0)
(0.093051 -0.00110627 0)
(0.0924064 -0.00111236 0)
(0.0917557 -0.00112051 0)
(0.0910976 -0.00113073 0)
(0.0904316 -0.00114319 0)
(0.0897564 -0.00115777 0)
(0.0890712 -0.00117479 0)
(0.0883747 -0.00119397 0)
(0.0876658 -0.00121578 0)
(0.0869432 -0.00123982 0)
(0.0862057 -0.00126663 0)
(0.0854518 -0.00129585 0)
(0.08468 -0.00132779 0)
(0.0838888 -0.00136252 0)
(0.0830765 -0.00139972 0)
(0.0822417 -0.00144015 0)
(0.081382 -0.00148291 0)
(0.0804962 -0.00152895 0)
(0.0795817 -0.00157737 0)
(0.0786371 -0.00162895 0)
(0.0776596 -0.00168293 0)
(0.0766476 -0.00173983 0)
(0.0755984 -0.00179905 0)
(0.07451 -0.00186084 0)
(0.0733796 -0.00192468 0)
(0.0722052 -0.0019906 0)
(0.070984 -0.00205808 0)
(0.0697138 -0.00212693 0)
(0.068392 -0.00219659 0)
(0.0670164 -0.00226668 0)
(0.0655844 -0.00233651 0)
(0.0640942 -0.00240552 0)
(0.0625435 -0.00247287 0)
(0.0609307 -0.0025378 0)
(0.0592542 -0.00259932 0)
(0.0575131 -0.00265644 0)
(0.0557065 -0.00270804 0)
(0.0538345 -0.00275297 0)
(0.0518976 -0.00278995 0)
(0.0498971 -0.00281772 0)
(0.0478351 -0.00283497 0)
(0.045715 -0.00284045 0)
(0.043541 -0.00283295 0)
(0.0413187 -0.00281143 0)
(0.039055 -0.00277502 0)
(0.0367586 -0.00272316 0)
(0.0344392 -0.00265565 0)
(0.0321084 -0.00257272 0)
(0.0297792 -0.00247512 0)
(0.0274659 -0.00236414 0)
(0.0251838 -0.00224165 0)
(0.0229486 -0.00211002 0)
(0.0207763 -0.00197207 0)
(0.0186819 -0.00183092 0)
(0.016679 -0.00168981 0)
(0.0147787 -0.00155184 0)
(0.0129897 -0.00141973 0)
(0.0113175 -0.00129559 0)
(0.0097651 -0.00118065 0)
(0.00833291 -0.00107511 0)
(0.00701921 -0.000978094 0)
(0.00582034 -0.000887856 0)
(0.0047308 -0.000802299 0)
(0.00374352 -0.000719808 0)
(0.0028503 -0.000640038 0)
(0.00204253 -0.000564196 0)
(0.0013119 -0.000494566 0)
(0.000650932 -0.00043345 0)
(5.31878e-05 -0.000382176 0)
(-0.000486884 -0.00034066 0)
(-0.000974181 -0.000307722 0)
(-0.00141345 -0.00028173 0)
(-0.0018094 -0.000261225 0)
(-0.00216699 -0.000245122 0)
(-0.00249113 -0.000232668 0)
(-0.00278676 -0.000223227 0)
(-0.00305816 -0.000216201 0)
(-0.00330938 -0.000211047 0)
(-0.00354338 -0.000207334 0)
(-0.00376307 -0.000204855 0)
(-0.00397023 -0.000203472 0)
(-0.00416702 -0.000203283 0)
(-0.00435439 -0.000204149 0)
(-0.0045341 -0.00020622 0)
(-0.00470654 -0.00020909 0)
(-0.00487314 -0.000212928 0)
(-0.00503389 -0.000217037 0)
(-0.00518985 -0.000221728 0)
(-0.00534083 -0.000226142 0)
(-0.00548738 -0.000230736 0)
(-0.00562941 -0.000234712 0)
(-0.00576681 -0.000238455 0)
(0.0744523 -0.00050918 0)
(0.074079 -0.000563101 0)
(0.0735721 -0.000602637 0)
(0.0731131 -0.00063543 0)
(0.0725577 -0.000659151 0)
(0.0720351 -0.000672623 0)
(0.071447 -0.000680693 0)
(0.0708818 -0.000679699 0)
(0.0702744 -0.000675744 0)
(0.0696839 -0.000665381 0)
(0.0690681 -0.000653687 0)
(0.068466 -0.000638151 0)
(0.0678501 -0.000622386 0)
(0.067246 -0.000604756 0)
(0.066636 -0.000587632 0)
(0.0660366 -0.000570002 0)
(0.0654363 -0.000553343 0)
(0.0648456 -0.000537039 0)
(0.064257 -0.000521976 0)
(0.063677 -0.000507772 0)
(0.0631005 -0.00049494 0)
(0.0625316 -0.000483232 0)
(0.0619665 -0.000472936 0)
(0.0614077 -0.000463879 0)
(0.0608524 -0.000456219 0)
(0.0603019 -0.000449823 0)
(0.0597539 -0.000444784 0)
(0.0592091 -0.000440985 0)
(0.0586657 -0.000438497 0)
(0.0581235 -0.000437199 0)
(0.0575811 -0.000437177 0)
(0.0570381 -0.000438278 0)
(0.0564931 -0.000440643 0)
(0.0559455 -0.000444051 0)
(0.0553938 -0.000448747 0)
(0.0548374 -0.000454382 0)
(0.0542748 -0.000461374 0)
(0.0537053 -0.000469175 0)
(0.0531273 -0.000478442 0)
(0.05254 -0.000488364 0)
(0.0519417 -0.00049988 0)
(0.0513317 -0.000511906 0)
(0.0507081 -0.000525601 0)
(0.0500701 -0.00053975 0)
(0.0494159 -0.000555494 0)
(0.0487446 -0.000571763 0)
(0.0480543 -0.000589432 0)
(0.0473437 -0.000607654 0)
(0.0466115 -0.000627108 0)
(0.0458559 -0.000647092 0)
(0.0450758 -0.000668091 0)
(0.0442694 -0.000689533 0)
(0.0434355 -0.00071171 0)
(0.0425724 -0.000734149 0)
(0.0416789 -0.000756973 0)
(0.0407536 -0.000779769 0)
(0.0397954 -0.000802516 0)
(0.038803 -0.000824822 0)
(0.0377757 -0.000846547 0)
(0.0367125 -0.000867293 0)
(0.0356131 -0.000886819 0)
(0.0344771 -0.00090471 0)
(0.0333047 -0.000920646 0)
(0.0320961 -0.000934193 0)
(0.0308525 -0.000944984 0)
(0.0295751 -0.000952586 0)
(0.028266 -0.000956627 0)
(0.0269275 -0.00095671 0)
(0.025563 -0.000952515 0)
(0.0241764 -0.000943746 0)
(0.0227722 -0.000930208 0)
(0.0213557 -0.000911784 0)
(0.0199331 -0.000888496 0)
(0.0185108 -0.000860499 0)
(0.017096 -0.000828124 0)
(0.015696 -0.000791878 0)
(0.0143186 -0.000752465 0)
(0.0129712 -0.000710756 0)
(0.0116612 -0.000667773 0)
(0.0103956 -0.000624599 0)
(0.00918047 -0.000582276 0)
(0.00802142 -0.000541648 0)
(0.006923 -0.000503188 0)
(0.00588876 -0.000466851 0)
(0.00492117 -0.000432016 0)
(0.00402154 -0.00039761 0)
(0.00319 -0.000362447 0)
(0.0024255 -0.000325715 0)
(0.00172588 -0.000287424 0)
(0.00108803 -0.000248591 0)
(0.000508207 -0.000210993 0)
(-1.76518e-05 -0.000176599 0)
(-0.000493465 -0.000146916 0)
(-0.000922668 -0.000122594 0)
(-0.00130813 -0.000103454 0)
(-0.00165236 -8.88401e-05 0)
(-0.00195806 -7.79966e-05 0)
(-0.00222852 -7.02435e-05 0)
(-0.00246783 -6.48894e-05 0)
(-0.00268052 -6.11096e-05 0)
(-0.00287106 -5.79722e-05 0)
(-0.0030433 -5.46863e-05 0)
(-0.00320038 -5.08728e-05 0)
(-0.0033447 -4.66975e-05 0)
(-0.00347838 -4.27338e-05 0)
(-0.00360318 -3.96828e-05 0)
(-0.00372098 -3.80835e-05 0)
(-0.00383321 -3.8153e-05 0)
(-0.00394144 -3.98155e-05 0)
(-0.0040466 -4.2765e-05 0)
(-0.0041499 -4.6676e-05 0)
(-0.00425182 -5.11636e-05 0)
(-0.00435345 -5.60342e-05 0)