/*--------------------------------*- C++ -*----------------------------------*\
| =========                 |                                                 |
| \\      /  F ield         | OpenFOAM: The Open Source CFD Toolbox           |
|  \\    /   O peration     | Version:  4.1                                   |
|   \\  /    A nd           | Web:      www.OpenFOAM.org                      |
|    \\/     M anipulation  |                                                 |
\*---------------------------------------------------------------------------*/
FoamFile
{
    version     2.0;
    format      ascii;
    class       volVectorField;
    location    "0.0297";
    object      U;
}
// * * * * * * * * * * * * * * * * * * * * * * * * * * * * * * * * * * * * * //

dimensions      [0 1 -1 0 0 0 0];

internalField   nonuniform List<vector> 
441
(
(-9.94146e-05 8.03719e-05 0)
(-0.000493763 0.00028388 0)
(-0.00109566 0.000489261 0)
(-0.00185499 0.000632348 0)
(-0.00269851 0.000699741 0)
(-0.00354998 0.000695399 0)
(-0.00434103 0.000629896 0)
(-0.00501547 0.000515909 0)
(-0.00553031 0.00036615 0)
(-0.00585529 0.000192599 0)
(-0.0059719 6.52102e-06 0)
(-0.00587283 -0.000181084 0)
(-0.00556196 -0.000358859 0)
(-0.00505517 -0.000514539 0)
(-0.00438155 -0.000634709 0)
(-0.00358463 -0.000705116 0)
(-0.00272285 -0.000711842 0)
(-0.0018679 -0.000643774 0)
(-0.00109937 -0.000497399 0)
(-0.000492796 -0.000287577 0)
(-9.84766e-05 -8.05021e-05 0)
(-0.000347718 0.000449619 0)
(-0.00154151 0.00136122 0)
(-0.00320981 0.00216136 0)
(-0.00522279 0.00269977 0)
(-0.00740728 0.00293843 0)
(-0.0095843 0.00289389 0)
(-0.0115919 0.00260734 0)
(-0.0132959 0.00212852 0)
(-0.0145929 0.00150767 0)
(-0.0154099 0.000792305 0)
(-0.0157022 2.71489e-05 0)
(-0.0154522 -0.000744111 0)
(-0.0146697 -0.00147637 0)
(-0.0133932 -0.00212093 0)
(-0.0116929 -0.00262458 0)
(-0.00967315 -0.00293097 0)
(-0.007473 -0.00298537 0)
(-0.00526162 -0.00274445 0)
(-0.0032257 -0.00219334 0)
(-0.00154386 -0.00137582 0)
(-0.00034697 -0.000450634 0)
(-0.000619304 0.00106351 0)
(-0.00259183 0.00299224 0)
(-0.00521702 0.00455875 0)
(-0.00829393 0.00557328 0)
(-0.0115757 0.00599371 0)
(-0.014812 0.00586112 0)
(-0.0177767 0.00525758 0)
(-0.0202825 0.00428016 0)
(-0.0221851 0.00302649 0)
(-0.0233822 0.00158895 0)
(-0.0238113 5.44751e-05 0)
(-0.0234477 -0.00149204 0)
(-0.0223047 -0.00296295 0)
(-0.0204358 -0.00426363 0)
(-0.0179385 -0.00529063 0)
(-0.0149582 -0.0059343 0)
(-0.0116886 -0.0060877 0)
(-0.0083658 -0.00566408 0)
(-0.00525184 -0.00462521 0)
(-0.00260212 -0.00302407 0)
(-0.000620142 -0.00106703 0)
(-0.000878122 0.00191791 0)
(-0.0035876 0.00516758 0)
(-0.0070975 0.00766519 0)
(-0.0111335 0.00922358 0)
(-0.0153801 0.00982261 0)
(-0.0195276 0.00954511 0)
(-0.0233014 0.00852706 0)
(-0.0264765 0.00692337 0)
(-0.0288808 0.00488791 0)
(-0.0303932 0.00256527 0)
(-0.0309396 9.09673e-05 0)
(-0.0304899 -0.00240298 0)
(-0.0290585 -0.00478022 0)
(-0.0267067 -0.00689306 0)
(-0.0235488 -0.00857921 0)
(-0.0197569 -0.00966531 0)
(-0.0155639 -0.00997998 0)
(-0.0112578 -0.0093787 0)
(-0.00716465 -0.00778202 0)
(-0.0036129 -0.00522661 0)
(-0.000882288 -0.00192671 0)
(-0.00112691 0.00300659 0)
(-0.00455094 0.00788062 0)
(-0.00891574 0.011477 0)
(-0.0138686 0.0136432 0)
(-0.0190229 0.0144093 0)
(-0.0240125 0.0139219 0)
(-0.0285217 0.0123876 0)
(-0.0322971 0.0100316 0)
(-0.0351485 0.00707268 0)
(-0.0369435 0.00371364 0)
(-0.0376011 0.000142581 0)
(-0.0370871 -0.00345815 0)
(-0.0354141 -0.00689998 0)
(-0.0326452 -0.00997713 0)
(-0.028902 -0.0124609 0)
(-0.0243737 -0.0141033 0)
(-0.0193223 -0.0146536 0)
(-0.0140815 -0.0138904 0)
(-0.00903986 -0.0116695 0)
(-0.00460417 -0.00798378 0)
(-0.00113757 -0.00302604 0)
(-0.00137837 0.00433255 0)
(-0.00553071 0.0111431 0)
(-0.0107651 0.0160119 0)
(-0.0166422 0.0188482 0)
(-0.0226987 0.0197621 0)
(-0.0285114 0.0189904 0)
(-0.0337271 0.0168313 0)
(-0.0380715 0.0135948 0)
(-0.0413442 0.0095739 0)
(-0.0434081 0.0050343 0)
(-0.0441796 0.000218488 0)
(-0.0436211 -0.00464049 0)
(-0.0417405 -0.00930106 0)
(-0.0385965 -0.0134964 0)
(-0.0343097 -0.0169246 0)
(-0.0290764 -0.0192507 0)
(-0.0231808 -0.0201263 0)
(-0.0169988 -0.0192287 0)
(-0.0109847 -0.0163199 0)
(-0.00563251 -0.0113186 0)
(-0.00140062 -0.00437265 0)
(-0.00164615 0.00591237 0)
(-0.00657808 0.014992 0)
(-0.0127356 0.0213139 0)
(-0.0195803 0.0248778 0)
(-0.0265639 0.0259082 0)
(-0.0332049 0.0247643 0)
(-0.0391172 0.021861 0)
(-0.0440132 0.0176106 0)
(-0.0476909 0.0123901 0)
(-0.0500164 0.00653147 0)
(-0.0509081 0.000330626 0)
(-0.0503262 -0.00593148 0)
(-0.0482707 -0.0119627 0)
(-0.0447887 -0.0174349 0)
(-0.0399899 -0.0219669 0)
(-0.0340672 -0.0251235 0)
(-0.0273178 -0.0264362 0)
(-0.0201557 -0.02545 0)
(-0.0131045 -0.0217965 0)
(-0.00675799 -0.0152842 0)
(-0.0016874 -0.00599029 0)
(-0.00194115 0.0077758 0)
(-0.00773344 0.0194871 0)
(-0.0148934 0.0274472 0)
(-0.0227651 0.0317837 0)
(-0.0307064 0.032879 0)
(-0.0381778 0.0312547 0)
(-0.0447679 0.0274734 0)
(-0.0501869 0.0220698 0)
(-0.0542431 0.0155144 0)
(-0.0568159 0.00820698 0)
(-0.0578323 0.000492822 0)
(-0.0572518 -0.00730633 0)
(-0.0550635 -0.0148546 0)
(-0.0512944 -0.0217653 0)
(-0.0460307 -0.0275746 0)
(-0.0394472 -0.0317329 0)
(-0.0318401 -0.0336253 0)
(-0.0236534 -0.0326257 0)
(-0.0154811 -0.0281877 0)
(-0.00803056 -0.0199619 0)
(-0.00201134 -0.00791865 0)
(-0.00226909 0.00996267 0)
(-0.00901691 0.0247021 0)
(-0.0172626 0.0344819 0)
(-0.0262094 0.0396109 0)
(-0.0351125 0.0406875 0)
(-0.0433796 0.0384467 0)
(-0.0505875 0.0336365 0)
(-0.0564614 0.0269364 0)
(-0.060837 0.0189195 0)
(-0.0636206 0.0100518 0)
(-0.0647569 0.000719085 0)
(-0.0642082 -0.00872846 0)
(-0.0619492 -0.0179235 0)
(-0.0579771 -0.0264297 0)
(-0.0523385 -0.0337002 0)
(-0.0451695 -0.0390585 0)
(-0.0367439 -0.0417134 0)
(-0.0275183 -0.0408199 0)
(-0.0181521 -0.0355909 0)
(-0.00947959 -0.0254516 0)
(-0.00238072 -0.0102105 0)
(-0.00262781 0.0125179 0)
(-0.0104181 0.0307102 0)
(-0.0198056 0.0424708 0)
(-0.0298253 0.0483678 0)
(-0.0396254 0.049295 0)
(-0.0485743 0.0462661 0)
(-0.0562599 0.0402594 0)
(-0.0624483 0.0321232 0)
(-0.0670259 0.0225397 0)
(-0.0699443 0.012035 0)
(-0.071178 0.00102066 0)
(-0.0706971 -0.0101439 0)
(-0.0684595 -0.0210796 0)
(-0.0644222 -0.0313162 0)
(-0.0585725 -0.0402311 0)
(-0.0509803 -0.0470117 0)
(-0.0418648 -0.05066 0)
(-0.0316649 -0.0500545 0)
(-0.0210878 -0.044085 0)
(-0.0111021 -0.0318554 0)
(-0.00279571 -0.0129264 0)
(-0.00300383 0.0154847 0)
(-0.0118831 0.0375635 0)
(-0.022397 0.0514165 0)
(-0.0333849 0.0579852 0)
(-0.043893 0.0585673 0)
(-0.0532781 0.0545376 0)
(-0.0611761 0.0471556 0)
(-0.0674299 0.0374618 0)
(-0.0720065 0.0262493 0)
(-0.0749256 0.0140907 0)
(-0.0762059 0.00140156 0)
(-0.0758329 -0.0114764 0)
(-0.0737471 -0.0241807 0)
(-0.069855 -0.036233 0)
(-0.0640638 -0.0469518 0)
(-0.0563433 -0.0553892 0)
(-0.046813 -0.0603124 0)
(-0.0358457 -0.0602588 0)
(-0.0241583 -0.0536899 0)
(-0.0128464 -0.039253 0)
(-0.00324424 -0.0161271 0)
(-0.00336698 0.0188948 0)
(-0.0132945 0.0452642 0)
(-0.0247864 0.0612259 0)
(-0.0364651 0.0682621 0)
(-0.0472991 0.0682194 0)
(-0.0566828 0.0629345 0)
(-0.0643544 0.0540023 0)
(-0.07028 0.0426721 0)
(-0.0745424 0.0298402 0)
(-0.0772533 0.0161041 0)
(-0.0784913 0.00185247 0)
(-0.0782662 -0.0126251 0)
(-0.0765037 -0.0270201 0)
(-0.0730537 -0.040883 0)
(-0.0677243 -0.0535049 0)
(-0.0603487 -0.0638181 0)
(-0.0508903 -0.0703403 0)
(-0.0395842 -0.0712029 0)
(-0.0270878 -0.0643098 0)
(-0.0145886 -0.0476654 0)
(-0.0036958 -0.0198619 0)
(-0.00366171 0.0227554 0)
(-0.0144408 0.053725 0)
(-0.0265429 0.0716501 0)
(-0.038371 0.0787958 0)
(-0.0488737 0.0777495 0)
(-0.0575639 0.0709248 0)
(-0.0643543 0.0602994 0)
(-0.0693883 0.0473339 0)
(-0.0728988 0.0330046 0)
(-0.0751095 0.0178999 0)
(-0.0761717 0.00234391 0)
(-0.076128 -0.0134667 0)
(-0.0748961 -0.0293212 0)
(-0.0722717 -0.0448466 0)
(-0.0679544 -0.0593555 0)
(-0.0616103 -0.0717007 0)
(-0.0529853 -0.080161 0)
(-0.0420821 -0.0824112 0)
(-0.0293871 -0.0756547 0)
(-0.0160949 -0.0570034 0)
(-0.00409133 -0.0241521 0)
(-0.00379146 0.0270315 0)
(-0.014962 0.0627155 0)
(-0.0269633 0.0822031 0)
(-0.0380192 0.0888968 0)
(-0.0471717 0.0863676 0)
(-0.0541699 0.0777215 0)
(-0.0591889 0.0653422 0)
(-0.0625995 0.0508743 0)
(-0.0648065 0.035329 0)
(-0.0661521 0.0192387 0)
(-0.0668622 0.00282002 0)
(-0.067018 -0.0138645 0)
(-0.0665413 -0.0307464 0)
(-0.0651889 -0.0475836 0)
(-0.0625633 -0.0637771 0)
(-0.0581543 -0.0781718 0)
(-0.051441 -0.0888629 0)
(-0.0420869 -0.0930621 0)
(-0.0302467 -0.0871376 0)
(-0.0169594 -0.0669951 0)
(-0.00432588 -0.0289673 0)
(-0.00358755 0.0316167 0)
(-0.0142441 0.0717817 0)
(-0.0249075 0.0920538 0)
(-0.0337488 0.0974902 0)
(-0.0400968 0.092931 0)
(-0.0440889 0.0822567 0)
(-0.0462442 0.0682238 0)
(-0.0471847 0.052586 0)
(-0.047477 0.0363152 0)
(-0.0475604 0.0198294 0)
(-0.0477182 0.00319669 0)
(-0.0480676 -0.0136867 0)
(-0.0485503 -0.0309295 0)
(-0.0489187 -0.0484709 0)
(-0.0487217 -0.0658774 0)
(-0.0473087 -0.0820939 0)
(-0.0438867 -0.0951526 0)
(-0.0376939 -0.101881 0)
(-0.0283571 -0.0977415 0)
(-0.0164878 -0.0770808 0)
(-0.00421561 -0.0341879 0)
(-0.0027412 0.0362832 0)
(-0.0111959 0.0801196 0)
(-0.0184814 0.0998773 0)
(-0.0229973 0.103013 0)
(-0.0246409 0.095913 0)
(-0.0240837 0.0832111 0)
(-0.0222152 0.0679 0)
(-0.019865 0.0517012 0)
(-0.0176933 0.035443 0)
(-0.0161715 0.0193682 0)
(-0.0155957 0.00336868 0)
(-0.0161026 -0.0128353 0)
(-0.0176711 -0.0295391 0)
(-0.0201016 -0.0468926 0)
(-0.0229759 -0.0646982 0)
(-0.025608 -0.0821335 0)
(-0.0270222 -0.0973658 0)
(-0.0260366 -0.107056 0)
(-0.0215835 -0.105858 0)
(-0.013465 -0.0862564 0)
(-0.00342826 -0.0395428 0)
(-0.000633284 0.0405667 0)
(-0.00374188 0.0863429 0)
(-0.00440332 0.103651 0)
(-0.00173923 0.10334 0)
(0.00349949 0.0934617 0)
(0.0100942 0.0791542 0)
(0.0169116 0.0633567 0)
(0.02308 0.0475468 0)
(0.0279965 0.0322913 0)
(0.0312722 0.0176138 0)
(0.032672 0.00323248 0)
(0.0320718 -0.0112804 0)
(0.0294441 -0.0263748 0)
(0.0248777 -0.0423968 0)
(0.0186359 -0.0594186 0)
(0.0112516 -0.0769726 0)
(0.00364524 -0.0936165 0)
(-0.00279803 -0.106243 0)
(-0.00635264 -0.109105 0)
(-0.00564459 -0.0928133 0)
(-0.00131306 -0.0444794 0)
(0.00415604 0.0435302 0)
(0.0123989 0.0880974 0)
(0.0232789 0.100443 0)
(0.0364542 0.0958599 0)
(0.0504332 0.0836731 0)
(0.0638565 0.0688864 0)
(0.0757634 0.0539314 0)
(0.0855672 0.0398041 0)
(0.0929492 0.0267247 0)
(0.0977483 0.014501 0)
(0.0998762 0.00272912 0)
(0.0992629 -0.00909225 0)
(0.0958334 -0.0214848 0)
(0.0895184 -0.0349148 0)
(0.080303 -0.049683 0)
(0.068329 -0.0657238 0)
(0.0540627 -0.0822142 0)
(0.038528 -0.0968116 0)
(0.0235241 -0.104238 0)
(0.0114441 -0.0939589 0)
(0.0035914 -0.047902 0)
(0.0157591 0.0429125 0)
(0.0468074 0.0810278 0)
(0.0756597 0.0861886 0)
(0.101763 0.0778998 0)
(0.124529 0.0652527 0)
(0.143687 0.0520671 0)
(0.159215 0.0398054 0)
(0.171232 0.0288553 0)
(0.179919 0.019118 0)
(0.185449 0.0102734 0)
(0.187931 0.00190288 0)
(0.18738 -0.00645363 0)
(0.183694 -0.0152663 0)
(0.176649 -0.0249881 0)
(0.165909 -0.0360098 0)
(0.151058 -0.0485594 0)
(0.131685 -0.0624641 0)
(0.107555 -0.0765617 0)
(0.0790005 -0.0872577 0)
(0.0474521 -0.084948 0)
(0.0154702 -0.0473295 0)
(0.0495334 0.0348039 0)
(0.122582 0.0592729 0)
(0.17351 0.0573832 0)
(0.209535 0.0486732 0)
(0.236238 0.0390847 0)
(0.256359 0.0302724 0)
(0.271484 0.0226415 0)
(0.282593 0.0161382 0)
(0.290342 0.0105433 0)
(0.295168 0.00557847 0)
(0.297325 0.000947918 0)
(0.296896 -0.0036479 0)
(0.293791 -0.0085076 0)
(0.287726 -0.0139264 0)
(0.278184 -0.0201888 0)
(0.264336 -0.0275479 0)
(0.244876 -0.0361646 0)
(0.217716 -0.0459088 0)
(0.179562 -0.0556716 0)
(0.124916 -0.0600969 0)
(0.0496441 -0.0384369 0)
(0.182878 0.00467496 0)
(0.296823 0.00832202 0)
(0.350842 0.0118677 0)
(0.37831 0.0116208 0)
(0.395151 0.00980288 0)
(0.406394 0.00771637 0)
(0.414236 0.00578751 0)
(0.419715 0.00411101 0)
(0.423404 0.00266242 0)
(0.42564 0.00137836 0)
(0.42661 0.000184084 0)
(0.426382 -0.000996557 0)
(0.424919 -0.0022365 0)
(0.422061 -0.00360006 0)
(0.417484 -0.00513078 0)
(0.410588 -0.00682156 0)
(0.400208 -0.00854046 0)
(0.383795 -0.00986686 0)
(0.355517 -0.00976149 0)
(0.298431 -0.00708546 0)
(0.181154 -0.00731447 0)
)
;

boundaryField
{
    movingWall
    {
        type            fixedValue;
        value           uniform (0.5 0 0);
    }
    fixedWalls
    {
        type            noSlip;
    }
    frontAndBack
    {
        type            empty;
    }
}


// ************************************************************************* //
