/*--------------------------------*- C++ -*----------------------------------*\
| =========                 |                                                 |
| \\      /  F ield         | OpenFOAM: The Open Source CFD Toolbox           |
|  \\    /   O peration     | Version:  4.1                                   |
|   \\  /    A nd           | Web:      www.OpenFOAM.org                      |
|    \\/     M anipulation  |                                                 |
\*---------------------------------------------------------------------------*/
FoamFile
{
    version     2.0;
    format      ascii;
    class       volScalarField;
    location    "3060";
    object      p;
}
// * * * * * * * * * * * * * * * * * * * * * * * * * * * * * * * * * * * * * //

dimensions      [1 -1 -2 0 0 0 0];

internalField   nonuniform List<scalar> 
1275
(
0.712256
0.712208
0.712201
0.712158
0.712146
0.712102
0.712086
0.712036
0.71202
0.711952
0.712268
0.712216
0.71221
0.712165
0.712155
0.712111
0.712098
0.712052
0.712044
0.711998
0.712286
0.712231
0.712226
0.712179
0.71217
0.712127
0.712114
0.712072
0.71206
0.712021
0.712305
0.71225
0.712246
0.712198
0.71219
0.712148
0.712138
0.712099
0.712091
0.712057
0.712325
0.712269
0.712265
0.712218
0.71221
0.71217
0.71216
0.712123
0.712113
0.712083
0.71234
0.712285
0.712282
0.712236
0.712229
0.71219
0.71218
0.712146
0.712137
0.712109
0.712349
0.712296
0.712292
0.712249
0.712241
0.712204
0.712193
0.712162
0.71215
0.712123
0.712351
0.712303
0.712297
0.712257
0.712248
0.712213
0.712201
0.71217
0.712158
0.712132
0.712345
0.712303
0.712296
0.712258
0.712248
0.712214
0.712202
0.712172
0.712159
0.712133
0.712076
0.712082
0.712088
0.712094
0.712101
0.712107
0.712114
0.712122
0.712129
0.712137
0.712145
0.712154
0.712163
0.712172
0.712182
0.712193
0.712204
0.712215
0.712227
0.712239
0.712253
0.712266
0.712281
0.712297
0.712313
0.712331
0.712349
0.712369
0.712389
0.712411
0.712435
0.71246
0.712486
0.712514
0.712543
0.712574
0.712606
0.71264
0.712675
0.712711
0.712747
0.712785
0.712823
0.71286
0.712898
0.712934
0.71297
0.713004
0.713036
0.713066
0.713094
0.713119
0.713142
0.713162
0.713179
0.713194
0.713207
0.713217
0.713225
0.713231
0.713236
0.71324
0.713243
0.713244
0.713246
0.713247
0.713247
0.713248
0.713249
0.713249
0.71325
0.713251
0.713252
0.713254
0.713256
0.713258
0.713261
0.713263
0.711928
0.711979
0.711972
0.711994
0.711989
0.711998
0.711994
0.711997
0.711995
0.711996
0.711995
0.711996
0.711995
0.711995
0.711995
0.711995
0.711995
0.711996
0.711996
0.711997
0.711998
0.711999
0.712
0.712002
0.712004
0.712005
0.712007
0.71201
0.712012
0.712015
0.712017
0.71202
0.712023
0.712027
0.71203
0.712034
0.712038
0.712042
0.712046
0.712051
0.712056
0.712061
0.712066
0.712072
0.712077
0.712085
0.71209
0.712097
0.712104
0.712111
0.712119
0.712127
0.712135
0.712144
0.712153
0.712163
0.712173
0.712183
0.712194
0.712206
0.712218
0.71223
0.712244
0.712258
0.712272
0.712288
0.712304
0.712321
0.712339
0.712358
0.712377
0.712398
0.71242
0.712443
0.712467
0.712492
0.712519
0.712546
0.712575
0.712604
0.712635
0.712666
0.712698
0.712731
0.712764
0.712798
0.712831
0.712864
0.712896
0.712927
0.712957
0.712986
0.713012
0.713037
0.71306
0.71308
0.713099
0.713115
0.713129
0.713141
0.713152
0.71316
0.713168
0.713174
0.713179
0.713183
0.713187
0.71319
0.713193
0.713195
0.713197
0.7132
0.713202
0.713205
0.713208
0.713211
0.713214
0.713217
0.713221
0.713225
0.713229
0.713233
0.713237
0.712001
0.712005
0.712
0.712005
0.711998
0.712001
0.711996
0.711998
0.711995
0.711996
0.711994
0.711994
0.711993
0.711994
0.711994
0.711994
0.711995
0.711996
0.711996
0.711997
0.711998
0.712
0.712001
0.712003
0.712005
0.712007
0.71201
0.712012
0.712015
0.712018
0.712021
0.712024
0.712028
0.712032
0.712036
0.71204
0.712044
0.712049
0.712054
0.712059
0.712065
0.71207
0.712077
0.712083
0.71209
0.712097
0.712104
0.712112
0.71212
0.712128
0.712137
0.712147
0.712156
0.712167
0.712178
0.712189
0.712201
0.712213
0.712226
0.71224
0.712254
0.712269
0.712284
0.712301
0.712318
0.712336
0.712354
0.712374
0.712394
0.712415
0.712437
0.71246
0.712484
0.712509
0.712534
0.712561
0.712588
0.712615
0.712644
0.712673
0.712702
0.712732
0.712761
0.712791
0.71282
0.712849
0.712877
0.712905
0.712931
0.712956
0.712979
0.713001
0.713021
0.713039
0.713056
0.713071
0.713085
0.713096
0.713107
0.713116
0.713123
0.71313
0.713136
0.713141
0.713146
0.71315
0.713154
0.713159
0.713163
0.713167
0.713171
0.713175
0.713179
0.713183
0.713187
0.713191
0.713196
0.7132
0.713205
0.71321
0.713214
0.71322
0.713225
0.71201
0.71201
0.712005
0.71201
0.712005
0.712008
0.712004
0.712005
0.712002
0.712002
0.712
0.712
0.711998
0.711998
0.711997
0.711998
0.711997
0.711998
0.711999
0.712
0.712001
0.712002
0.712004
0.712006
0.712008
0.71201
0.712013
0.712015
0.712018
0.712022
0.712025
0.712029
0.712033
0.712038
0.712042
0.712047
0.712052
0.712058
0.712063
0.712069
0.712076
0.712082
0.712089
0.712097
0.712104
0.712113
0.712121
0.712131
0.71214
0.71215
0.71216
0.712171
0.712183
0.712195
0.712207
0.71222
0.712234
0.712249
0.712264
0.712279
0.712296
0.712313
0.712331
0.71235
0.712369
0.712389
0.71241
0.712432
0.712454
0.712477
0.712501
0.712525
0.71255
0.712576
0.712602
0.712628
0.712655
0.712682
0.71271
0.712737
0.712764
0.712791
0.712817
0.712843
0.712868
0.712892
0.712915
0.712938
0.712958
0.712978
0.712996
0.713013
0.713028
0.713042
0.713054
0.713065
0.713075
0.713084
0.713093
0.7131
0.713107
0.713113
0.713119
0.713125
0.713131
0.713136
0.713141
0.713146
0.71315
0.713155
0.71316
0.713164
0.713169
0.713174
0.713179
0.713184
0.713189
0.713194
0.713199
0.713204
0.713209
0.713215
0.71322
0.712055
0.712042
0.712037
0.712031
0.712025
0.712021
0.712015
0.712013
0.712008
0.712006
0.712003
0.712002
0.712
0.711999
0.711998
0.711998
0.711998
0.711999
0.711999
0.712
0.712002
0.712003
0.712005
0.712008
0.71201
0.712013
0.712016
0.712019
0.712023
0.712026
0.712031
0.712035
0.71204
0.712045
0.71205
0.712055
0.712061
0.712068
0.712074
0.712081
0.712088
0.712096
0.712104
0.712113
0.712122
0.712131
0.712141
0.712151
0.712162
0.712173
0.712185
0.712198
0.712211
0.712225
0.712239
0.712254
0.71227
0.712286
0.712303
0.712321
0.712339
0.712358
0.712378
0.712399
0.71242
0.712442
0.712464
0.712488
0.712511
0.712535
0.71256
0.712585
0.71261
0.712636
0.712662
0.712688
0.712713
0.712739
0.712764
0.712789
0.712814
0.712838
0.712861
0.712883
0.712904
0.712924
0.712943
0.712961
0.712977
0.712992
0.713007
0.71302
0.713032
0.713043
0.713053
0.713063
0.713072
0.71308
0.713088
0.713095
0.713101
0.713107
0.713113
0.713119
0.713125
0.71313
0.713135
0.713141
0.713146
0.713151
0.713157
0.713162
0.713167
0.713172
0.713177
0.713182
0.713187
0.713192
0.713198
0.713203
0.713208
0.713213
0.713219
0.712075
0.712058
0.712051
0.712041
0.712035
0.712028
0.712023
0.712018
0.712014
0.712011
0.712007
0.712005
0.712003
0.712001
0.712
0.712
0.711999
0.712
0.712
0.712001
0.712003
0.712005
0.712007
0.712009
0.712012
0.712015
0.712018
0.712022
0.712026
0.71203
0.712035
0.71204
0.712045
0.712051
0.712057
0.712063
0.712069
0.712076
0.712084
0.712091
0.712099
0.712108
0.712117
0.712126
0.712136
0.712147
0.712158
0.712169
0.712181
0.712194
0.712207
0.712221
0.712235
0.71225
0.712266
0.712283
0.7123
0.712317
0.712336
0.712355
0.712375
0.712395
0.712417
0.712438
0.712461
0.712484
0.712507
0.712531
0.712555
0.71258
0.712604
0.712629
0.712654
0.712679
0.712704
0.712729
0.712753
0.712777
0.7128
0.712823
0.712844
0.712865
0.712885
0.712904
0.712923
0.71294
0.712956
0.712971
0.712986
0.712999
0.713012
0.713023
0.713034
0.713043
0.713052
0.713061
0.713069
0.713077
0.713084
0.713091
0.713098
0.713105
0.713111
0.713117
0.713124
0.713129
0.713135
0.713141
0.713146
0.713151
0.713156
0.713161
0.713166
0.713171
0.713177
0.713182
0.713187
0.713192
0.713197
0.713202
0.713208
0.713213
0.713219
0.712101
0.712081
0.712073
0.712058
0.712051
0.71204
0.712034
0.712026
0.712021
0.712015
0.712011
0.712007
0.712005
0.712002
0.712001
0.712
0.712
0.712
0.712001
0.712002
0.712004
0.712006
0.712008
0.712011
0.712014
0.712017
0.712021
0.712025
0.712029
0.712034
0.712039
0.712044
0.71205
0.712056
0.712062
0.712069
0.712076
0.712084
0.712092
0.7121
0.712109
0.712118
0.712128
0.712138
0.712148
0.71216
0.712171
0.712184
0.712197
0.71221
0.712224
0.712239
0.712254
0.71227
0.712287
0.712305
0.712323
0.712341
0.712361
0.712381
0.712401
0.712423
0.712444
0.712467
0.71249
0.712513
0.712536
0.71256
0.712584
0.712609
0.712633
0.712657
0.712681
0.712705
0.712729
0.712752
0.712775
0.712797
0.712819
0.712839
0.71286
0.712879
0.712897
0.712914
0.712931
0.712946
0.712961
0.712974
0.712987
0.712999
0.713011
0.713021
0.713031
0.713041
0.713051
0.71306
0.713068
0.713076
0.713084
0.713091
0.713098
0.713105
0.713111
0.713117
0.713123
0.713129
0.713134
0.71314
0.713145
0.713151
0.713156
0.713161
0.713166
0.713172
0.713177
0.713182
0.713187
0.713192
0.713197
0.713203
0.713208
0.713214
0.713219
0.712112
0.712091
0.712081
0.712065
0.712056
0.712044
0.712037
0.712028
0.712022
0.712016
0.712011
0.712007
0.712004
0.712002
0.712
0.711999
0.711999
0.711999
0.712
0.712001
0.712003
0.712005
0.712008
0.71201
0.712014
0.712017
0.712021
0.712026
0.71203
0.712035
0.71204
0.712046
0.712052
0.712058
0.712065
0.712072
0.712079
0.712087
0.712096
0.712104
0.712113
0.712123
0.712133
0.712144
0.712155
0.712166
0.712178
0.712191
0.712204
0.712218
0.712233
0.712248
0.712264
0.71228
0.712297
0.712315
0.712333
0.712352
0.712372
0.712392
0.712413
0.712434
0.712456
0.712479
0.712501
0.712524
0.712548
0.712572
0.712595
0.712619
0.712643
0.712667
0.71269
0.712714
0.712736
0.712759
0.712781
0.712802
0.712822
0.712842
0.712861
0.712879
0.712897
0.712913
0.712929
0.712944
0.712958
0.712972
0.712985
0.712998
0.71301
0.713021
0.713031
0.713041
0.71305
0.713059
0.713067
0.713075
0.713082
0.71309
0.713097
0.713103
0.71311
0.713116
0.713122
0.713128
0.713134
0.71314
0.713145
0.71315
0.713156
0.713161
0.713166
0.713171
0.713176
0.713182
0.713187
0.713192
0.713197
0.713203
0.713208
0.713214
0.713219
0.71212
0.712099
0.712088
0.712071
0.712061
0.712048
0.71204
0.71203
0.712024
0.712017
0.712013
0.712008
0.712005
0.712002
0.712001
0.712
0.711999
0.711999
0.712
0.712002
0.712003
0.712005
0.712008
0.712011
0.712014
0.712018
0.712022
0.712026
0.712031
0.712036
0.712041
0.712047
0.712053
0.71206
0.712066
0.712074
0.712081
0.712089
0.712098
0.712106
0.712116
0.712125
0.712136
0.712146
0.712157
0.712169
0.712182
0.712194
0.712208
0.712222
0.712237
0.712252
0.712268
0.712284
0.712301
0.712319
0.712338
0.712357
0.712376
0.712397
0.712417
0.712439
0.712461
0.712483
0.712505
0.712528
0.712552
0.712575
0.712598
0.712622
0.712645
0.712668
0.712692
0.712714
0.712737
0.712759
0.71278
0.712801
0.712821
0.712841
0.71286
0.712878
0.712896
0.712913
0.712929
0.712944
0.712958
0.712972
0.712985
0.712997
0.713008
0.713019
0.71303
0.713039
0.713049
0.713058
0.713066
0.713074
0.713082
0.71309
0.713097
0.713103
0.71311
0.713116
0.713122
0.713128
0.713134
0.713139
0.713145
0.71315
0.713155
0.713161
0.713166
0.713171
0.713176
0.713182
0.713187
0.713192
0.713197
0.713203
0.713208
0.713214
0.713219
0.71212
0.712099
0.712087
0.71207
0.71206
0.712047
0.712039
0.712029
0.712022
0.712015
0.712011
0.712006
0.712003
0.712
0.711999
0.711997
0.711997
0.711997
0.711998
0.711999
0.712001
0.712003
0.712006
0.712009
0.712012
0.712016
0.71202
0.712025
0.712029
0.712035
0.71204
0.712046
0.712052
0.712058
0.712065
0.712072
0.71208
0.712088
0.712096
0.712105
0.712114
0.712124
0.712134
0.712145
0.712156
0.712168
0.71218
0.712193
0.712206
0.71222
0.712234
0.71225
0.712265
0.712282
0.712299
0.712317
0.712335
0.712354
0.712373
0.712393
0.712414
0.712435
0.712457
0.712479
0.712501
0.712524
0.712547
0.712571
0.712594
0.712618
0.712641
0.712664
0.712688
0.71271
0.712733
0.712755
0.712777
0.712798
0.712818
0.712838
0.712857
0.712875
0.712893
0.71291
0.712926
0.712941
0.712956
0.71297
0.712983
0.712995
0.713007
0.713018
0.713029
0.713039
0.713048
0.713057
0.713066
0.713074
0.713081
0.713089
0.713096
0.713103
0.713109
0.713116
0.713122
0.713128
0.713133
0.713139
0.713145
0.71315
0.713155
0.71316
0.713166
0.713171
0.713176
0.713181
0.713186
0.713192
0.713197
0.713202
0.713208
0.713213
0.713219
)
;

boundaryField
{
    inlet
    {
        type            zeroGradient;
    }
    outlet
    {
        type            fixedValue;
        value           nonuniform 0();
    }
    walls
    {
        type            zeroGradient;
    }
    symwall
    {
        type            empty;
    }
    procBoundary2to0
    {
        type            processor;
        value           nonuniform List<scalar> 
133
(
0.712072
0.712077
0.712083
0.712089
0.712095
0.712101
0.712107
0.712114
0.712121
0.712128
0.712135
0.712143
0.712151
0.71216
0.712168
0.712177
0.712187
0.712197
0.712207
0.712218
0.71223
0.712242
0.712255
0.712268
0.712283
0.712298
0.712314
0.712332
0.71235
0.71237
0.712392
0.712415
0.712439
0.712466
0.712494
0.712524
0.712556
0.71259
0.712626
0.712663
0.712703
0.712743
0.712785
0.712827
0.71287
0.712913
0.712955
0.712996
0.713036
0.713074
0.71311
0.713143
0.713173
0.7132
0.713225
0.713246
0.713263
0.713278
0.71329
0.7133
0.713307
0.713312
0.713315
0.713317
0.713318
0.713318
0.713317
0.713315
0.713314
0.713312
0.71331
0.713309
0.713307
0.713306
0.713305
0.713305
0.713305
0.712247
0.712205
0.712198
0.712156
0.712144
0.7121
0.712086
0.712034
0.712024
0.711952
0.711969
0.711995
0.711989
0.711995
0.711989
0.711992
0.711988
0.71199
0.711989
0.71199
0.711989
0.71199
0.71199
0.711991
0.711991
0.711992
0.711992
0.711993
0.711994
0.711995
0.711996
0.711997
0.711999
0.712
0.712002
0.712004
0.712006
0.712008
0.71201
0.712013
0.712015
0.712018
0.712021
0.712024
0.712027
0.712031
0.712034
0.712038
0.712042
0.712047
0.712051
0.712056
0.71206
0.712065
0.712071
0.712071
)
;
    }
    procBoundary2to1
    {
        type            processor;
        value           uniform 0.713306;
    }
    procBoundary2to3
    {
        type            processor;
        value           nonuniform List<scalar> 10(0.713266 0.713242 0.71323 0.713226 0.713225 0.713225 0.713225 0.713225 0.713225 0.713225);
    }
}


// ************************************************************************* //
