/*--------------------------------*- C++ -*----------------------------------*\
| =========                 |                                                 |
| \\      /  F ield         | OpenFOAM: The Open Source CFD Toolbox           |
|  \\    /   O peration     | Version:  4.1                                   |
|   \\  /    A nd           | Web:      www.OpenFOAM.org                      |
|    \\/     M anipulation  |                                                 |
\*---------------------------------------------------------------------------*/
FoamFile
{
    version     2.0;
    format      ascii;
    class       volVectorField;
    location    "3060";
    object      U;
}
// * * * * * * * * * * * * * * * * * * * * * * * * * * * * * * * * * * * * * //

dimensions      [0 1 -1 0 0 0 0];

internalField   nonuniform List<vector> 
1275
(
(0.07641 -5.70608e-05 0)
(0.0766116 -0.000118293 0)
(0.0764736 -0.000216878 0)
(0.0767151 -0.000275564 0)
(0.076703 -0.000328861 0)
(0.0770175 -0.000421194 0)
(0.077125 -0.000441161 0)
(0.0775485 -0.000604454 0)
(0.0777912 -0.000628739 0)
(0.0784366 -0.000856909 0)
(0.112436 -3.98106e-05 0)
(0.112616 -0.000130263 0)
(0.112484 -0.000259199 0)
(0.112671 -0.000342598 0)
(0.112622 -0.000453063 0)
(0.112853 -0.000553589 0)
(0.112875 -0.000667375 0)
(0.11317 -0.000803605 0)
(0.113245 -0.00098311 0)
(0.11359 -0.00113208 0)
(0.136447 -3.24496e-05 0)
(0.136616 -0.000149828 0)
(0.136478 -0.000282391 0)
(0.13663 -0.000402013 0)
(0.13655 -0.000520955 0)
(0.136712 -0.000663992 0)
(0.136681 -0.00077924 0)
(0.136872 -0.000965199 0)
(0.136877 -0.00110213 0)
(0.137075 -0.00131906 0)
(0.148452 -2.81463e-05 0)
(0.148612 -0.000150774 0)
(0.14846 -0.000282128 0)
(0.148579 -0.00040738 0)
(0.14846 -0.000539629 0)
(0.148558 -0.000679469 0)
(0.14846 -0.000824105 0)
(0.148547 -0.000987417 0)
(0.148448 -0.00116795 0)
(0.14851 -0.00134254 0)
(0.148453 -2.30087e-05 0)
(0.148607 -0.000147545 0)
(0.148438 -0.00025955 0)
(0.148526 -0.000393427 0)
(0.148369 -0.000508851 0)
(0.14841 -0.000658604 0)
(0.148255 -0.000781065 0)
(0.148255 -0.000951159 0)
(0.148085 -0.00108874 0)
(0.148034 -0.00126387 0)
(0.136449 -1.57688e-05 0)
(0.136598 -0.000124671 0)
(0.136407 -0.000209305 0)
(0.136466 -0.000329762 0)
(0.13627 -0.000427509 0)
(0.136258 -0.000558606 0)
(0.136044 -0.000669523 0)
(0.135967 -0.000811144 0)
(0.135715 -0.000938054 0)
(0.135567 -0.00108053 0)
(0.112439 -3.4104e-06 0)
(0.112585 -9.54082e-05 0)
(0.112369 -0.000141771 0)
(0.112402 -0.000248732 0)
(0.11217 -0.000312772 0)
(0.112113 -0.00042711 0)
(0.111848 -0.000500908 0)
(0.111706 -0.000619382 0)
(0.111389 -0.000700686 0)
(0.111159 -0.000812548 0)
(0.0764173 2.71389e-05 0)
(0.076563 -3.50017e-05 0)
(0.0763159 -3.77509e-05 0)
(0.0763442 -0.000115357 0)
(0.076081 -0.000146218 0)
(0.0760094 -0.000225339 0)
(0.0757039 -0.000266848 0)
(0.0755329 -0.000343969 0)
(0.0751643 -0.00039087 0)
(0.0748923 -0.000461168 0)
(0.0284323 6.12458e-05 0)
(0.0286344 3.0661e-05 0)
(0.0284828 4.73049e-05 0)
(0.0286009 2.79406e-06 0)
(0.028414 -1.85437e-07 0)
(0.0284226 -3.76938e-05 0)
(0.0281851 -4.12694e-05 0)
(0.0280912 -7.12506e-05 0)
(0.0277964 -7.27004e-05 0)
(0.0276119 -9.39469e-05 0)
(0.0764608 -0.00248372 0)
(0.0772554 -0.00258429 0)
(0.0780628 -0.00269555 0)
(0.0788857 -0.00281253 0)
(0.0797229 -0.00293955 0)
(0.0805787 -0.00307472 0)
(0.0814521 -0.00322054 0)
(0.0823465 -0.00337639 0)
(0.0832619 -0.003544 0)
(0.0842008 -0.00372341 0)
(0.0851638 -0.003916 0)
(0.086153 -0.00412217 0)
(0.087169 -0.00434312 0)
(0.0882135 -0.00457949 0)
(0.0892872 -0.00483236 0)
(0.0903912 -0.00510249 0)
(0.0915262 -0.00539089 0)
(0.0926927 -0.00569835 0)
(0.0938908 -0.00602578 0)
(0.0951206 -0.00637393 0)
(0.0963815 -0.00674354 0)
(0.0976728 -0.00713518 0)
(0.0989928 -0.00754938 0)
(0.10034 -0.00798641 0)
(0.101712 -0.00844639 0)
(0.103104 -0.00892915 0)
(0.104515 -0.00943427 0)
(0.105937 -0.00996094 0)
(0.107367 -0.0105079 0)
(0.108798 -0.0110736 0)
(0.110222 -0.0116558 0)
(0.111632 -0.0122518 0)
(0.113017 -0.0128581 0)
(0.114369 -0.0134708 0)
(0.115677 -0.0140852 0)
(0.116928 -0.014696 0)
(0.118112 -0.0152972 0)
(0.119215 -0.0158823 0)
(0.120226 -0.016444 0)
(0.121132 -0.0169749 0)
(0.121921 -0.0174674 0)
(0.12258 -0.0179134 0)
(0.123099 -0.0183053 0)
(0.123469 -0.0186356 0)
(0.12368 -0.0188974 0)
(0.123726 -0.0190845 0)
(0.123602 -0.0191915 0)
(0.123305 -0.0192145 0)
(0.122835 -0.0191506 0)
(0.122193 -0.0189986 0)
(0.121384 -0.0187587 0)
(0.120415 -0.0184329 0)
(0.119295 -0.0180247 0)
(0.118034 -0.0175391 0)
(0.116646 -0.0169825 0)
(0.115147 -0.0163623 0)
(0.113553 -0.0156869 0)
(0.11188 -0.0149652 0)
(0.110147 -0.0142066 0)
(0.108373 -0.0134203 0)
(0.106575 -0.0126155 0)
(0.104772 -0.0118008 0)
(0.102982 -0.0109845 0)
(0.101219 -0.0101739 0)
(0.0994995 -0.00937567 0)
(0.0978364 -0.00859537 0)
(0.0962416 -0.00783777 0)
(0.0947246 -0.00710662 0)
(0.0932941 -0.00640474 0)
(0.0919554 -0.0057342 0)
(0.0907149 -0.0050959 0)
(0.0895729 -0.00449096 0)
(0.088535 -0.00391808 0)
(0.0875951 -0.00337893 0)
(0.0867616 -0.00286859 0)
(0.0860197 -0.00239279 0)
(0.0853826 -0.00193828 0)
(0.0848308 -0.00152348 0)
(0.0789208 -0.00117836 0)
(0.0787336 -0.00130443 0)
(0.0792126 -0.0013937 0)
(0.0794531 -0.00149633 0)
(0.0800074 -0.00156266 0)
(0.0804551 -0.00164259 0)
(0.0810483 -0.00169605 0)
(0.0815894 -0.00175321 0)
(0.082202 -0.00179353 0)
(0.0827851 -0.00183308 0)
(0.0834042 -0.00186249 0)
(0.0840038 -0.00188995 0)
(0.0846206 -0.00191148 0)
(0.0852225 -0.00193122 0)
(0.0858313 -0.00194766 0)
(0.0864275 -0.00196291 0)
(0.0870246 -0.00197655 0)
(0.0876108 -0.00198968 0)
(0.0881946 -0.00200236 0)
(0.0887686 -0.00201516 0)
(0.0893385 -0.00202834 0)
(0.0898999 -0.0020422 0)
(0.0904565 -0.00205707 0)
(0.0910056 -0.00207313 0)
(0.09155 -0.0020907 0)
(0.0920881 -0.0021099 0)
(0.092622 -0.00213108 0)
(0.0931508 -0.00215429 0)
(0.0936762 -0.00217992 0)
(0.0941977 -0.00220795 0)
(0.0947168 -0.00223886 0)
(0.0952335 -0.00227255 0)
(0.0957485 -0.00230962 0)
(0.0962632 -0.00234983 0)
(0.0967765 -0.00239398 0)
(0.0972924 -0.00244173 0)
(0.0978058 -0.00249393 0)
(0.0983274 -0.00255039 0)
(0.0988414 -0.00261167 0)
(0.0993756 -0.00267831 0)
(0.0998868 -0.00274958 0)
(0.100447 -0.0028285 0)
(0.100942 -0.00291013 0)
(0.101557 -0.00300485 0)
(0.102001 -0.00309498 0)
(0.102622 -0.00320716 0)
(0.103201 -0.00331947 0)
(0.103777 -0.00344183 0)
(0.104371 -0.00357237 0)
(0.104973 -0.00371365 0)
(0.105589 -0.00386471 0)
(0.106217 -0.00402739 0)
(0.10686 -0.00420144 0)
(0.107517 -0.00438826 0)
(0.108189 -0.00458803 0)
(0.108877 -0.00480188 0)
(0.109581 -0.00503025 0)
(0.110301 -0.00527411 0)
(0.111037 -0.00553402 0)
(0.11179 -0.00581082 0)
(0.112558 -0.0061051 0)
(0.113341 -0.00641758 0)
(0.114138 -0.00674877 0)
(0.114948 -0.00709922 0)
(0.115769 -0.00746929 0)
(0.1166 -0.00785926 0)
(0.117436 -0.00826922 0)
(0.118277 -0.0086991 0)
(0.119116 -0.00914858 0)
(0.119951 -0.00961709 0)
(0.120777 -0.0101037 0)
(0.121587 -0.0106073 0)
(0.122376 -0.0111262 0)
(0.123135 -0.0116584 0)
(0.123858 -0.0122014 0)
(0.124535 -0.0127521 0)
(0.125157 -0.0133071 0)
(0.125715 -0.0138623 0)
(0.126198 -0.0144129 0)
(0.126594 -0.0149539 0)
(0.126893 -0.0154793 0)
(0.127083 -0.0159832 0)
(0.127154 -0.0164587 0)
(0.127093 -0.0168991 0)
(0.126891 -0.0172971 0)
(0.126538 -0.0176457 0)
(0.126026 -0.017938 0)
(0.125347 -0.0181674 0)
(0.124496 -0.0183279 0)
(0.123469 -0.0184143 0)
(0.122265 -0.0184227 0)
(0.120885 -0.0183499 0)
(0.119332 -0.0181945 0)
(0.117612 -0.0179564 0)
(0.115733 -0.0176369 0)
(0.113705 -0.0172389 0)
(0.111542 -0.0167666 0)
(0.109258 -0.0162258 0)
(0.106872 -0.0156231 0)
(0.104401 -0.0149662 0)
(0.101866 -0.0142638 0)
(0.0992878 -0.013525 0)
(0.0966884 -0.0127594 0)
(0.0940893 -0.0119764 0)
(0.0915119 -0.0111854 0)
(0.0889765 -0.0103951 0)
(0.0865021 -0.00961359 0)
(0.0841064 -0.00884788 0)
(0.0818048 -0.00810388 0)
(0.0796108 -0.00738648 0)
(0.0775355 -0.00669928 0)
(0.0755882 -0.00604492 0)
(0.0737752 -0.00542499 0)
(0.0721016 -0.00484019 0)
(0.0705691 -0.00429066 0)
(0.0691796 -0.00377542 0)
(0.0679301 -0.00329404 0)
(0.0668208 -0.0028438 0)
(0.0658443 -0.0024251 0)
(0.0650006 -0.00203248 0)
(0.0642786 -0.00166925 0)
(0.0636779 -0.00132605 0)
(0.0631884 -0.00100808 0)
(0.113678 -0.00165379 0)
(0.113784 -0.00175844 0)
(0.114015 -0.00194808 0)
(0.114174 -0.00199727 0)
(0.114445 -0.00207777 0)
(0.114655 -0.00211382 0)
(0.114936 -0.00215979 0)
(0.115177 -0.00218919 0)
(0.11546 -0.00222053 0)
(0.115718 -0.00224369 0)
(0.116 -0.00226633 0)
(0.116266 -0.00228394 0)
(0.116546 -0.00230059 0)
(0.116814 -0.00231394 0)
(0.117089 -0.00232663 0)
(0.117355 -0.00233726 0)
(0.117624 -0.00234776 0)
(0.117887 -0.00235724 0)
(0.118149 -0.00236715 0)
(0.118406 -0.00237693 0)
(0.118661 -0.00238767 0)
(0.118912 -0.00239903 0)
(0.119161 -0.00241185 0)
(0.119405 -0.00242593 0)
(0.119648 -0.00244194 0)
(0.119888 -0.00245974 0)
(0.120125 -0.00247993 0)
(0.12036 -0.00250238 0)
(0.120594 -0.00252769 0)
(0.120825 -0.00255568 0)
(0.121056 -0.00258704 0)
(0.121286 -0.00262144 0)
(0.121515 -0.00265981 0)
(0.121743 -0.00270152 0)
(0.121973 -0.00274798 0)
(0.122201 -0.00279793 0)
(0.122434 -0.00285369 0)
(0.122662 -0.00291283 0)
(0.122899 -0.00297937 0)
(0.123129 -0.0030486 0)
(0.123373 -0.00312783 0)
(0.123605 -0.00320784 0)
(0.123856 -0.00330219 0)
(0.124094 -0.0033937 0)
(0.124348 -0.00350471 0)
(0.124602 -0.00361268 0)
(0.124859 -0.00373599 0)
(0.125119 -0.00386562 0)
(0.125386 -0.00400619 0)
(0.125656 -0.00415645 0)
(0.125932 -0.00431766 0)
(0.12621 -0.0044902 0)
(0.126495 -0.00467466 0)
(0.126782 -0.00487174 0)
(0.127074 -0.00508192 0)
(0.127369 -0.00530592 0)
(0.127667 -0.0055442 0)
(0.127965 -0.00579744 0)
(0.128265 -0.00606606 0)
(0.128564 -0.00635062 0)
(0.12886 -0.00665147 0)
(0.129152 -0.00696898 0)
(0.129437 -0.00730335 0)
(0.129713 -0.00765473 0)
(0.129977 -0.00802306 0)
(0.130225 -0.00840815 0)
(0.130453 -0.00880959 0)
(0.130657 -0.00922677 0)
(0.130832 -0.00965878 0)
(0.130972 -0.0101044 0)
(0.131071 -0.0105622 0)
(0.131122 -0.0110303 0)
(0.131119 -0.0115063 0)
(0.131052 -0.0119877 0)
(0.130914 -0.0124711 0)
(0.130696 -0.0129532 0)
(0.130389 -0.0134297 0)
(0.129982 -0.0138962 0)
(0.129466 -0.0143476 0)
(0.128831 -0.0147785 0)
(0.128068 -0.0151832 0)
(0.127167 -0.0155557 0)
(0.126119 -0.0158897 0)
(0.124917 -0.0161791 0)
(0.123553 -0.0164177 0)
(0.122022 -0.0165998 0)
(0.120319 -0.0167199 0)
(0.118443 -0.0167735 0)
(0.116394 -0.0167565 0)
(0.114172 -0.0166661 0)
(0.111783 -0.0165002 0)
(0.109234 -0.0162584 0)
(0.106533 -0.0159412 0)
(0.103694 -0.0155509 0)
(0.10073 -0.015091 0)
(0.0976599 -0.0145668 0)
(0.0945024 -0.0139848 0)
(0.0912791 -0.0133527 0)
(0.0880133 -0.0126794 0)
(0.084729 -0.0119743 0)
(0.0814507 -0.0112472 0)
(0.078203 -0.0105079 0)
(0.0750101 -0.00976581 0)
(0.071895 -0.00902964 0)
(0.0688796 -0.0083073 0)
(0.0659835 -0.0076057 0)
(0.0632244 -0.00693058 0)
(0.0606172 -0.00628662 0)
(0.0581737 -0.00567726 0)
(0.0559029 -0.00510492 0)
(0.0538102 -0.0045708 0)
(0.0518987 -0.00407523 0)
(0.0501673 -0.00361752 0)
(0.0486142 -0.00319629 0)
(0.0472333 -0.00280963 0)
(0.0460195 -0.00245487 0)
(0.0449629 -0.00212985 0)
(0.0440575 -0.00183083 0)
(0.0432909 -0.00155658 0)
(0.0426575 -0.00130188 0)
(0.0421445 -0.00106817 0)
(0.041746 -0.000847245 0)
(0.0414522 -0.00064514 0)
(0.137121 -0.00155258 0)
(0.137109 -0.00168231 0)
(0.137155 -0.00184653 0)
(0.137141 -0.00194205 0)
(0.137206 -0.00205625 0)
(0.137226 -0.00213084 0)
(0.137301 -0.00221107 0)
(0.137345 -0.00226682 0)
(0.137421 -0.00232221 0)
(0.137476 -0.00236144 0)
(0.137548 -0.00239849 0)
(0.137606 -0.00242464 0)
(0.137672 -0.00244862 0)
(0.137726 -0.00246539 0)
(0.137784 -0.00248068 0)
(0.137832 -0.00249143 0)
(0.137881 -0.00250156 0)
(0.137922 -0.00250917 0)
(0.13796 -0.00251696 0)
(0.137993 -0.00252378 0)
(0.138023 -0.00253149 0)
(0.138047 -0.00253939 0)
(0.138068 -0.00254881 0)
(0.138083 -0.00255934 0)
(0.138096 -0.00257193 0)
(0.138104 -0.00258635 0)
(0.138109 -0.00260333 0)
(0.13811 -0.00262274 0)
(0.138108 -0.00264516 0)
(0.138102 -0.00267057 0)
(0.138093 -0.00269942 0)
(0.138082 -0.00273179 0)
(0.138067 -0.00276803 0)
(0.138049 -0.00280835 0)
(0.138029 -0.00285294 0)
(0.138006 -0.00290229 0)
(0.13798 -0.00295623 0)
(0.137952 -0.00301583 0)
(0.13792 -0.00308013 0)
(0.137887 -0.0031514 0)
(0.13785 -0.00322714 0)
(0.137811 -0.00331165 0)
(0.137769 -0.00340008 0)
(0.137723 -0.00349926 0)
(0.137676 -0.00360241 0)
(0.137621 -0.00371644 0)
(0.137567 -0.00383854 0)
(0.137504 -0.00396905 0)
(0.137439 -0.00410944 0)
(0.137367 -0.00425934 0)
(0.13729 -0.0044199 0)
(0.137205 -0.00459117 0)
(0.137112 -0.00477391 0)
(0.13701 -0.00496841 0)
(0.136898 -0.00517523 0)
(0.136773 -0.00539472 0)
(0.136636 -0.00562731 0)
(0.136482 -0.0058733 0)
(0.136312 -0.00613298 0)
(0.136122 -0.00640655 0)
(0.135909 -0.00669411 0)
(0.135671 -0.00699566 0)
(0.135404 -0.00731107 0)
(0.135105 -0.00764004 0)
(0.134769 -0.00798212 0)
(0.134392 -0.00833666 0)
(0.13397 -0.00870276 0)
(0.133497 -0.00907928 0)
(0.132967 -0.00946482 0)
(0.132375 -0.00985765 0)
(0.131712 -0.0102557 0)
(0.130974 -0.0106566 0)
(0.130151 -0.0110576 0)
(0.129237 -0.0114556 0)
(0.128224 -0.011847 0)
(0.127103 -0.012228 0)
(0.125866 -0.0125943 0)
(0.124504 -0.0129414 0)
(0.123012 -0.0132644 0)
(0.121379 -0.0135582 0)
(0.1196 -0.0138176 0)
(0.117669 -0.0140373 0)
(0.11558 -0.0142119 0)
(0.113329 -0.0143364 0)
(0.110914 -0.0144058 0)
(0.108335 -0.014416 0)
(0.105592 -0.0143633 0)
(0.10269 -0.0142449 0)
(0.0996351 -0.0140592 0)
(0.0964359 -0.0138057 0)
(0.0931044 -0.0134853 0)
(0.089655 -0.0131005 0)
(0.086105 -0.012655 0)
(0.082474 -0.012154 0)
(0.0787841 -0.011604 0)
(0.0750591 -0.0110126 0)
(0.0713249 -0.0103881 0)
(0.0676083 -0.00973925 0)
(0.0639373 -0.00907526 0)
(0.0603399 -0.00840538 0)
(0.0568436 -0.00773875 0)
(0.0534748 -0.00708421 0)
(0.0502576 -0.00645001 0)
(0.0472133 -0.00584352 0)
(0.0443589 -0.00527089 0)
(0.0417072 -0.00473681 0)
(0.0392661 -0.00424429 0)
(0.0370384 -0.00379472 0)
(0.0350226 -0.00338782 0)
(0.0332135 -0.00302202 0)
(0.0316021 -0.00269461 0)
(0.0301783 -0.00240217 0)
(0.0289293 -0.00214093 0)
(0.0278432 -0.00190688 0)
(0.026906 -0.00169644 0)
(0.0261071 -0.00150573 0)
(0.0254327 -0.00133225 0)
(0.0248745 -0.00117228 0)
(0.0244197 -0.00102499 0)
(0.0240629 -0.000886365 0)
(0.0237923 -0.000757388 0)
(0.0236043 -0.000633731 0)
(0.0234901 -0.000516975 0)
(0.148385 -0.00159878 0)
(0.14833 -0.00174532 0)
(0.14823 -0.00192944 0)
(0.148137 -0.00202617 0)
(0.148048 -0.00214159 0)
(0.147943 -0.00220342 0)
(0.14785 -0.00227407 0)
(0.147738 -0.00231284 0)
(0.147635 -0.00235526 0)
(0.147516 -0.00237827 0)
(0.1474 -0.00240254 0)
(0.147272 -0.00241473 0)
(0.147145 -0.00242737 0)
(0.147007 -0.00243254 0)
(0.146868 -0.00243811 0)
(0.146721 -0.00243929 0)
(0.146571 -0.00244117 0)
(0.146414 -0.00244081 0)
(0.146253 -0.00244159 0)
(0.146087 -0.00244169 0)
(0.145916 -0.00244338 0)
(0.14574 -0.00244553 0)
(0.145559 -0.00244969 0)
(0.145374 -0.00245518 0)
(0.145184 -0.00246309 0)
(0.144988 -0.00247298 0)
(0.144789 -0.00248569 0)
(0.144584 -0.00250091 0)
(0.144374 -0.00251935 0)
(0.14416 -0.00254073 0)
(0.14394 -0.00256575 0)
(0.143715 -0.00259409 0)
(0.143484 -0.00262657 0)
(0.143248 -0.00266267 0)
(0.143006 -0.00270351 0)
(0.142758 -0.00274819 0)
(0.142503 -0.00279842 0)
(0.142241 -0.00285254 0)
(0.141973 -0.00291329 0)
(0.141696 -0.00297777 0)
(0.141412 -0.0030503 0)
(0.141118 -0.00312616 0)
(0.140815 -0.00321177 0)
(0.140502 -0.00330041 0)
(0.140179 -0.00339987 0)
(0.139843 -0.00350369 0)
(0.139496 -0.00361738 0)
(0.139134 -0.0037378 0)
(0.138758 -0.0038678 0)
(0.138365 -0.00400596 0)
(0.137955 -0.00415391 0)
(0.137526 -0.00431107 0)
(0.137077 -0.0044784 0)
(0.136604 -0.00465575 0)
(0.136108 -0.00484371 0)
(0.135584 -0.00504225 0)
(0.135032 -0.00525171 0)
(0.134447 -0.00547207 0)
(0.133828 -0.00570343 0)
(0.13317 -0.00594566 0)
(0.132472 -0.00619861 0)
(0.131728 -0.00646195 0)
(0.130936 -0.00673523 0)
(0.13009 -0.00701781 0)
(0.129186 -0.0073089 0)
(0.128219 -0.00760747 0)
(0.127185 -0.00791228 0)
(0.126077 -0.00822182 0)
(0.124889 -0.00853434 0)
(0.123616 -0.00884777 0)
(0.122252 -0.00915977 0)
(0.120789 -0.00946768 0)
(0.119222 -0.0097685 0)
(0.117544 -0.010059 0)
(0.115748 -0.0103355 0)
(0.113827 -0.0105942 0)
(0.111777 -0.010831 0)
(0.109591 -0.0110416 0)
(0.107265 -0.0112216 0)
(0.104795 -0.0113665 0)
(0.102178 -0.011472 0)
(0.0994131 -0.0115339 0)
(0.0965 -0.0115483 0)
(0.0934411 -0.0115118 0)
(0.0902406 -0.0114217 0)
(0.0869051 -0.0112762 0)
(0.0834434 -0.0110742 0)
(0.0798673 -0.010816 0)
(0.0761911 -0.0105026 0)
(0.072432 -0.0101365 0)
(0.0686101 -0.00972097 0)
(0.0647483 -0.00926078 0)
(0.0608721 -0.00876165 0)
(0.0570095 -0.00823054 0)
(0.0531907 -0.00767551 0)
(0.049447 -0.00710565 0)
(0.0458101 -0.0065308 0)
(0.0423111 -0.00596116 0)
(0.0389783 -0.00540676 0)
(0.0358363 -0.00487691 0)
(0.0329043 -0.00437957 0)
(0.0301953 -0.00392085 0)
(0.0277155 -0.00350464 0)
(0.0254649 -0.00313246 0)
(0.0234374 -0.00280356 0)
(0.0216227 -0.00251539 0)
(0.020007 -0.00226402 0)
(0.0185748 -0.00204486 0)
(0.0173097 -0.00185314 0)
(0.016196 -0.00168445 0)
(0.0152183 -0.00153488 0)
(0.0143634 -0.00140117 0)
(0.0136184 -0.00128078 0)
(0.0129733 -0.0011715 0)
(0.0124178 -0.00107192 0)
(0.0119449 -0.00098028 0)
(0.011546 -0.000896031 0)
(0.0112167 -0.000817227 0)
(0.0109497 -0.000744226 0)
(0.0107423 -0.000674434 0)
(0.0105888 -0.000609303 0)
(0.0104866 -0.000545357 0)
(0.0104322 -0.000485112 0)
(0.147834 -0.00142978 0)
(0.147684 -0.00155686 0)
(0.147456 -0.00169382 0)
(0.147243 -0.0017823 0)
(0.146998 -0.0018827 0)
(0.146752 -0.00194431 0)
(0.146492 -0.00201354 0)
(0.146225 -0.00205497 0)
(0.145949 -0.00209989 0)
(0.145666 -0.00212563 0)
(0.145376 -0.00215243 0)
(0.145078 -0.0021663 0)
(0.144773 -0.00218026 0)
(0.144462 -0.00218577 0)
(0.144145 -0.00219124 0)
(0.143822 -0.0021915 0)
(0.143493 -0.00219202 0)
(0.143158 -0.00218966 0)
(0.142818 -0.00218803 0)
(0.142473 -0.00218522 0)
(0.142122 -0.00218364 0)
(0.141766 -0.00218213 0)
(0.141404 -0.00218231 0)
(0.141038 -0.00218349 0)
(0.140666 -0.00218679 0)
(0.140289 -0.00219179 0)
(0.139906 -0.00219928 0)
(0.139517 -0.00220905 0)
(0.139122 -0.00222165 0)
(0.13872 -0.002237 0)
(0.138312 -0.00225551 0)
(0.137897 -0.0022772 0)
(0.137474 -0.00230238 0)
(0.137043 -0.00233117 0)
(0.136604 -0.00236374 0)
(0.136156 -0.00240042 0)
(0.135697 -0.00244114 0)
(0.135229 -0.00248653 0)
(0.134749 -0.0025362 0)
(0.134257 -0.00259121 0)
(0.133752 -0.00265068 0)
(0.133233 -0.00271619 0)
(0.1327 -0.00278651 0)
(0.132149 -0.00286329 0)
(0.131583 -0.00294576 0)
(0.130997 -0.00303446 0)
(0.130391 -0.00313037 0)
(0.129763 -0.00323235 0)
(0.129113 -0.00334207 0)
(0.128437 -0.00345844 0)
(0.127734 -0.00358279 0)
(0.127002 -0.00371441 0)
(0.126239 -0.00385417 0)
(0.125441 -0.00400163 0)
(0.124607 -0.0041573 0)
(0.123734 -0.00432087 0)
(0.122819 -0.00449254 0)
(0.121858 -0.00467199 0)
(0.120849 -0.00485915 0)
(0.119787 -0.00505358 0)
(0.118669 -0.00525494 0)
(0.117491 -0.00546257 0)
(0.116249 -0.00567579 0)
(0.114937 -0.00589368 0)
(0.113553 -0.00611518 0)
(0.11209 -0.00633898 0)
(0.110545 -0.00656361 0)
(0.108912 -0.00678733 0)
(0.107185 -0.00700819 0)
(0.105361 -0.00722397 0)
(0.103434 -0.00743225 0)
(0.1014 -0.00763034 0)
(0.099253 -0.00781536 0)
(0.0969903 -0.00798423 0)
(0.094608 -0.00813374 0)
(0.0921031 -0.00826058 0)
(0.0894737 -0.00836137 0)
(0.0867188 -0.0084328 0)
(0.0838387 -0.00847164 0)
(0.0808354 -0.00847483 0)
(0.0777122 -0.00843961 0)
(0.0744746 -0.00836359 0)
(0.0711303 -0.00824486 0)
(0.0676892 -0.00808211 0)
(0.0641641 -0.00787483 0)
(0.0605704 -0.00762338 0)
(0.0569268 -0.00732925 0)
(0.0532549 -0.00699514 0)
(0.0495797 -0.00662508 0)
(0.0459289 -0.00622455 0)
(0.0423324 -0.0058004 0)
(0.0388214 -0.00536076 0)
(0.0354273 -0.00491475 0)
(0.0321799 -0.0044721 0)
(0.0291055 -0.00404248 0)
(0.0262257 -0.00363483 0)
(0.023556 -0.00325651 0)
(0.0211049 -0.00291266 0)
(0.0188735 -0.00260585 0)
(0.0168568 -0.00233602 0)
(0.015044 -0.0021009 0)
(0.0134209 -0.00189671 0)
(0.0119712 -0.00171892 0)
(0.0106783 -0.00156309 0)
(0.00952579 -0.0014253 0)
(0.00849877 -0.00130256 0)
(0.00758335 -0.00119273 0)
(0.00676732 -0.0010945 0)
(0.00603957 -0.00100701 0)
(0.0053909 -0.000929692 0)
(0.00481287 -0.000861977 0)
(0.00429906 -0.000803091 0)
(0.00384306 -0.000752212 0)
(0.00344053 -0.000708088 0)
(0.00308627 -0.000669827 0)
(0.0027774 -0.000635873 0)
(0.00250941 -0.000605731 0)
(0.00228054 -0.000577685 0)
(0.0020868 -0.000551929 0)
(0.00192726 -0.0005266 0)
(0.00179866 -0.000502511 0)
(0.00170032 -0.000477875 0)
(0.00163024 -0.000453518 0)
(0.135261 -0.0012241 0)
(0.13502 -0.00134332 0)
(0.134676 -0.00146503 0)
(0.134363 -0.00154819 0)
(0.133989 -0.00163382 0)
(0.133627 -0.00168482 0)
(0.133225 -0.00173759 0)
(0.132825 -0.00176452 0)
(0.1324 -0.00179242 0)
(0.131971 -0.00180261 0)
(0.131525 -0.00181333 0)
(0.131074 -0.00181256 0)
(0.130611 -0.00181224 0)
(0.130143 -0.00180486 0)
(0.129665 -0.00179814 0)
(0.129183 -0.00178744 0)
(0.128693 -0.00177771 0)
(0.128199 -0.00176612 0)
(0.127699 -0.00175586 0)
(0.127195 -0.00174517 0)
(0.126686 -0.00173615 0)
(0.126173 -0.00172769 0)
(0.125654 -0.00172119 0)
(0.125132 -0.00171594 0)
(0.124604 -0.00171289 0)
(0.124071 -0.00171159 0)
(0.123533 -0.00171271 0)
(0.122989 -0.00171594 0)
(0.122439 -0.00172179 0)
(0.121882 -0.00173003 0)
(0.121319 -0.00174113 0)
(0.120747 -0.00175483 0)
(0.120168 -0.00177166 0)
(0.119579 -0.00179125 0)
(0.118981 -0.0018143 0)
(0.118372 -0.00184022 0)
(0.117752 -0.00187002 0)
(0.117119 -0.00190274 0)
(0.116473 -0.00193986 0)
(0.115812 -0.00197987 0)
(0.115135 -0.00202491 0)
(0.114442 -0.00207278 0)
(0.11373 -0.00212628 0)
(0.112998 -0.00218272 0)
(0.112245 -0.00224507 0)
(0.111469 -0.00231091 0)
(0.110668 -0.00238251 0)
(0.10984 -0.00245818 0)
(0.108983 -0.00253962 0)
(0.108096 -0.00262556 0)
(0.107176 -0.0027172 0)
(0.106219 -0.00281366 0)
(0.105225 -0.00291567 0)
(0.10419 -0.0030226 0)
(0.103112 -0.00313481 0)
(0.101987 -0.00325178 0)
(0.100813 -0.00337358 0)
(0.0995857 -0.00349968 0)
(0.0983025 -0.00362986 0)
(0.0969596 -0.00376349 0)
(0.0955537 -0.0039001 0)
(0.094081 -0.00403886 0)
(0.0925381 -0.00417901 0)
(0.0909211 -0.00431949 0)
(0.0892264 -0.00445921 0)
(0.0874505 -0.00459683 0)
(0.08559 -0.00473091 0)
(0.0836416 -0.0048598 0)
(0.0816024 -0.00498172 0)
(0.0794698 -0.00509469 0)
(0.0772418 -0.00519662 0)
(0.0749167 -0.00528527 0)
(0.072494 -0.0053583 0)
(0.0699736 -0.00541332 0)
(0.0673568 -0.00544794 0)
(0.0646461 -0.0054598 0)
(0.0618453 -0.00544668 0)
(0.05896 -0.00540659 0)
(0.0559979 -0.00533784 0)
(0.0529687 -0.00523916 0)
(0.0498844 -0.00510986 0)
(0.0467599 -0.00494992 0)
(0.0436124 -0.00476019 0)
(0.0404617 -0.00454248 0)
(0.0373301 -0.00429975 0)
(0.0342416 -0.00403614 0)
(0.0312215 -0.00375696 0)
(0.0282951 -0.00346852 0)
(0.0254867 -0.00317777 0)
(0.0228186 -0.00289183 0)
(0.0203089 -0.00261737 0)
(0.0179711 -0.00236003 0)
(0.0158127 -0.00212383 0)
(0.0138352 -0.00191089 0)
(0.012035 -0.00172135 0)
(0.0104045 -0.00155367 0)
(0.00893361 -0.00140502 0)
(0.00761062 -0.00127202 0)
(0.00642298 -0.0011513 0)
(0.00535762 -0.00104035 0)
(0.00440135 -0.000937903 0)
(0.00354163 -0.000844121 0)
(0.00276711 -0.000760079 0)
(0.00206815 -0.000687028 0)
(0.00143663 -0.000625594 0)
(0.000865924 -0.000575466 0)
(0.000350066 -0.000535442 0)
(-0.000116119 -0.000503871 0)
(-0.000537841 -0.000479044 0)
(-0.00091961 -0.000459471 0)
(-0.00126617 -0.000444017 0)
(-0.0015812 -0.000431731 0)
(-0.00186871 -0.000422029 0)
(-0.00213125 -0.000414176 0)
(-0.00237198 -0.000407947 0)
(-0.0025923 -0.000402568 0)
(-0.00279462 -0.000398187 0)
(-0.00297948 -0.000393843 0)
(-0.0031486 -0.000390118 0)
(-0.00330215 -0.000385764 0)
(-0.00344108 -0.000381769 0)
(-0.00356565 -0.000376646 0)
(-0.00367597 -0.000371567 0)
(0.110776 -0.000899593 0)
(0.11045 -0.00098309 0)
(0.110006 -0.0010551 0)
(0.109596 -0.0011089 0)
(0.109104 -0.00115948 0)
(0.108631 -0.00119049 0)
(0.108102 -0.0012214 0)
(0.107582 -0.00123624 0)
(0.107025 -0.00125155 0)
(0.106473 -0.00125511 0)
(0.105896 -0.00125898 0)
(0.10532 -0.00125484 0)
(0.104728 -0.00125092 0)
(0.104137 -0.00124188 0)
(0.103534 -0.00123315 0)
(0.102933 -0.00122143 0)
(0.102324 -0.00121027 0)
(0.101715 -0.00119766 0)
(0.101101 -0.00118588 0)
(0.100488 -0.00117375 0)
(0.0998714 -0.00116274 0)
(0.0992545 -0.00115215 0)
(0.0986348 -0.00114293 0)
(0.0980143 -0.00113465 0)
(0.0973912 -0.00112796 0)
(0.0967665 -0.00112261 0)
(0.0961387 -0.001119 0)
(0.0955083 -0.00111701 0)
(0.094874 -0.00111691 0)
(0.0942359 -0.00111865 0)
(0.0935926 -0.00112239 0)
(0.092944 -0.00112815 0)
(0.0922888 -0.00113602 0)
(0.0916266 -0.00114609 0)
(0.090956 -0.00115835 0)
(0.0902764 -0.001173 0)
(0.0895864 -0.00118991 0)
(0.0888851 -0.0012094 0)
(0.0881711 -0.00123121 0)
(0.0874434 -0.00125581 0)
(0.0867003 -0.0012828 0)
(0.0859406 -0.00131272 0)
(0.0851626 -0.00134521 0)
(0.0843648 -0.00138058 0)
(0.0835457 -0.00141889 0)
(0.0827031 -0.00145982 0)
(0.0818355 -0.00150412 0)
(0.0809407 -0.00155087 0)
(0.080017 -0.00160102 0)
(0.0790619 -0.00165362 0)
(0.0780736 -0.00170944 0)
(0.0770493 -0.00176769 0)
(0.0759872 -0.00182885 0)
(0.0748843 -0.00189225 0)
(0.0737387 -0.00195812 0)
(0.0725474 -0.00202585 0)
(0.0713082 -0.0020954 0)
(0.0700182 -0.00216618 0)
(0.0686753 -0.0022379 0)
(0.0672766 -0.0023099 0)
(0.06582 -0.00238169 0)
(0.064303 -0.00245246 0)
(0.0627237 -0.00252149 0)
(0.0610803 -0.00258785 0)
(0.0593712 -0.00265058 0)
(0.0575952 -0.00270858 0)
(0.0557519 -0.0027607 0)
(0.053841 -0.00280567 0)
(0.0518633 -0.0028422 0)
(0.0498201 -0.00286891 0)
(0.047714 -0.00288445 0)
(0.0455483 -0.00288748 0)
(0.0433277 -0.00287676 0)
(0.0410583 -0.0028512 0)
(0.0387477 -0.00280995 0)
(0.0364048 -0.00275248 0)
(0.0340404 -0.00267865 0)
(0.0316669 -0.00258883 0)
(0.0292981 -0.00248394 0)
(0.0269495 -0.0023655 0)
(0.0246371 -0.00223564 0)
(0.0223778 -0.00209703 0)
(0.0201881 -0.00195279 0)
(0.0180836 -0.00180633 0)
(0.0160777 -0.00166109 0)
(0.0141816 -0.00152033 0)
(0.012403 -0.00138678 0)
(0.010747 -0.00126243 0)
(0.00921556 -0.00114823 0)
(0.00780821 -0.00104392 0)
(0.00652238 -0.000948058 0)
(0.0053534 -0.000858357 0)
(0.00429473 -0.000772441 0)
(0.00333825 -0.000688903 0)
(0.00247489 -0.000608081 0)
(0.00169552 -0.000532042 0)
(0.000991627 -0.000463629 0)
(0.000355878 -0.000405124 0)
(-0.000217939 -0.000357292 0)
(-0.000735109 -0.000319343 0)
(-0.0012005 -0.000289578 0)
(-0.00161886 -0.000266236 0)
(-0.00199525 -0.000247958 0)
(-0.00233482 -0.000233837 0)
(-0.00264289 -0.000223163 0)
(-0.00292432 -0.000215273 0)
(-0.00318361 -0.000209503 0)
(-0.00342429 -0.000205312 0)
(-0.00364955 -0.000202379 0)
(-0.00386157 -0.000200582 0)
(-0.00406257 -0.000199988 0)
(-0.00425387 -0.000200602 0)
(-0.00443719 -0.000202522 0)
(-0.00461325 -0.000205514 0)
(-0.00478344 -0.000209583 0)
(-0.00494798 -0.000214213 0)
(-0.00510798 -0.000219476 0)
(-0.0052633 -0.000224674 0)
(-0.0054147 -0.000230087 0)
(-0.00556189 -0.000234941 0)
(-0.00570518 -0.000239678 0)
(-0.00584441 -0.000243615 0)
(-0.00597929 -0.000247106 0)
(0.0744497 -0.000509953 0)
(0.0740758 -0.000563968 0)
(0.0735683 -0.000603605 0)
(0.0731086 -0.000636504 0)
(0.0725523 -0.000660337 0)
(0.0720287 -0.000673927 0)
(0.0714395 -0.000682122 0)
(0.070873 -0.000681261 0)
(0.0702643 -0.000677447 0)
(0.0696724 -0.000667235 0)
(0.069055 -0.000655703 0)
(0.0684511 -0.000640342 0)
(0.0678333 -0.000624765 0)
(0.0672271 -0.000607339 0)
(0.0666147 -0.000590435 0)
(0.0660128 -0.000573043 0)
(0.0654097 -0.000556642 0)
(0.064816 -0.000540618 0)
(0.064224 -0.000525858 0)
(0.0636405 -0.00051198 0)
(0.06306 -0.000499503 0)
(0.0624868 -0.000488177 0)
(0.061917 -0.000478294 0)
(0.0613531 -0.000469682 0)
(0.0607922 -0.000462501 0)
(0.0602356 -0.000456621 0)
(0.0596811 -0.000452137 0)
(0.0591292 -0.000448932 0)
(0.0585779 -0.000447082 0)
(0.0580274 -0.000446465 0)
(0.0574758 -0.000447171 0)
(0.0569229 -0.000449049 0)
(0.0563672 -0.000452242 0)
(0.0558079 -0.000456527 0)
(0.0552437 -0.000462155 0)
(0.0546737 -0.000468775 0)
(0.0540964 -0.000476806 0)
(0.053511 -0.000485699 0)
(0.0529159 -0.000496114 0)
(0.0523101 -0.000507232 0)
(0.051692 -0.000519997 0)
(0.0510607 -0.000533314 0)
(0.0504141 -0.000548345 0)
(0.0497516 -0.000563859 0)
(0.0490711 -0.000581002 0)
(0.0483716 -0.00059868 0)
(0.0476511 -0.000617767 0)
(0.0469085 -0.000637395 0)
(0.0461421 -0.000658232 0)
(0.0453502 -0.000679552 0)
(0.0445316 -0.00070182 0)
(0.0436843 -0.000724434 0)
(0.0428074 -0.000747661 0)
(0.0418989 -0.000770992 0)
(0.0409578 -0.000794516 0)
(0.0399826 -0.000817777 0)
(0.0389725 -0.000840714 0)
(0.0379261 -0.000862889 0)
(0.036843 -0.000884113 0)
(0.0357223 -0.000903943 0)
(0.0345642 -0.000922091 0)
(0.0333684 -0.000938094 0)
(0.0321357 -0.000951596 0)
(0.0308669 -0.000962128 0)
(0.0295637 -0.0009693 0)
(0.0282279 -0.000972669 0)
(0.0268626 -0.000971868 0)
(0.0254709 -0.00096653 0)
(0.0240572 -0.000956386 0)
(0.0226264 -0.000941223 0)
(0.0211842 -0.00092096 0)
(0.0197369 -0.000895633 0)
(0.0182916 -0.000865454 0)
(0.0168557 -0.000830807 0)
(0.0154371 -0.000792286 0)
(0.0140437 -0.000750684 0)
(0.0126834 -0.000706989 0)
(0.0113638 -0.000662326 0)
(0.0100918 -0.000617878 0)
(0.00887375 -0.000574739 0)
(0.00771514 -0.000533742 0)
(0.0066204 -0.000495249 0)
(0.00559291 -0.000459002 0)
(0.00463482 -0.000424098 0)
(0.00374711 -0.000389197 0)
(0.00292945 -0.000352983 0)
(0.00218028 -0.000314753 0)
(0.00149692 -0.000274868 0)
(0.000875738 -0.000234816 0)
(0.000312545 -0.000196764 0)
(-0.000196981 -0.000162807 0)
(-0.000656801 -0.000134283 0)
(-0.0010702 -0.000111499 0)
(-0.00143984 -9.39675e-05 0)
(-0.00176816 -8.08812e-05 0)
(-0.00205808 -7.1479e-05 0)
(-0.00231342 -6.50663e-05 0)
(-0.00253876 -6.08345e-05 0)
(-0.00273902 -5.77586e-05 0)
(-0.00291865 -5.47856e-05 0)
(-0.00308135 -5.11919e-05 0)
(-0.00322991 -4.68751e-05 0)
(-0.00336663 -4.23358e-05 0)
(-0.00349346 -3.8399e-05 0)
(-0.00361236 -3.58224e-05 0)
(-0.00372499 -3.50338e-05 0)
(-0.00383301 -3.60665e-05 0)
(-0.00393758 -3.86529e-05 0)
(-0.00403989 -4.24097e-05 0)
(-0.00414062 -4.69242e-05 0)
(-0.00424078 -5.19053e-05 0)