/*--------------------------------*- C++ -*----------------------------------*\
| =========                 |                                                 |
| \\      /  F ield         | OpenFOAM: The Open Source CFD Toolbox           |
|  \\    /   O peration     | Version:  4.1                                   |
|   \\  /    A nd           | Web:      www.OpenFOAM.org                      |
|    \\/     M anipulation  |                                                 |
\*---------------------------------------------------------------------------*/
FoamFile
{
    version     2.0;
    format      ascii;
    class       volScalarField;
    location    "73";
    object      p;
}
// * * * * * * * * * * * * * * * * * * * * * * * * * * * * * * * * * * * * * //

dimensions      [1 -1 -2 0 0 0 0];

internalField   nonuniform List<scalar> 
3264
(
0.713166
0.713159
0.713145
0.713125
0.713101
0.713076
0.713051
0.713029
0.71301
0.712997
0.712992
0.712996
0.713011
0.713038
0.713078
0.713131
0.713198
0.713279
0.713374
0.713483
0.713604
0.713736
0.713879
0.714031
0.714189
0.714352
0.714519
0.714686
0.714852
0.715014
0.715172
0.715323
0.715465
0.715598
0.715719
0.71583
0.715927
0.716013
0.716086
0.716146
0.716195
0.716233
0.716262
0.716282
0.716294
0.7163
0.7163
0.716297
0.716291
0.716283
0.716273
0.716263
0.716252
0.716241
0.716229
0.716218
0.716207
0.716195
0.716183
0.716172
0.71616
0.716147
0.716135
0.716123
0.71611
0.716097
0.716084
0.716071
0.716058
0.716045
0.716032
0.716019
0.716005
0.715992
0.715978
0.715965
0.715952
0.715938
0.715925
0.715911
0.715898
0.715884
0.715871
0.715857
0.715844
0.71583
0.715817
0.715803
0.71579
0.715776
0.715763
0.715749
0.715736
0.715722
0.715709
0.715696
0.715682
0.715669
0.715655
0.715642
0.715628
0.715615
0.715601
0.715588
0.715574
0.715561
0.715547
0.715534
0.71552
0.715507
0.715493
0.71548
0.715466
0.715453
0.715439
0.715426
0.715412
0.715399
0.715385
0.715372
0.715358
0.715345
0.715331
0.715318
0.715304
0.715291
0.715277
0.715264
0.71525
0.715237
0.715223
0.71521
0.715196
0.715183
0.715169
0.715156
0.715142
0.715129
0.715116
0.715102
0.715089
0.715075
0.715062
0.715048
0.715035
0.715021
0.715008
0.714994
0.714981
0.714967
0.714954
0.71494
0.714927
0.714913
0.7149
0.714886
0.714873
0.714859
0.714846
0.714832
0.714819
0.714805
0.714792
0.714778
0.714765
0.714751
0.714738
0.714724
0.714711
0.714697
0.714684
0.71467
0.714657
0.714643
0.71463
0.714616
0.714603
0.714589
0.714576
0.714563
0.714549
0.714536
0.714522
0.714509
0.714495
0.714482
0.714468
0.714455
0.714441
0.714428
0.714414
0.714401
0.714387
0.714374
0.71436
0.714347
0.714333
0.71432
0.714306
0.714293
0.713177
0.713169
0.713157
0.713139
0.713116
0.71309
0.713062
0.713035
0.713013
0.712996
0.712988
0.71299
0.713003
0.713027
0.713065
0.713117
0.713182
0.713262
0.713356
0.713464
0.713584
0.713716
0.713858
0.714009
0.714167
0.71433
0.714497
0.714664
0.71483
0.714994
0.715152
0.715303
0.715447
0.715581
0.715704
0.715816
0.715916
0.716004
0.716079
0.716142
0.716193
0.716233
0.716263
0.716284
0.716297
0.716303
0.716303
0.7163
0.716293
0.716284
0.716274
0.716264
0.716252
0.716241
0.71623
0.716218
0.716207
0.716195
0.716184
0.716172
0.71616
0.716148
0.716135
0.716123
0.71611
0.716097
0.716084
0.716071
0.716058
0.716045
0.716032
0.716019
0.716005
0.715992
0.715979
0.715965
0.715952
0.715938
0.715925
0.715911
0.715898
0.715884
0.715871
0.715857
0.715844
0.71583
0.715817
0.715803
0.71579
0.715776
0.715763
0.715749
0.715736
0.715722
0.715709
0.715696
0.715682
0.715669
0.715655
0.715642
0.715628
0.715615
0.715601
0.715588
0.715574
0.715561
0.715547
0.715534
0.71552
0.715507
0.715493
0.71548
0.715466
0.715453
0.715439
0.715426
0.715412
0.715399
0.715385
0.715372
0.715358
0.715345
0.715331
0.715318
0.715304
0.715291
0.715277
0.715264
0.71525
0.715237
0.715223
0.71521
0.715196
0.715183
0.715169
0.715156
0.715142
0.715129
0.715116
0.715102
0.715089
0.715075
0.715062
0.715048
0.715035
0.715021
0.715008
0.714994
0.714981
0.714967
0.714954
0.71494
0.714927
0.714913
0.7149
0.714886
0.714873
0.714859
0.714846
0.714832
0.714819
0.714805
0.714792
0.714778
0.714765
0.714751
0.714738
0.714724
0.714711
0.714697
0.714684
0.71467
0.714657
0.714643
0.71463
0.714616
0.714603
0.714589
0.714576
0.714563
0.714549
0.714536
0.714522
0.714509
0.714495
0.714482
0.714468
0.714455
0.714441
0.714428
0.714414
0.714401
0.714387
0.714374
0.71436
0.714347
0.714333
0.71432
0.714306
0.714293
0.713188
0.713179
0.713165
0.713144
0.713116
0.713085
0.713053
0.713023
0.712998
0.71298
0.71297
0.712971
0.712982
0.713005
0.713042
0.713093
0.713157
0.713236
0.713329
0.713436
0.713555
0.713687
0.713829
0.713979
0.714137
0.7143
0.714466
0.714634
0.7148
0.714964
0.715122
0.715275
0.715419
0.715555
0.71568
0.715793
0.715896
0.715986
0.716064
0.71613
0.716184
0.716227
0.716259
0.716282
0.716297
0.716304
0.716305
0.716302
0.716295
0.716286
0.716276
0.716265
0.716254
0.716242
0.716231
0.716219
0.716208
0.716196
0.716184
0.716172
0.71616
0.716148
0.716136
0.716123
0.71611
0.716098
0.716085
0.716072
0.716058
0.716045
0.716032
0.716019
0.716005
0.715992
0.715979
0.715965
0.715952
0.715938
0.715925
0.715911
0.715898
0.715884
0.715871
0.715857
0.715844
0.71583
0.715817
0.715803
0.71579
0.715776
0.715763
0.715749
0.715736
0.715722
0.715709
0.715696
0.715682
0.715669
0.715655
0.715642
0.715628
0.715615
0.715601
0.715588
0.715574
0.715561
0.715547
0.715534
0.71552
0.715507
0.715493
0.71548
0.715466
0.715453
0.715439
0.715426
0.715412
0.715399
0.715385
0.715372
0.715358
0.715345
0.715331
0.715318
0.715304
0.715291
0.715277
0.715264
0.71525
0.715237
0.715223
0.71521
0.715196
0.715183
0.715169
0.715156
0.715142
0.715129
0.715116
0.715102
0.715089
0.715075
0.715062
0.715048
0.715035
0.715021
0.715008
0.714994
0.714981
0.714967
0.714954
0.71494
0.714927
0.714913
0.7149
0.714886
0.714873
0.714859
0.714846
0.714832
0.714819
0.714805
0.714792
0.714778
0.714765
0.714751
0.714738
0.714724
0.714711
0.714697
0.714684
0.71467
0.714657
0.714643
0.71463
0.714616
0.714603
0.714589
0.714576
0.714563
0.714549
0.714536
0.714522
0.714509
0.714495
0.714482
0.714468
0.714455
0.714441
0.714428
0.714414
0.714401
0.714387
0.714374
0.71436
0.714347
0.714333
0.71432
0.714306
0.714293
0.713187
0.71318
0.713165
0.713142
0.71311
0.713075
0.71304
0.713008
0.71298
0.71296
0.712948
0.712947
0.712956
0.712978
0.713014
0.713063
0.713126
0.713203
0.713295
0.7134
0.713519
0.713649
0.71379
0.713939
0.714096
0.714258
0.714423
0.71459
0.714755
0.714918
0.715077
0.71523
0.715375
0.715511
0.715638
0.715754
0.715859
0.715953
0.716035
0.716105
0.716163
0.71621
0.716247
0.716273
0.716291
0.7163
0.716304
0.716302
0.716296
0.716288
0.716278
0.716267
0.716256
0.716244
0.716233
0.716221
0.716209
0.716197
0.716185
0.716173
0.716161
0.716149
0.716136
0.716123
0.716111
0.716098
0.716085
0.716072
0.716059
0.716045
0.716032
0.716019
0.716005
0.715992
0.715979
0.715965
0.715952
0.715938
0.715925
0.715911
0.715898
0.715884
0.715871
0.715857
0.715844
0.71583
0.715817
0.715803
0.71579
0.715776
0.715763
0.715749
0.715736
0.715722
0.715709
0.715696
0.715682
0.715669
0.715655
0.715642
0.715628
0.715615
0.715601
0.715588
0.715574
0.715561
0.715547
0.715534
0.71552
0.715507
0.715493
0.71548
0.715466
0.715453
0.715439
0.715426
0.715412
0.715399
0.715385
0.715372
0.715358
0.715345
0.715331
0.715318
0.715304
0.715291
0.715277
0.715264
0.71525
0.715237
0.715223
0.71521
0.715196
0.715183
0.715169
0.715156
0.715142
0.715129
0.715116
0.715102
0.715089
0.715075
0.715062
0.715048
0.715035
0.715021
0.715008
0.714994
0.714981
0.714967
0.714954
0.71494
0.714927
0.714913
0.7149
0.714886
0.714873
0.714859
0.714846
0.714832
0.714819
0.714805
0.714792
0.714778
0.714765
0.714751
0.714738
0.714724
0.714711
0.714697
0.714684
0.71467
0.714657
0.714643
0.71463
0.714616
0.714603
0.714589
0.714576
0.714563
0.714549
0.714536
0.714522
0.714509
0.714495
0.714482
0.714468
0.714455
0.714441
0.714428
0.714414
0.714401
0.714387
0.714374
0.71436
0.714347
0.714333
0.71432
0.714306
0.714293
0.713182
0.71318
0.713164
0.713139
0.713104
0.713068
0.71303
0.712996
0.712968
0.712946
0.712933
0.712929
0.712937
0.712958
0.712992
0.713039
0.713101
0.713177
0.713267
0.713371
0.713488
0.713616
0.713755
0.713902
0.714057
0.714216
0.714379
0.714543
0.714705
0.714866
0.715021
0.715172
0.715315
0.715451
0.715578
0.715697
0.715805
0.715904
0.715992
0.716068
0.716132
0.716185
0.716227
0.716259
0.716281
0.716294
0.7163
0.716301
0.716296
0.716289
0.71628
0.71627
0.716258
0.716247
0.716235
0.716223
0.716211
0.716199
0.716187
0.716175
0.716162
0.71615
0.716137
0.716124
0.716111
0.716098
0.716085
0.716072
0.716059
0.716045
0.716032
0.716019
0.716005
0.715992
0.715979
0.715965
0.715952
0.715938
0.715925
0.715911
0.715898
0.715884
0.715871
0.715857
0.715844
0.71583
0.715817
0.715803
0.71579
0.715776
0.715763
0.715749
0.715736
0.715722
0.715709
0.715696
0.715682
0.715669
0.715655
0.715642
0.715628
0.715615
0.715601
0.715588
0.715574
0.715561
0.715547
0.715534
0.71552
0.715507
0.715493
0.71548
0.715466
0.715453
0.715439
0.715426
0.715412
0.715399
0.715385
0.715372
0.715358
0.715345
0.715331
0.715318
0.715304
0.715291
0.715277
0.715264
0.71525
0.715237
0.715223
0.71521
0.715196
0.715183
0.715169
0.715156
0.715142
0.715129
0.715116
0.715102
0.715089
0.715075
0.715062
0.715048
0.715035
0.715021
0.715008
0.714994
0.714981
0.714967
0.714954
0.71494
0.714927
0.714913
0.7149
0.714886
0.714873
0.714859
0.714846
0.714832
0.714819
0.714805
0.714792
0.714778
0.714765
0.714751
0.714738
0.714724
0.714711
0.714697
0.714684
0.71467
0.714657
0.714643
0.71463
0.714616
0.714603
0.714589
0.714576
0.714563
0.714549
0.714536
0.714522
0.714509
0.714495
0.714482
0.714468
0.714455
0.714441
0.714428
0.714414
0.714401
0.714387
0.714374
0.71436
0.714347
0.714333
0.71432
0.714306
0.714293
0.71315
0.713168
0.713157
0.71314
0.713108
0.713071
0.713033
0.712998
0.712967
0.712943
0.712928
0.712923
0.71293
0.712948
0.71298
0.713026
0.713086
0.713161
0.713249
0.713351
0.713465
0.713591
0.713726
0.71387
0.71402
0.714175
0.714332
0.71449
0.714646
0.7148
0.714949
0.715093
0.715231
0.715362
0.715486
0.715603
0.715713
0.715815
0.715911
0.715998
0.716076
0.716142
0.716196
0.716238
0.716268
0.716287
0.716297
0.7163
0.716297
0.716291
0.716282
0.716272
0.716261
0.71625
0.716238
0.716226
0.716214
0.716201
0.716189
0.716176
0.716164
0.716151
0.716138
0.716125
0.716112
0.716099
0.716085
0.716072
0.716059
0.716046
0.716032
0.716019
0.716005
0.715992
0.715979
0.715965
0.715952
0.715938
0.715925
0.715911
0.715898
0.715884
0.715871
0.715857
0.715844
0.71583
0.715817
0.715803
0.71579
0.715776
0.715763
0.715749
0.715736
0.715722
0.715709
0.715696
0.715682
0.715669
0.715655
0.715642
0.715628
0.715615
0.715601
0.715588
0.715574
0.715561
0.715547
0.715534
0.71552
0.715507
0.715493
0.71548
0.715466
0.715453
0.715439
0.715426
0.715412
0.715399
0.715385
0.715372
0.715358
0.715345
0.715331
0.715318
0.715304
0.715291
0.715277
0.715264
0.71525
0.715237
0.715223
0.71521
0.715196
0.715183
0.715169
0.715156
0.715142
0.715129
0.715116
0.715102
0.715089
0.715075
0.715062
0.715048
0.715035
0.715021
0.715008
0.714994
0.714981
0.714967
0.714954
0.71494
0.714927
0.714913
0.7149
0.714886
0.714873
0.714859
0.714846
0.714832
0.714819
0.714805
0.714792
0.714778
0.714765
0.714751
0.714738
0.714724
0.714711
0.714697
0.714684
0.71467
0.714657
0.714643
0.71463
0.714616
0.714603
0.714589
0.714576
0.714563
0.714549
0.714536
0.714522
0.714509
0.714495
0.714482
0.714468
0.714455
0.714441
0.714428
0.714414
0.714401
0.714387
0.714374
0.71436
0.714347
0.714333
0.71432
0.714306
0.714293
0.713164
0.713189
0.713179
0.713161
0.713127
0.713088
0.713048
0.713011
0.712978
0.712953
0.712936
0.71293
0.712935
0.712953
0.712984
0.713029
0.713088
0.713161
0.713247
0.713347
0.713458
0.71358
0.713711
0.713849
0.713992
0.714139
0.714287
0.714434
0.714579
0.714721
0.714858
0.714989
0.715116
0.715237
0.715353
0.715465
0.715574
0.715679
0.715781
0.715879
0.715973
0.716058
0.716133
0.716195
0.716242
0.716273
0.716291
0.716299
0.716299
0.716294
0.716285
0.716276
0.716265
0.716253
0.716241
0.716229
0.716216
0.716204
0.716191
0.716178
0.716165
0.716152
0.716139
0.716126
0.716113
0.716099
0.716086
0.716073
0.716059
0.716046
0.716032
0.716019
0.716006
0.715992
0.715979
0.715965
0.715952
0.715938
0.715925
0.715911
0.715898
0.715884
0.715871
0.715857
0.715844
0.71583
0.715817
0.715803
0.71579
0.715776
0.715763
0.715749
0.715736
0.715722
0.715709
0.715696
0.715682
0.715669
0.715655
0.715642
0.715628
0.715615
0.715601
0.715588
0.715574
0.715561
0.715547
0.715534
0.71552
0.715507
0.715493
0.71548
0.715466
0.715453
0.715439
0.715426
0.715412
0.715399
0.715385
0.715372
0.715358
0.715345
0.715331
0.715318
0.715304
0.715291
0.715277
0.715264
0.71525
0.715237
0.715223
0.71521
0.715196
0.715183
0.715169
0.715156
0.715142
0.715129
0.715116
0.715102
0.715089
0.715075
0.715062
0.715048
0.715035
0.715021
0.715008
0.714994
0.714981
0.714967
0.714954
0.71494
0.714927
0.714913
0.7149
0.714886
0.714873
0.714859
0.714846
0.714832
0.714819
0.714805
0.714792
0.714778
0.714765
0.714751
0.714738
0.714724
0.714711
0.714697
0.714684
0.71467
0.714657
0.714643
0.71463
0.714616
0.714603
0.714589
0.714576
0.714563
0.714549
0.714536
0.714522
0.714509
0.714495
0.714482
0.714468
0.714455
0.714441
0.714428
0.714414
0.714401
0.714387
0.714374
0.71436
0.714347
0.714333
0.71432
0.714306
0.714293
0.71301
0.713167
0.713182
0.713184
0.713153
0.713115
0.713073
0.713034
0.713
0.712974
0.712957
0.712951
0.712957
0.712975
0.713007
0.713052
0.713112
0.713184
0.71327
0.713367
0.713475
0.713592
0.713717
0.713846
0.713979
0.714114
0.714247
0.714379
0.714507
0.71463
0.714748
0.714861
0.71497
0.715076
0.715181
0.715285
0.71539
0.715497
0.715607
0.715718
0.715829
0.715937
0.716037
0.716124
0.716194
0.716245
0.716277
0.716293
0.716298
0.716296
0.716289
0.71628
0.716269
0.716257
0.716245
0.716232
0.716219
0.716206
0.716193
0.71618
0.716167
0.716153
0.71614
0.716127
0.716113
0.7161
0.716086
0.716073
0.71606
0.716046
0.716033
0.716019
0.716006
0.715992
0.715979
0.715965
0.715952
0.715938
0.715925
0.715911
0.715898
0.715884
0.715871
0.715857
0.715844
0.71583
0.715817
0.715803
0.71579
0.715776
0.715763
0.715749
0.715736
0.715722
0.715709
0.715696
0.715682
0.715669
0.715655
0.715642
0.715628
0.715615
0.715601
0.715588
0.715574
0.715561
0.715547
0.715534
0.71552
0.715507
0.715493
0.71548
0.715466
0.715453
0.715439
0.715426
0.715412
0.715399
0.715385
0.715372
0.715358
0.715345
0.715331
0.715318
0.715304
0.715291
0.715277
0.715264
0.71525
0.715237
0.715223
0.71521
0.715196
0.715183
0.715169
0.715156
0.715142
0.715129
0.715116
0.715102
0.715089
0.715075
0.715062
0.715048
0.715035
0.715021
0.715008
0.714994
0.714981
0.714967
0.714954
0.71494
0.714927
0.714913
0.7149
0.714886
0.714873
0.714859
0.714846
0.714832
0.714819
0.714805
0.714792
0.714778
0.714765
0.714751
0.714738
0.714724
0.714711
0.714697
0.714684
0.71467
0.714657
0.714643
0.71463
0.714616
0.714603
0.714589
0.714576
0.714563
0.714549
0.714536
0.714522
0.714509
0.714495
0.714482
0.714468
0.714455
0.714441
0.714428
0.714414
0.714401
0.714387
0.714374
0.71436
0.714347
0.714333
0.71432
0.714306
0.714293
0.713796
0.713738
0.713674
0.713605
0.713529
0.713446
0.713354
0.713224
0.713804
0.713756
0.713692
0.71362
0.713544
0.713462
0.713366
0.713261
0.713811
0.713771
0.713712
0.713644
0.713573
0.713499
0.713425
0.71335
0.713824
0.71379
0.713737
0.713675
0.71361
0.713545
0.71348
0.713421
0.71384
0.713809
0.71376
0.713704
0.713646
0.713589
0.713537
0.713491
0.713858
0.713826
0.713779
0.713727
0.713675
0.713626
0.713581
0.713543
0.713876
0.71384
0.713792
0.713742
0.713693
0.713649
0.713609
0.713576
0.713886
0.71384
0.713792
0.713744
0.713699
0.713657
0.713619
0.713587
0.713146
0.713175
0.713196
0.71319
0.713167
0.713133
0.713096
0.713061
0.71303
0.713008
0.712995
0.712993
0.713003
0.713025
0.713061
0.713109
0.713171
0.713244
0.713329
0.713425
0.713528
0.713639
0.713755
0.713873
0.713991
0.714109
0.714223
0.714332
0.714436
0.714534
0.714627
0.714717
0.714805
0.714894
0.714985
0.715082
0.715186
0.715297
0.715416
0.715542
0.715672
0.715802
0.715927
0.71604
0.716135
0.716206
0.716255
0.716282
0.716295
0.716296
0.716292
0.716283
0.716273
0.716261
0.716249
0.716236
0.716222
0.716209
0.716196
0.716182
0.716168
0.716155
0.716141
0.716128
0.716114
0.7161
0.716087
0.716073
0.71606
0.716046
0.716033
0.716019
0.716006
0.715992
0.715979
0.715965
0.715952
0.715938
0.715925
0.715911
0.715898
0.715884
0.715871
0.715857
0.715844
0.71583
0.715817
0.715803
0.71579
0.715776
0.715763
0.715749
0.715736
0.715722
0.715709
0.715696
0.715682
0.715669
0.715655
0.715642
0.715628
0.715615
0.715601
0.715588
0.715574
0.715561
0.715547
0.715534
0.71552
0.715507
0.715493
0.71548
0.715466
0.715453
0.715439
0.715426
0.715412
0.715399
0.715385
0.715372
0.715358
0.715345
0.715331
0.715318
0.715304
0.715291
0.715277
0.715264
0.71525
0.715237
0.715223
0.71521
0.715196
0.715183
0.715169
0.715156
0.715142
0.715129
0.715116
0.715102
0.715089
0.715075
0.715062
0.715048
0.715035
0.715021
0.715008
0.714994
0.714981
0.714967
0.714954
0.71494
0.714927
0.714913
0.7149
0.714886
0.714873
0.714859
0.714846
0.714832
0.714819
0.714805
0.714792
0.714778
0.714765
0.714751
0.714738
0.714724
0.714711
0.714697
0.714684
0.71467
0.714657
0.714643
0.71463
0.714616
0.714603
0.714589
0.714576
0.714563
0.714549
0.714536
0.714522
0.714509
0.714495
0.714482
0.714468
0.714455
0.714441
0.714428
0.714414
0.714401
0.714387
0.714374
0.71436
0.714347
0.714333
0.71432
0.714306
0.714293
0.713178
0.713186
0.713196
0.713198
0.713186
0.713164
0.713138
0.713113
0.713092
0.713078
0.713073
0.713079
0.713096
0.713125
0.713167
0.71322
0.713285
0.713359
0.713443
0.713535
0.713632
0.713733
0.713835
0.713937
0.714035
0.714129
0.714216
0.714296
0.71437
0.714439
0.714504
0.714569
0.714638
0.714713
0.714797
0.714892
0.715
0.715121
0.715252
0.715394
0.715541
0.715691
0.715836
0.715968
0.716081
0.71617
0.716231
0.716269
0.716289
0.716295
0.716294
0.716287
0.716277
0.716265
0.716253
0.716239
0.716226
0.716212
0.716198
0.716184
0.71617
0.716156
0.716142
0.716129
0.716115
0.716101
0.716087
0.716074
0.71606
0.716047
0.716033
0.716019
0.716006
0.715992
0.715979
0.715965
0.715952
0.715938
0.715925
0.715911
0.715898
0.715884
0.715871
0.715857
0.715844
0.71583
0.715817
0.715803
0.71579
0.715776
0.715763
0.715749
0.715736
0.715722
0.715709
0.715696
0.715682
0.715669
0.715655
0.715642
0.715628
0.715615
0.715601
0.715588
0.715574
0.715561
0.715547
0.715534
0.71552
0.715507
0.715493
0.71548
0.715466
0.715453
0.715439
0.715426
0.715412
0.715399
0.715385
0.715372
0.715358
0.715345
0.715331
0.715318
0.715304
0.715291
0.715277
0.715264
0.71525
0.715237
0.715223
0.71521
0.715196
0.715183
0.715169
0.715156
0.715142
0.715129
0.715116
0.715102
0.715089
0.715075
0.715062
0.715048
0.715035
0.715021
0.715008
0.714994
0.714981
0.714967
0.714954
0.71494
0.714927
0.714913
0.7149
0.714886
0.714873
0.714859
0.714846
0.714832
0.714819
0.714805
0.714792
0.714778
0.714765
0.714751
0.714738
0.714724
0.714711
0.714697
0.714684
0.71467
0.714657
0.714643
0.71463
0.714616
0.714603
0.714589
0.714576
0.714563
0.714549
0.714536
0.714522
0.714509
0.714495
0.714482
0.714468
0.714455
0.714441
0.714428
0.714414
0.714401
0.714387
0.714374
0.71436
0.714347
0.714333
0.71432
0.714306
0.714293
0.713293
0.713266
0.713258
0.713251
0.713241
0.713227
0.713211
0.713198
0.713189
0.713187
0.713194
0.713211
0.713238
0.713277
0.713326
0.713385
0.713453
0.713527
0.713607
0.713692
0.713779
0.713865
0.713948
0.714027
0.714098
0.714162
0.714217
0.714264
0.714306
0.714347
0.71439
0.71444
0.7145
0.714573
0.71466
0.714763
0.71488
0.715011
0.715155
0.715308
0.715468
0.715629
0.715784
0.715927
0.716049
0.716145
0.716214
0.716259
0.716284
0.716295
0.716295
0.71629
0.716281
0.71627
0.716257
0.716243
0.716229
0.716215
0.7162
0.716186
0.716172
0.716158
0.716143
0.716129
0.716116
0.716102
0.716088
0.716074
0.71606
0.716047
0.716033
0.71602
0.716006
0.715992
0.715979
0.715965
0.715952
0.715938
0.715925
0.715911
0.715898
0.715884
0.715871
0.715857
0.715844
0.71583
0.715817
0.715803
0.71579
0.715776
0.715763
0.715749
0.715736
0.715722
0.715709
0.715696
0.715682
0.715669
0.715655
0.715642
0.715628
0.715615
0.715601
0.715588
0.715574
0.715561
0.715547
0.715534
0.71552
0.715507
0.715493
0.71548
0.715466
0.715453
0.715439
0.715426
0.715412
0.715399
0.715385
0.715372
0.715358
0.715345
0.715331
0.715318
0.715304
0.715291
0.715277
0.715264
0.71525
0.715237
0.715223
0.71521
0.715196
0.715183
0.715169
0.715156
0.715142
0.715129
0.715116
0.715102
0.715089
0.715075
0.715062
0.715048
0.715035
0.715021
0.715008
0.714994
0.714981
0.714967
0.714954
0.71494
0.714927
0.714913
0.7149
0.714886
0.714873
0.714859
0.714846
0.714832
0.714819
0.714805
0.714792
0.714778
0.714765
0.714751
0.714738
0.714724
0.714711
0.714697
0.714684
0.71467
0.714657
0.714643
0.71463
0.714616
0.714603
0.714589
0.714576
0.714563
0.714549
0.714536
0.714522
0.714509
0.714495
0.714482
0.714468
0.714455
0.714441
0.714428
0.714414
0.714401
0.714387
0.714374
0.71436
0.714347
0.714333
0.71432
0.714306
0.714293
0.713374
0.713346
0.713331
0.713322
0.713315
0.713308
0.713303
0.713301
0.713305
0.713316
0.713335
0.713365
0.713404
0.713453
0.71351
0.713575
0.713644
0.713716
0.713789
0.713862
0.713933
0.713999
0.714058
0.714108
0.714149
0.714182
0.714208
0.714231
0.714254
0.71428
0.714315
0.714363
0.714426
0.714506
0.714603
0.714715
0.714841
0.714981
0.715131
0.71529
0.715453
0.715616
0.715773
0.715915
0.716037
0.716135
0.716206
0.716254
0.716282
0.716295
0.716298
0.716294
0.716285
0.716274
0.716261
0.716247
0.716232
0.716217
0.716203
0.716188
0.716173
0.716159
0.716144
0.71613
0.716116
0.716102
0.716088
0.716074
0.716061
0.716047
0.716033
0.71602
0.716006
0.715992
0.715979
0.715965
0.715952
0.715938
0.715925
0.715911
0.715898
0.715884
0.715871
0.715857
0.715844
0.71583
0.715817
0.715803
0.71579
0.715776
0.715763
0.715749
0.715736
0.715722
0.715709
0.715696
0.715682
0.715669
0.715655
0.715642
0.715628
0.715615
0.715601
0.715588
0.715574
0.715561
0.715547
0.715534
0.71552
0.715507
0.715493
0.71548
0.715466
0.715453
0.715439
0.715426
0.715412
0.715399
0.715385
0.715372
0.715358
0.715345
0.715331
0.715318
0.715304
0.715291
0.715277
0.715264
0.71525
0.715237
0.715223
0.71521
0.715196
0.715183
0.715169
0.715156
0.715142
0.715129
0.715116
0.715102
0.715089
0.715075
0.715062
0.715048
0.715035
0.715021
0.715008
0.714994
0.714981
0.714967
0.714954
0.71494
0.714927
0.714913
0.7149
0.714886
0.714873
0.714859
0.714846
0.714832
0.714819
0.714805
0.714792
0.714778
0.714765
0.714751
0.714738
0.714724
0.714711
0.714697
0.714684
0.71467
0.714657
0.714643
0.71463
0.714616
0.714603
0.714589
0.714576
0.714563
0.714549
0.714536
0.714522
0.714509
0.714495
0.714482
0.714468
0.714455
0.714441
0.714428
0.714414
0.714401
0.714387
0.714374
0.71436
0.714347
0.714333
0.71432
0.714306
0.714293
0.713454
0.713428
0.713413
0.713404
0.713399
0.713397
0.7134
0.713408
0.713422
0.713444
0.713475
0.713515
0.713564
0.713621
0.713685
0.713751
0.713815
0.713876
0.713935
0.713992
0.714046
0.714094
0.714133
0.714163
0.714181
0.714188
0.714189
0.714194
0.714211
0.714243
0.71429
0.71435
0.714424
0.714511
0.714612
0.714727
0.714856
0.714997
0.715148
0.715307
0.715469
0.715629
0.715781
0.715919
0.716037
0.716132
0.716202
0.716251
0.716281
0.716296
0.7163
0.716297
0.716289
0.716278
0.716264
0.71625
0.716235
0.71622
0.716204
0.716189
0.716174
0.71616
0.716145
0.716131
0.716117
0.716103
0.716089
0.716075
0.716061
0.716047
0.716033
0.71602
0.716006
0.715993
0.715979
0.715965
0.715952
0.715938
0.715925
0.715911
0.715898
0.715884
0.715871
0.715857
0.715844
0.71583
0.715817
0.715803
0.71579
0.715776
0.715763
0.715749
0.715736
0.715722
0.715709
0.715696
0.715682
0.715669
0.715655
0.715642
0.715628
0.715615
0.715601
0.715588
0.715574
0.715561
0.715547
0.715534
0.71552
0.715507
0.715493
0.71548
0.715466
0.715453
0.715439
0.715426
0.715412
0.715399
0.715385
0.715372
0.715358
0.715345
0.715331
0.715318
0.715304
0.715291
0.715277
0.715264
0.71525
0.715237
0.715223
0.71521
0.715196
0.715183
0.715169
0.715156
0.715142
0.715129
0.715116
0.715102
0.715089
0.715075
0.715062
0.715048
0.715035
0.715021
0.715008
0.714994
0.714981
0.714967
0.714954
0.71494
0.714927
0.714913
0.7149
0.714886
0.714873
0.714859
0.714846
0.714832
0.714819
0.714805
0.714792
0.714778
0.714765
0.714751
0.714738
0.714724
0.714711
0.714697
0.714684
0.71467
0.714657
0.714643
0.71463
0.714616
0.714603
0.714589
0.714576
0.714563
0.714549
0.714536
0.714522
0.714509
0.714495
0.714482
0.714468
0.714455
0.714441
0.714428
0.714414
0.714401
0.714387
0.714374
0.71436
0.714347
0.714333
0.71432
0.714306
0.714293
0.713513
0.713491
0.713476
0.713468
0.713465
0.713467
0.713476
0.71349
0.713511
0.71354
0.713576
0.71362
0.713672
0.713732
0.713797
0.713863
0.713924
0.713981
0.714033
0.71408
0.714115
0.71413
0.714131
0.71413
0.714135
0.714149
0.714171
0.714198
0.71423
0.714268
0.714315
0.714373
0.714446
0.714533
0.714635
0.714753
0.714883
0.715026
0.715177
0.715335
0.715494
0.715649
0.715795
0.715927
0.71604
0.716131
0.7162
0.716249
0.716279
0.716295
0.716301
0.716299
0.716291
0.71628
0.716266
0.716252
0.716236
0.716221
0.716206
0.71619
0.716175
0.71616
0.716146
0.716131
0.716117
0.716103
0.716089
0.716075
0.716061
0.716047
0.716033
0.71602
0.716006
0.715993
0.715979
0.715965
0.715952
0.715938
0.715925
0.715911
0.715898
0.715884
0.715871
0.715857
0.715844
0.71583
0.715817
0.715803
0.71579
0.715776
0.715763
0.715749
0.715736
0.715722
0.715709
0.715696
0.715682
0.715669
0.715655
0.715642
0.715628
0.715615
0.715601
0.715588
0.715574
0.715561
0.715547
0.715534
0.71552
0.715507
0.715493
0.71548
0.715466
0.715453
0.715439
0.715426
0.715412
0.715399
0.715385
0.715372
0.715358
0.715345
0.715331
0.715318
0.715304
0.715291
0.715277
0.715264
0.71525
0.715237
0.715223
0.71521
0.715196
0.715183
0.715169
0.715156
0.715142
0.715129
0.715116
0.715102
0.715089
0.715075
0.715062
0.715048
0.715035
0.715021
0.715008
0.714994
0.714981
0.714967
0.714954
0.71494
0.714927
0.714913
0.7149
0.714886
0.714873
0.714859
0.714846
0.714832
0.714819
0.714805
0.714792
0.714778
0.714765
0.714751
0.714738
0.714724
0.714711
0.714697
0.714684
0.71467
0.714657
0.714643
0.71463
0.714616
0.714603
0.714589
0.714576
0.714563
0.714549
0.714536
0.714522
0.714509
0.714495
0.714482
0.714468
0.714455
0.714441
0.714428
0.714414
0.714401
0.714387
0.714374
0.71436
0.714347
0.714333
0.71432
0.714306
0.714293
0.713549
0.713528
0.713514
0.713507
0.713505
0.713509
0.713521
0.713539
0.713564
0.713595
0.713635
0.713683
0.713739
0.713803
0.713869
0.713926
0.713964
0.713986
0.714004
0.714027
0.714057
0.714087
0.714116
0.71414
0.71416
0.714175
0.71419
0.714209
0.714236
0.714274
0.714324
0.714387
0.714464
0.714555
0.71466
0.714778
0.71491
0.715052
0.715202
0.715357
0.715512
0.715663
0.715804
0.71593
0.716039
0.716127
0.716195
0.716243
0.716274
0.716291
0.716298
0.716297
0.71629
0.716279
0.716266
0.716252
0.716237
0.716222
0.716206
0.716191
0.716176
0.716161
0.716146
0.716132
0.716117
0.716103
0.716089
0.716075
0.716061
0.716047
0.716034
0.71602
0.716006
0.715993
0.715979
0.715965
0.715952
0.715938
0.715925
0.715911
0.715898
0.715884
0.715871
0.715857
0.715844
0.71583
0.715817
0.715803
0.71579
0.715776
0.715763
0.715749
0.715736
0.715722
0.715709
0.715696
0.715682
0.715669
0.715655
0.715642
0.715628
0.715615
0.715601
0.715588
0.715574
0.715561
0.715547
0.715534
0.71552
0.715507
0.715493
0.71548
0.715466
0.715453
0.715439
0.715426
0.715412
0.715399
0.715385
0.715372
0.715358
0.715345
0.715331
0.715318
0.715304
0.715291
0.715277
0.715264
0.71525
0.715237
0.715223
0.71521
0.715196
0.715183
0.715169
0.715156
0.715142
0.715129
0.715116
0.715102
0.715089
0.715075
0.715062
0.715048
0.715035
0.715021
0.715008
0.714994
0.714981
0.714967
0.714954
0.71494
0.714927
0.714913
0.7149
0.714886
0.714873
0.714859
0.714846
0.714832
0.714819
0.714805
0.714792
0.714778
0.714765
0.714751
0.714738
0.714724
0.714711
0.714697
0.714684
0.71467
0.714657
0.714643
0.71463
0.714616
0.714603
0.714589
0.714576
0.714563
0.714549
0.714536
0.714522
0.714509
0.714495
0.714482
0.714468
0.714455
0.714441
0.714428
0.714414
0.714401
0.714387
0.714374
0.71436
0.714347
0.714333
0.71432
0.714306
0.714293
0.713559
0.713538
0.713523
0.713514
0.713511
0.713515
0.713526
0.713543
0.713565
0.713592
0.713625
0.713665
0.713711
0.713764
0.71382
0.713875
0.713923
0.713965
0.714005
0.714043
0.714074
0.714098
0.714115
0.71413
0.714145
0.714163
0.714184
0.71421
0.714244
0.714285
0.714338
0.714402
0.71448
0.714572
0.714678
0.714798
0.71493
0.715071
0.715221
0.715374
0.715526
0.715673
0.715811
0.715934
0.716039
0.716125
0.716191
0.716238
0.71627
0.716288
0.716295
0.716294
0.716288
0.716278
0.716266
0.716252
0.716237
0.716222
0.716206
0.716191
0.716176
0.716161
0.716146
0.716132
0.716117
0.716103
0.716089
0.716075
0.716061
0.716047
0.716034
0.71602
0.716006
0.715993
0.715979
0.715965
0.715952
0.715938
0.715925
0.715911
0.715898
0.715884
0.715871
0.715857
0.715844
0.71583
0.715817
0.715803
0.71579
0.715776
0.715763
0.715749
0.715736
0.715722
0.715709
0.715696
0.715682
0.715669
0.715655
0.715642
0.715628
0.715615
0.715601
0.715588
0.715574
0.715561
0.715547
0.715534
0.71552
0.715507
0.715493
0.71548
0.715466
0.715453
0.715439
0.715426
0.715412
0.715399
0.715385
0.715372
0.715358
0.715345
0.715331
0.715318
0.715304
0.715291
0.715277
0.715264
0.71525
0.715237
0.715223
0.71521
0.715196
0.715183
0.715169
0.715156
0.715142
0.715129
0.715116
0.715102
0.715089
0.715075
0.715062
0.715048
0.715035
0.715021
0.715008
0.714994
0.714981
0.714967
0.714954
0.71494
0.714927
0.714913
0.7149
0.714886
0.714873
0.714859
0.714846
0.714832
0.714819
0.714805
0.714792
0.714778
0.714765
0.714751
0.714738
0.714724
0.714711
0.714697
0.714684
0.71467
0.714657
0.714643
0.71463
0.714616
0.714603
0.714589
0.714576
0.714563
0.714549
0.714536
0.714522
0.714509
0.714495
0.714482
0.714468
0.714455
0.714441
0.714428
0.714414
0.714401
0.714387
0.714374
0.71436
0.714347
0.714333
0.71432
0.714306
0.714293
)
;

boundaryField
{
    inlet
    {
        type            zeroGradient;
    }
    outlet
    {