/*--------------------------------*- C++ -*----------------------------------*\
| =========                 |                                                 |
| \\      /  F ield         | OpenFOAM: The Open Source CFD Toolbox           |
|  \\    /   O peration     | Version:  4.1                                   |
|   \\  /    A nd           | Web:      www.OpenFOAM.org                      |
|    \\/     M anipulation  |                                                 |
\*---------------------------------------------------------------------------*/
FoamFile
{
    version     2.0;
    format      ascii;
    class       volVectorField;
    location    "840";
    object      U;
}
// * * * * * * * * * * * * * * * * * * * * * * * * * * * * * * * * * * * * * //

dimensions      [0 1 -1 0 0 0 0];

internalField   nonuniform List<vector> 
1275
(
(0.0764099 -5.82003e-05 0)
(0.0766131 -0.000123949 0)
(0.0764799 -0.000226847 0)
(0.0767288 -0.000290129 0)
(0.0767271 -0.000347766 0)
(0.0770554 -0.000445151 0)
(0.0771798 -0.000469967 0)
(0.0776242 -0.000639397 0)
(0.0778919 -0.000670364 0)
(0.0785661 -0.000906666 0)
(0.112435 -4.14735e-05 0)
(0.112617 -0.000138806 0)
(0.112488 -0.000274667 0)
(0.112681 -0.000365103 0)
(0.11264 -0.000482839 0)
(0.112881 -0.000591032 0)
(0.112915 -0.000713228 0)
(0.113226 -0.000858357 0)
(0.113318 -0.00104904 0)
(0.113684 -0.00120873 0)
(0.136447 -3.4305e-05 0)
(0.136617 -0.000160184 0)
(0.136481 -0.000301326 0)
(0.136636 -0.000429775 0)
(0.13656 -0.000557731 0)
(0.136729 -0.000710508 0)
(0.136706 -0.00083593 0)
(0.136905 -0.00103332 0)
(0.136921 -0.00118275 0)
(0.137131 -0.0014136 0)
(0.148452 -3.01099e-05 0)
(0.148612 -0.00016205 0)
(0.148461 -0.000302922 0)
(0.148581 -0.000437784 0)
(0.148463 -0.00058007 0)
(0.148563 -0.000730396 0)
(0.148468 -0.000886367 0)
(0.148557 -0.00106175 0)
(0.148461 -0.00125597 0)
(0.148526 -0.00144497 0)
(0.148453 -2.49647e-05 0)
(0.148607 -0.000158814 0)
(0.148437 -0.000280274 0)
(0.148524 -0.000423762 0)
(0.148365 -0.000549086 0)
(0.148404 -0.000709301 0)
(0.148246 -0.000842769 0)
(0.148242 -0.00102482 0)
(0.148068 -0.00117536 0)
(0.148011 -0.00136453 0)
(0.136449 -1.76279e-05 0)
(0.136598 -0.000134952 0)
(0.136404 -0.000228159 0)
(0.13646 -0.000357252 0)
(0.136259 -0.000463949 0)
(0.136241 -0.000604336 0)
(0.136019 -0.000725131 0)
(0.135932 -0.000877221 0)
(0.135668 -0.00101558 0)
(0.135506 -0.00117022 0)
(0.112439 -5.05406e-06 0)
(0.112584 -0.000103884 0)
(0.112365 -0.000157072 0)
(0.112393 -0.000270937 0)
(0.112152 -0.000341979 0)
(0.112086 -0.000463615 0)
(0.111807 -0.00054499 0)
(0.11165 -0.000671553 0)
(0.111315 -0.000761475 0)
(0.111063 -0.000882552 0)
(0.0764175 2.59166e-05 0)
(0.0765614 -4.06104e-05 0)
(0.0763097 -4.76763e-05 0)
(0.0763307 -0.000129602 0)
(0.0760571 -0.000164784 0)
(0.0759722 -0.000248296 0)
(0.07565 -0.000294322 0)
(0.0754589 -0.000376132 0)
(0.0750663 -0.000428 0)
(0.0747665 -0.000503489 0)
(0.0284325 6.05968e-05 0)
(0.0286323 2.84581e-05 0)
(0.0284753 4.38371e-05 0)
(0.0285855 -1.81535e-06 0)
(0.0283879 -5.77051e-06 0)
(0.0283832 -4.42125e-05 0)
(0.0281297 -4.86258e-05 0)
(0.0280172 -7.94553e-05 0)
(0.0277009 -8.17068e-05 0)
(0.027492 -0.000103762 0)
(0.0925498 -0.00760905 0)
(0.0944532 -0.00816634 0)
(0.0964101 -0.00877181 0)
(0.0984197 -0.00941477 0)
(0.100473 -0.0101036 0)
(0.102569 -0.0108351 0)
(0.104696 -0.0116123 0)
(0.106846 -0.0124331 0)
(0.109006 -0.0132973 0)
(0.111163 -0.0142016 0)
(0.1133 -0.0151428 0)
(0.115398 -0.0161149 0)
(0.117436 -0.0171108 0)
(0.119391 -0.018121 0)
(0.121238 -0.0191341 0)
(0.122952 -0.0201367 0)
(0.124503 -0.0211134 0)
(0.125866 -0.0220475 0)
(0.127013 -0.0229207 0)
(0.127917 -0.0237143 0)
(0.128553 -0.0244092 0)
(0.128901 -0.0249869 0)
(0.128941 -0.0254301 0)
(0.128658 -0.0257234 0)
(0.128044 -0.0258543 0)
(0.127094 -0.0258137 0)
(0.125811 -0.0255966 0)
(0.124204 -0.0252031 0)
(0.122287 -0.0246377 0)
(0.12008 -0.0239101 0)
(0.117611 -0.0230339 0)
(0.114908 -0.0220263 0)
(0.112009 -0.020907 0)
(0.108951 -0.0196976 0)
(0.105776 -0.0184206 0)
(0.102528 -0.0170996 0)
(0.0992506 -0.0157578 0)
(0.0959876 -0.0144175 0)
(0.0927801 -0.0130991 0)
(0.0896656 -0.0118204 0)
(0.0866773 -0.0105957 0)
(0.0838434 -0.00943563 0)
(0.0811868 -0.00834732 0)
(0.0787253 -0.00733455 0)
(0.0764716 -0.00639835 0)
(0.0744335 -0.00553751 0)
(0.0726144 -0.00474915 0)
(0.0710136 -0.00402922 0)
(0.069627 -0.00337287 0)
(0.0684477 -0.00277484 0)
(0.0674666 -0.00222964 0)
(0.0666731 -0.00173184 0)
(0.0660555 -0.00127615 0)
(0.0656018 -0.000857555 0)
(0.0652997 -0.000471368 0)
(0.0651374 -0.00011328 0)
(0.0651034 0.000220649 0)
(0.0651868 0.000533985 0)
(0.0653777 0.000829953 0)
(0.0656668 0.00111146 0)
(0.0660456 0.00138113 0)
(0.0665066 0.00164136 0)
(0.0670427 0.00189429 0)
(0.0676481 0.00214196 0)
(0.068317 0.00238613 0)
(0.069045 0.00262863 0)
(0.0698272 0.00287087 0)
(0.0706608 0.0031146 0)
(0.0715411 0.00336085 0)
(0.0724672 0.00361153 0)
(0.0734334 0.00386701 0)
(0.0744416 0.00412973 0)
(0.0754839 0.00439899 0)
(0.0765655 0.00467823 0)
(0.0776752 0.0049653 0)
(0.0788223 0.00526428 0)
(0.0799908 0.00557387 0)
(0.0811954 0.00589104 0)
(0.0790882 -0.0012403 0)
(0.0789322 -0.00137932 0)
(0.0794496 -0.00148128 0)
(0.0797304 -0.00159812 0)
(0.0803306 -0.00167911 0)
(0.0808283 -0.00177521 0)
(0.0814771 -0.00184598 0)
(0.0820789 -0.00192211 0)
(0.0827578 -0.00198305 0)
(0.0834134 -0.00204519 0)
(0.0841113 -0.00209927 0)
(0.0847967 -0.00215378 0)
(0.0855068 -0.00220493 0)
(0.0862099 -0.00225715 0)
(0.0869285 -0.0023092 0)
(0.0876438 -0.00236348 0)
(0.08837 -0.00241992 0)
(0.0890959 -0.00247996 0)
(0.0898309 -0.00254404 0)
(0.0905685 -0.00261316 0)
(0.0913153 -0.00268802 0)
(0.0920676 -0.00276941 0)
(0.0928303 -0.00285817 0)
(0.0936017 -0.00295503 0)
(0.0943856 -0.00306095 0)
(0.0951816 -0.00317667 0)
(0.0959928 -0.00330325 0)
(0.0968195 -0.00344144 0)
(0.0976644 -0.0035925 0)
(0.0985285 -0.00375716 0)
(0.099414 -0.00393689 0)
(0.100322 -0.00413242 0)
(0.101255 -0.00434546 0)
(0.102215 -0.0045767 0)
(0.1032 -0.00482814 0)
(0.104219 -0.00510039 0)
(0.105261 -0.00539565 0)
(0.106345 -0.00571467 0)
(0.107443 -0.0060593 0)
(0.108603 -0.00643138 0)
(0.109747 -0.00683046 0)
(0.111001 -0.00726301 0)
(0.112158 -0.00771942 0)
(0.113553 -0.00822311 0)
(0.114631 -0.00873254 0)
(0.116048 -0.00931208 0)
(0.117397 -0.00990811 0)
(0.118735 -0.0105417 0)
(0.120091 -0.0112108 0)
(0.121438 -0.0119168 0)
(0.122777 -0.0126573 0)
(0.12409 -0.0134316 0)
(0.125368 -0.0142368 0)
(0.126592 -0.0150698 0)
(0.127748 -0.0159256 0)
(0.128816 -0.0167987 0)
(0.129775 -0.0176813 0)
(0.130602 -0.0185645 0)
(0.131275 -0.0194375 0)
(0.131768 -0.0202878 0)
(0.132058 -0.0211013 0)
(0.132118 -0.0218626 0)
(0.131926 -0.0225551 0)
(0.131459 -0.0231619 0)
(0.130697 -0.0236659 0)
(0.129623 -0.0240509 0)
(0.128225 -0.0243022 0)
(0.126495 -0.0244073 0)
(0.124429 -0.0243568 0)
(0.122031 -0.0241447 0)
(0.119307 -0.0237688 0)
(0.116274 -0.0232305 0)
(0.112949 -0.0225354 0)
(0.109361 -0.0216927 0)
(0.105543 -0.0207157 0)
(0.101532 -0.0196221 0)
(0.0973746 -0.0184333 0)
(0.093118 -0.0171735 0)
(0.0888128 -0.015869 0)
(0.0845099 -0.0145462 0)
(0.0802587 -0.01323 0)
(0.076107 -0.0119425 0)
(0.0720995 -0.0107021 0)
(0.068277 -0.00952349 0)
(0.0646755 -0.00841745 0)
(0.0613252 -0.00739167 0)
(0.0582489 -0.00645077 0)
(0.0554621 -0.00559658 0)
(0.0529721 -0.00482823 0)
(0.0507786 -0.00414244 0)
(0.0488746 -0.00353389 0)
(0.0472479 -0.0029958 0)
(0.0458823 -0.00252045 0)
(0.0447593 -0.00209984 0)
(0.0438593 -0.00172612 0)
(0.0431625 -0.00139193 0)
(0.04265 -0.00109063 0)
(0.0423039 -0.000816417 0)
(0.042108 -0.000564297 0)
(0.0420474 -0.000330049 0)
(0.042109 -0.000110145 0)
(0.0422811 9.83655e-05 0)
(0.0425535 0.000297945 0)
(0.0429172 0.000490671 0)
(0.0433644 0.000678319 0)
(0.0438885 0.000862422 0)
(0.0444835 0.00104436 0)
(0.0451444 0.00122534 0)
(0.045867 0.00140654 0)
(0.0466475 0.00158899 0)
(0.0474832 0.00177379 0)
(0.0483709 0.00196184 0)
(0.0493092 0.00215427 0)
(0.0502954 0.00235189 0)
(0.0513292 0.00255583 0)
(0.0524082 0.00276692 0)
(0.0535326 0.0029861 0)
(0.0547005 0.0032146 0)
(0.0559121 0.00345252 0)
(0.0571663 0.00370244 0)
(0.0584622 0.00396226 0)
(0.0598003 0.0042372 0)
(0.0611788 0.00452313 0)
(0.113796 -0.00174712 0)
(0.113926 -0.00186811 0)
(0.114184 -0.00207519 0)
(0.114374 -0.00214246 0)
(0.114679 -0.00224205 0)
(0.114926 -0.00229855 0)
(0.115247 -0.00236646 0)
(0.115533 -0.00241964 0)
(0.115865 -0.00247676 0)
(0.116176 -0.00252799 0)
(0.116516 -0.0025812 0)
(0.116846 -0.00263217 0)
(0.117194 -0.00268523 0)
(0.117536 -0.00273834 0)
(0.117891 -0.00279446 0)
(0.118245 -0.00285252 0)
(0.118608 -0.00291482 0)
(0.118971 -0.00298086 0)
(0.119342 -0.00305251 0)
(0.119716 -0.00312965 0)
(0.120098 -0.00321386 0)
(0.120484 -0.00330529 0)
(0.120879 -0.00340534 0)
(0.121279 -0.00351437 0)
(0.121689 -0.00363369 0)
(0.122107 -0.00376379 0)
(0.122534 -0.00390597 0)
(0.122972 -0.00406081 0)
(0.123421 -0.00422968 0)
(0.12388 -0.00441317 0)
(0.124353 -0.00461281 0)
(0.124836 -0.00482912 0)
(0.125335 -0.00506389 0)
(0.125843 -0.00531739 0)
(0.126368 -0.00559188 0)
(0.126901 -0.00588702 0)
(0.127452 -0.00620603 0)
(0.128005 -0.00654712 0)
(0.128581 -0.00691557 0)
(0.129147 -0.00730635 0)
(0.129744 -0.00772932 0)
(0.130311 -0.00817225 0)
(0.130917 -0.00865479 0)
(0.131477 -0.00915084 0)
(0.13206 -0.00969489 0)
(0.132618 -0.0102492 0)
(0.133149 -0.0108452 0)
(0.13365 -0.0114646 0)
(0.134113 -0.0121136 0)
(0.134523 -0.012787 0)
(0.134873 -0.0134839 0)
(0.135144 -0.0142003 0)
(0.135326 -0.0149326 0)
(0.135398 -0.0156755 0)
(0.135345 -0.0164227 0)
(0.135145 -0.0171667 0)
(0.134781 -0.0178988 0)
(0.13423 -0.0186085 0)
(0.133472 -0.0192844 0)
(0.132485 -0.0199137 0)
(0.131248 -0.020483 0)
(0.129742 -0.0209779 0)
(0.127951 -0.0213843 0)
(0.125858 -0.0216882 0)
(0.123452 -0.0218765 0)
(0.120725 -0.021937 0)
(0.117675 -0.0218595 0)
(0.114302 -0.0216357 0)
(0.110614 -0.0212605 0)
(0.106627 -0.0207323 0)
(0.102361 -0.0200543 0)
(0.0978478 -0.0192343 0)
(0.093123 -0.0182855 0)
(0.0882298 -0.0172261 0)
(0.0832163 -0.0160781 0)
(0.0781344 -0.0148662 0)
(0.0730394 -0.0136155 0)
(0.0679895 -0.0123503 0)
(0.0630449 -0.0110938 0)
(0.0582668 -0.00986821 0)
(0.0537154 -0.00869465 0)
(0.0494464 -0.00759275 0)
(0.0455068 -0.00657923 0)
(0.0419311 -0.00566645 0)
(0.0387387 -0.0048612 0)
(0.0359332 -0.00416426 0)
(0.0335039 -0.00357077 0)
(0.0314293 -0.0030714 0)
(0.0296805 -0.00265395 0)
(0.028225 -0.00230498 0)
(0.0270298 -0.00201131 0)
(0.0260635 -0.00176105 0)
(0.0252974 -0.00154411 0)
(0.0247063 -0.00135241 0)
(0.0242688 -0.00117966 0)
(0.0239664 -0.00102116 0)
(0.0237839 -0.000873379 0)
(0.0237085 -0.000733718 0)
(0.0237298 -0.000600197 0)
(0.0238387 -0.000471283 0)
(0.0240279 -0.000345744 0)
(0.0242912 -0.000222555 0)
(0.0246232 -0.000100825 0)
(0.0250195 2.02297e-05 0)
(0.0254763 0.000141346 0)
(0.0259904 0.000263183 0)
(0.0265593 0.00038642 0)
(0.0271805 0.000511647 0)
(0.0278524 0.000639555 0)
(0.0285734 0.000770686 0)
(0.0293425 0.000905806 0)
(0.0301589 0.00104541 0)
(0.0310221 0.0011904 0)
(0.0319317 0.00134121 0)
(0.0328877 0.00149892 0)
(0.0338903 0.00166388 0)
(0.0349396 0.00183738 0)
(0.0360363 0.00201968 0)
(0.0371804 0.00221218 0)
(0.0383733 0.00241531 0)
(0.0396147 0.00262991 0)
(0.0409053 0.00285772 0)
(0.0422469 0.00309715 0)
(0.137191 -0.00166356 0)
(0.137191 -0.00181039 0)
(0.137253 -0.00199336 0)
(0.137255 -0.00210878 0)
(0.137337 -0.00224444 0)
(0.137376 -0.00234209 0)
(0.137472 -0.00244723 0)
(0.137538 -0.00252989 0)
(0.137638 -0.00261444 0)
(0.13772 -0.00268532 0)
(0.13782 -0.00275675 0)
(0.137908 -0.00282028 0)
(0.138007 -0.00288494 0)
(0.138097 -0.00294598 0)
(0.138191 -0.00300945 0)
(0.13828 -0.00307268 0)
(0.138371 -0.00313992 0)
(0.138457 -0.00320968 0)
(0.138544 -0.0032851 0)
(0.138628 -0.00336543 0)
(0.138711 -0.00345305 0)
(0.138792 -0.00354774 0)
(0.138872 -0.00365136 0)
(0.138951 -0.00376404 0)
(0.139028 -0.00388732 0)
(0.139104 -0.00402158 0)
(0.139179 -0.00416817 0)
(0.139252 -0.00432763 0)
(0.139323 -0.00450119 0)
(0.139392 -0.00468952 0)
(0.139458 -0.00489375 0)
(0.13952 -0.0051147 0)
(0.139578 -0.00535331 0)
(0.13963 -0.00561063 0)
(0.139674 -0.00588721 0)
(0.13971 -0.00618455 0)
(0.139733 -0.00650239 0)
(0.139745 -0.00684318 0)
(0.139737 -0.00720493 0)
(0.139713 -0.00759206 0)
(0.13966 -0.00799942 0)
(0.139584 -0.00843476 0)
(0.139469 -0.00888824 0)
(0.139316 -0.00937144 0)
(0.139118 -0.00987089 0)
(0.138859 -0.0103972 0)
(0.138545 -0.0109429 0)
(0.138152 -0.0115058 0)
(0.137679 -0.0120856 0)
(0.137108 -0.0126775 0)
(0.13643 -0.0132792 0)
(0.135628 -0.0138852 0)
(0.13469 -0.0144909 0)
(0.133597 -0.0150895 0)
(0.132334 -0.0156743 0)
(0.130883 -0.0162368 0)
(0.129226 -0.0167682 0)
(0.127345 -0.017258 0)
(0.125224 -0.0176955 0)
(0.122846 -0.0180685 0)
(0.120196 -0.0183648 0)
(0.11726 -0.0185717 0)
(0.11403 -0.0186768 0)
(0.110499 -0.0186687 0)
(0.106667 -0.0185374 0)
(0.102537 -0.0182754 0)
(0.0981217 -0.0178783 0)
(0.0934387 -0.0173455 0)
(0.088513 -0.0166811 0)
(0.0833763 -0.0158934 0)
(0.0780674 -0.0149948 0)
(0.0726321 -0.0140001 0)
(0.0671239 -0.0129265 0)
(0.061604 -0.0117933 0)
(0.0561425 -0.0106231 0)
(0.0508176 -0.00944218 0)
(0.0457126 -0.0082801 0)
(0.0409095 -0.0071681 0)
(0.0364806 -0.00613645 0)
(0.0324796 -0.00521106 0)
(0.028936 -0.00440971 0)
(0.0258539 -0.00373946 0)
(0.0232143 -0.00319598 0)
(0.0209809 -0.00276538 0)
(0.0191068 -0.00242791 0)
(0.0175418 -0.00216214 0)
(0.0162378 -0.00194855 0)
(0.0151528 -0.00177151 0)
(0.0142518 -0.0016199 0)
(0.0135067 -0.00148643 0)
(0.0128951 -0.00136669 0)
(0.0123992 -0.00125806 0)
(0.0120048 -0.00115888 0)
(0.0117006 -0.00106788 0)
(0.0114774 -0.000983943 0)
(0.0113279 -0.000905904 0)
(0.0112461 -0.000832586 0)
(0.0112269 -0.000762819 0)
(0.0112662 -0.000695492 0)
(0.0113606 -0.00062959 0)
(0.0115071 -0.000564217 0)
(0.0117031 -0.000498606 0)
(0.0119467 -0.000432097 0)
(0.0122361 -0.000364143 0)
(0.0125699 -0.000294256 0)
(0.012947 -0.000222035 0)
(0.0133665 -0.000147074 0)
(0.0138278 -6.9042e-05 0)
(0.0143307 1.24664e-05 0)
(0.0148749 9.77654e-05 0)
(0.0154607 0.00018732 0)
(0.0160881 0.000281475 0)
(0.0167579 0.000380779 0)
(0.0174705 0.000485664 0)
(0.0182269 0.000596734 0)
(0.019028 0.000714619 0)
(0.0198749 0.000839836 0)
(0.020769 0.000973445 0)
(0.0217113 0.00111559 0)
(0.0227037 0.00126806 0)
(0.023747 0.00143037 0)
(0.0248432 0.00160501 0)
(0.0259936 0.00179141 0)
(0.148404 -0.00171824 0)
(0.148351 -0.00188257 0)
(0.148253 -0.0020863 0)
(0.148161 -0.00220366 0)
(0.148074 -0.00234134 0)
(0.14797 -0.00242689 0)
(0.147877 -0.00252309 0)
(0.147765 -0.00258934 0)
(0.147661 -0.00266147 0)
(0.14754 -0.00271659 0)
(0.147423 -0.00277568 0)
(0.147292 -0.00282564 0)
(0.147159 -0.00287929 0)
(0.147017 -0.002929 0)
(0.14687 -0.00298296 0)
(0.146714 -0.00303673 0)
(0.146553 -0.00309574 0)
(0.146383 -0.00315743 0)
(0.146206 -0.00322556 0)
(0.14602 -0.00329874 0)
(0.145827 -0.00337964 0)
(0.145624 -0.00346761 0)
(0.145412 -0.00356467 0)
(0.14519 -0.00367061 0)
(0.144957 -0.00378703 0)
(0.144713 -0.003914 0)
(0.144456 -0.00405289 0)
(0.144185 -0.00420392 0)
(0.1439 -0.00436833 0)
(0.143597 -0.00454635 0)
(0.143277 -0.00473924 0)
(0.142936 -0.00494709 0)
(0.142573 -0.00517126 0)
(0.142185 -0.00541152 0)
(0.14177 -0.00566952 0)
(0.141323 -0.00594434 0)
(0.140843 -0.00623824 0)
(0.140323 -0.00654909 0)
(0.139762 -0.00688023 0)
(0.139153 -0.00722747 0)
(0.138491 -0.00759605 0)
(0.137769 -0.00797859 0)
(0.136982 -0.00838299 0)
(0.136123 -0.00879807 0)
(0.135181 -0.0092335 0)
(0.134151 -0.00967694 0)
(0.133022 -0.0101346 0)
(0.131782 -0.0105979 0)
(0.130422 -0.0110678 0)
(0.128929 -0.0115372 0)
(0.127292 -0.0120036 0)
(0.125496 -0.01246 0)
(0.123528 -0.0129016 0)
(0.121372 -0.0133203 0)
(0.119017 -0.0137093 0)
(0.116446 -0.0140594 0)
(0.113647 -0.0143619 0)
(0.110607 -0.0146065 0)
(0.107317 -0.0147835 0)
(0.103768 -0.0148823 0)
(0.0999562 -0.0148935 0)
(0.0958797 -0.0148083 0)
(0.0915425 -0.0146198 0)
(0.0869531 -0.0143232 0)
(0.0821265 -0.0139157 0)
(0.0770839 -0.013397 0)
(0.0718542 -0.0127687 0)
(0.0664743 -0.0120351 0)
(0.0609916 -0.011204 0)
(0.0554654 -0.0102879 0)
(0.049969 -0.00930524 0)
(0.044588 -0.0082806 0)
(0.0394169 -0.00724483 0)
(0.0345504 -0.00623426 0)
(0.0300727 -0.0052877 0)
(0.0260473 -0.00444079 0)
(0.0225098 -0.00371933 0)
(0.0194627 -0.00313388 0)
(0.0168762 -0.00267815 0)
(0.0146982 -0.00233237 0)
(0.0128678 -0.00207015 0)
(0.0113274 -0.00186515 0)
(0.0100272 -0.00169556 0)
(0.0089249 -0.00154654 0)
(0.00798448 -0.00141068 0)
(0.00717626 -0.00128679 0)
(0.00647707 -0.00117714 0)
(0.00586996 -0.00108449 0)
(0.00534303 -0.00100993 0)
(0.00488784 -0.000952345 0)
(0.00449786 -0.000908918 0)
(0.00416758 -0.000876115 0)
(0.00389199 -0.000850529 0)
(0.00366649 -0.00082934 0)
(0.00348694 -0.000810438 0)
(0.0033497 -0.000792337 0)
(0.00325173 -0.000774029 0)
(0.00319054 -0.000754832 0)
(0.00316419 -0.00073428 0)
(0.00317119 -0.000712045 0)
(0.00321049 -0.000687883 0)
(0.00328135 -0.000661612 0)
(0.00338331 -0.000633071 0)
(0.00351614 -0.000602136 0)
(0.00367985 -0.000568666 0)
(0.00387454 -0.000532558 0)
(0.00410055 -0.000493647 0)
(0.0043583 -0.000451825 0)
(0.00464839 -0.000406869 0)
(0.00497153 -0.000358651 0)
(0.00532857 -0.000306853 0)
(0.00572052 -0.00025131 0)
(0.00614844 -0.000191586 0)
(0.0066137 -0.00012745 0)
(0.0071175 -5.83391e-05 0)
(0.00766164 1.60854e-05 0)
(0.00824739 9.64937e-05 0)
(0.00887697 0.000183398 0)
(0.00955174 0.00027752 0)
(0.0102741 0.000379637 0)
(0.0110458 0.000490409 0)
(0.0118689 0.000611033 0)
(0.012746 0.000741883 0)
(0.147804 -0.00154612 0)
(0.147645 -0.00168974 0)
(0.147407 -0.00184481 0)
(0.147181 -0.00195245 0)
(0.146922 -0.00207361 0)
(0.146658 -0.00215738 0)
(0.146378 -0.00225055 0)
(0.146089 -0.00231772 0)
(0.145788 -0.00239048 0)
(0.145476 -0.00244627 0)
(0.145153 -0.00250563 0)
(0.144819 -0.00255475 0)
(0.144474 -0.00260692 0)
(0.144118 -0.00265385 0)
(0.14375 -0.00270423 0)
(0.143369 -0.00275318 0)
(0.142977 -0.00280647 0)
(0.142571 -0.00286129 0)
(0.142153 -0.00292157 0)
(0.14172 -0.00298574 0)
(0.141271 -0.00305658 0)
(0.140808 -0.00313329 0)
(0.140327 -0.00321788 0)
(0.139827 -0.00331003 0)
(0.139308 -0.00341124 0)
(0.138768 -0.00352152 0)
(0.138205 -0.00364201 0)
(0.137616 -0.00377289 0)
(0.137 -0.00391505 0)
(0.136355 -0.0040688 0)
(0.135677 -0.00423478 0)
(0.134964 -0.00441336 0)
(0.134212 -0.00460491 0)
(0.133418 -0.0048099 0)
(0.132578 -0.00502825 0)
(0.131687 -0.00526059 0)
(0.130742 -0.00550617 0)
(0.129736 -0.00576595 0)
(0.128665 -0.00603809 0)
(0.127523 -0.00632412 0)
(0.126303 -0.0066207 0)
(0.124997 -0.00692997 0)
(0.123601 -0.00724706 0)
(0.122103 -0.00757391 0)
(0.120499 -0.00790546 0)
(0.118776 -0.00824092 0)
(0.116928 -0.00857759 0)
(0.114942 -0.00891015 0)
(0.112812 -0.00923666 0)
(0.110524 -0.00955048 0)
(0.108071 -0.00984825 0)
(0.10544 -0.0101228 0)
(0.102622 -0.0103692 0)
(0.0996082 -0.01058 0)
(0.0963904 -0.0107491 0)
(0.0929614 -0.0108688 0)
(0.0893173 -0.0109327 0)
(0.0854556 -0.0109331 0)
(0.0813778 -0.0108633 0)
(0.0770888 -0.0107165 0)
(0.0725984 -0.0104867 0)
(0.0679217 -0.0101689 0)
(0.0630815 -0.00975983 0)
(0.0581094 -0.00925903 0)
(0.0530485 -0.00866965 0)
(0.0479546 -0.00799923 0)
(0.0428965 -0.00726077 0)
(0.0379543 -0.00647397 0)
(0.0332144 -0.00566628 0)
(0.0287626 -0.00487169 0)
(0.0246764 -0.00412693 0)
(0.0210153 -0.00346528 0)
(0.0178085 -0.00290946 0)
(0.0150479 -0.00246673 0)
(0.0126964 -0.00212916 0)
(0.0107051 -0.00187725 0)
(0.00902503 -0.00168322 0)
(0.00760899 -0.00151626 0)
(0.00640891 -0.00135316 0)
(0.00537848 -0.00118804 0)
(0.00447906 -0.00103134 0)
(0.00368361 -0.000898534 0)
(0.00297601 -0.000798751 0)
(0.00234717 -0.000731147 0)
(0.00179085 -0.000688566 0)
(0.00130089 -0.000662907 0)
(0.000870143 -0.000648189 0)
(0.000490639 -0.000640855 0)
(0.000154338 -0.000638792 0)
(-0.000146048 -0.000640435 0)
(-0.000416504 -0.000644417 0)
(-0.000661558 -0.000649585 0)
(-0.000884406 -0.000655085 0)
(-0.00108719 -0.000660374 0)
(-0.00127128 -0.00066515 0)
(-0.00143753 -0.000669241 0)
(-0.00158642 -0.000672529 0)
(-0.00171818 -0.000674894 0)
(-0.00183287 -0.000676202 0)
(-0.00193038 -0.000676302 0)
(-0.0020105 -0.000675041 0)
(-0.00207289 -0.000672275 0)
(-0.00211712 -0.00066787 0)
(-0.00214267 -0.000661722 0)
(-0.00214893 -0.000653723 0)
(-0.00213521 -0.000643808 0)
(-0.00210071 -0.000631882 0)
(-0.00204458 -0.000617896 0)
(-0.00196584 -0.000601734 0)
(-0.00186343 -0.000583335 0)
(-0.00173619 -0.000562536 0)
(-0.00158282 -0.000539221 0)
(-0.00140197 -0.000513165 0)
(-0.00119206 -0.000484143 0)
(-0.000951533 -0.000451878 0)
(-0.000678488 -0.000415948 0)
(-0.00037117 -0.000376072 0)
(-2.73288e-05 -0.000331519 0)
(0.000354984 -0.00028206 0)
(0.000778333 -0.00022659 0)
(0.0012449 -0.000164888 0)
(0.0017574 -9.56224e-05 0)
(0.00231841 -1.82349e-05 0)
(0.135184 -0.00132733 0)
(0.134922 -0.00146083 0)
(0.134555 -0.00159817 0)
(0.134217 -0.0016978 0)
(0.133812 -0.00180122 0)
(0.133415 -0.0018711 0)
(0.132975 -0.00194419 0)
(0.132532 -0.00199286 0)
(0.132058 -0.00204416 0)
(0.131575 -0.00207954 0)
(0.131068 -0.00211742 0)
(0.130549 -0.00214597 0)
(0.130011 -0.00217734 0)
(0.129459 -0.00220423 0)
(0.128889 -0.00223456 0)
(0.128305 -0.00226392 0)
(0.127702 -0.00229751 0)
(0.127084 -0.00233272 0)
(0.126447 -0.002373 0)
(0.125791 -0.00241684 0)
(0.125115 -0.00246658 0)
(0.124419 -0.00252139 0)
(0.123698 -0.0025829 0)
(0.122954 -0.00265068 0)
(0.122183 -0.00272589 0)
(0.121383 -0.00280835 0)
(0.120552 -0.00289892 0)
(0.119687 -0.00299749 0)
(0.118786 -0.00310475 0)
(0.117844 -0.00322057 0)
(0.11686 -0.00334552 0)
(0.115828 -0.00347931 0)
(0.114746 -0.00362247 0)
(0.113609 -0.00377441 0)
(0.112412 -0.00393571 0)
(0.11115 -0.00410522 0)
(0.109819 -0.00428369 0)
(0.108413 -0.00446917 0)
(0.106927 -0.00466274 0)
(0.105353 -0.00486124 0)
(0.103686 -0.00506627 0)
(0.10192 -0.00527319 0)
(0.100047 -0.00548406 0)
(0.0980609 -0.00569284 0)
(0.0959539 -0.0059013 0)
(0.0937203 -0.00610301 0)
(0.0913521 -0.00629806 0)
(0.0888431 -0.00648038 0)
(0.0861871 -0.00664836 0)
(0.0833782 -0.00679578 0)
(0.080412 -0.00691957 0)
(0.0772842 -0.0070134 0)
(0.073993 -0.00707306 0)
(0.0705379 -0.00709232 0)
(0.0669216 -0.0070665 0)
(0.0631496 -0.0069899 0)
(0.0592325 -0.0068582 0)
(0.0551858 -0.00666707 0)
(0.0510321 -0.00641381 0)
(0.0468015 -0.00609703 0)
(0.0425329 -0.00571827 0)
(0.0382737 -0.00528268 0)
(0.0340796 -0.00480066 0)
(0.0300123 -0.00428791 0)
(0.026137 -0.00376523 0)
(0.0225178 -0.00325643 0)
(0.0192087 -0.00278532 0)
(0.0162425 -0.00237132 0)
(0.013625 -0.0020265 0)
(0.0113418 -0.00175488 0)
(0.00937066 -0.001551 0)
(0.00768709 -0.00139476 0)
(0.00626017 -0.0012531 0)
(0.00504913 -0.00109805 0)
(0.00400877 -0.000926977 0)
(0.00309917 -0.000761349 0)
(0.00229244 -0.000625183 0)
(0.00157358 -0.0005269 0)
(0.000937151 -0.000459838 0)
(0.000381155 -0.000413827 0)
(-9.89899e-05 -0.000383053 0)
(-0.000513141 -0.000365357 0)
(-0.000874783 -0.000358304 0)
(-0.00119741 -0.000357762 0)
(-0.00149175 -0.000359525 0)
(-0.00176512 -0.000361294 0)
(-0.00202223 -0.000363099 0)
(-0.00226632 -0.000366309 0)
(-0.00249982 -0.000372332 0)
(-0.00272472 -0.000381833 0)
(-0.00294254 -0.000394618 0)
(-0.00315435 -0.00040992 0)
(-0.00336087 -0.000426765 0)
(-0.00356256 -0.000444236 0)
(-0.00375966 -0.000461602 0)
(-0.00395226 -0.000478344 0)
(-0.00414035 -0.000494127 0)
(-0.00432378 -0.000508752 0)
(-0.00450231 -0.000522112 0)
(-0.0046756 -0.000534166 0)
(-0.00484318 -0.000544906 0)
(-0.00500454 -0.000554352 0)
(-0.00515903 -0.000562529 0)
(-0.005306 -0.000569484 0)
(-0.0054447 -0.000575245 0)
(-0.00557435 -0.000579869 0)
(-0.00569408 -0.000583369 0)
(-0.00580302 -0.000585801 0)
(-0.0059002 -0.000587147 0)
(-0.00598459 -0.00058745 0)
(-0.00605511 -0.000586641 0)
(-0.00611055 -0.000584729 0)
(-0.00614967 -0.000581583 0)
(-0.00617098 -0.000577142 0)
(-0.00617308 -0.000571201 0)
(-0.00615414 -0.000563581 0)
(-0.00611251 -0.000553999 0)
(-0.00604601 -0.000542102 0)
(-0.00595262 -0.000527517 0)
(-0.00582985 -0.000509672 0)
(-0.00567518 -0.000488075 0)
(-0.00548593 -0.000461921 0)
(-0.00525894 -0.000430523 0)
(0.110655 -0.000979623 0)
(0.110299 -0.00107367 0)
(0.109821 -0.00115711 0)
(0.109372 -0.00122292 0)
(0.108836 -0.00128643 0)
(0.108313 -0.00133113 0)
(0.107728 -0.00137673 0)
(0.107146 -0.00140725 0)
(0.106519 -0.0014394 0)
(0.105889 -0.00146104 0)
(0.105226 -0.00148436 0)
(0.104556 -0.00150116 0)
(0.103859 -0.00151979 0)
(0.103152 -0.00153506 0)
(0.102422 -0.00155251 0)
(0.10168 -0.00156903 0)
(0.100917 -0.00158824 0)
(0.100139 -0.00160832 0)
(0.0993405 -0.00163168 0)
(0.0985239 -0.00165729 0)
(0.0976847 -0.00168675 0)
(0.0968244 -0.00171948 0)
(0.0959388 -0.00175657 0)
(0.0950279 -0.00179771 0)
(0.0940879 -0.00184362 0)
(0.0931177 -0.00189416 0)
(0.0921136 -0.00194976 0)
(0.0910735 -0.00201035 0)
(0.0899937 -0.00207615 0)
(0.0888715 -0.00214708 0)
(0.0877028 -0.00222317 0)
(0.0864844 -0.0023043 0)
(0.085212 -0.00239023 0)
(0.0838818 -0.00248084 0)
(0.0824892 -0.00257551 0)
(0.0810302 -0.00267411 0)
(0.0794998 -0.00277554 0)
(0.0778938 -0.00287972 0)
(0.0762072 -0.00298485 0)
(0.0744356 -0.00309098 0)
(0.0725743 -0.0031955 0)
(0.0706191 -0.00329843 0)
(0.0685658 -0.00339657 0)
(0.0664108 -0.00348935 0)
(0.064151 -0.00357365 0)
(0.0617842 -0.00364742 0)
(0.0593091 -0.00370834 0)
(0.0567257 -0.00375263 0)
(0.0540357 -0.00377822 0)
(0.0512426 -0.00378082 0)
(0.0483524 -0.00375826 0)
(0.0453738 -0.00370672 0)
(0.042319 -0.00362448 0)
(0.0392038 -0.00350931 0)
(0.0360487 -0.00336127 0)
(0.0328787 -0.00318108 0)
(0.0297243 -0.002972 0)
(0.0266202 -0.00273884 0)
(0.0236055 -0.00248894 0)
(0.0207199 -0.00223113 0)
(0.0180001 -0.0019757 0)
(0.0154744 -0.00173307 0)
(0.0131603 -0.00151334 0)
(0.0110653 -0.00132538 0)
(0.00919092 -0.00117528 0)
(0.00753505 -0.00106111 0)
(0.00609104 -0.000967087 0)
(0.00484379 -0.000867354 0)
(0.00376925 -0.000743901 0)
(0.00283827 -0.000602442 0)
(0.0020225 -0.000467416 0)
(0.00129914 -0.000360194 0)
(0.000655647 -0.000284268 0)
(9.06176e-05 -0.000230753 0)
(-0.000392718 -0.000192564 0)
(-0.000796724 -0.000169104 0)
(-0.00113337 -0.000159709 0)
(-0.0014195 -0.000158012 0)
(-0.00166959 -0.000154974 0)
(-0.00189288 -0.000145767 0)
(-0.00209522 -0.000132396 0)
(-0.00228168 -0.000120501 0)
(-0.00245721 -0.000114657 0)
(-0.00262585 -0.000116176 0)
(-0.00279005 -0.00012382 0)
(-0.00295102 -0.000135538 0)
(-0.00310953 -0.000149653 0)
(-0.00326662 -0.000165126 0)
(-0.00342371 -0.000181349 0)
(-0.00358241 -0.000197883 0)
(-0.00374417 -0.000214347 0)
(-0.00391006 -0.000230422 0)
(-0.00408072 -0.000245887 0)
(-0.00425637 -0.000260635 0)
(-0.00443695 -0.000274651 0)
(-0.00462218 -0.000287982 0)
(-0.00481167 -0.000300703 0)
(-0.00500497 -0.000312884 0)
(-0.00520159 -0.000324585 0)
(-0.00540103 -0.000335847 0)
(-0.00560278 -0.000346696 0)
(-0.00580633 -0.000357152 0)
(-0.00601118 -0.000367229 0)
(-0.0062168 -0.000376947 0)
(-0.0064227 -0.000386324 0)
(-0.00662835 -0.000395397 0)
(-0.00683323 -0.000404191 0)
(-0.0070368 -0.000412763 0)
(-0.00723852 -0.00042114 0)
(-0.0074378 -0.000429386 0)
(-0.00763406 -0.000437528 0)
(-0.0078266 -0.000445611 0)
(-0.00801477 -0.000453654 0)
(-0.00819771 -0.00046165 0)
(-0.00837461 -0.000469608 0)
(-0.00854438 -0.000477417 0)
(-0.00870597 -0.000485073 0)
(-0.00885795 -0.000492302 0)
(-0.0089989 -0.000499067 0)
(-0.00912701 -0.000504901 0)
(-0.00924032 -0.000509648 0)
(-0.00933653 -0.000512696 0)
(-0.00941302 -0.000513591 0)
(0.0742915 -0.000557872 0)
(0.0738804 -0.000617698 0)
(0.0733306 -0.000663563 0)
(0.072823 -0.000702911 0)
(0.0722131 -0.000733593 0)
(0.0716294 -0.000754319 0)
(0.0709735 -0.00077007 0)
(0.0703329 -0.000777158 0)
(0.0696424 -0.00078178 0)
(0.0689603 -0.000780525 0)
(0.0682437 -0.000778536 0)
(0.0675309 -0.00077337 0)
(0.0667939 -0.000768691 0)
(0.0660572 -0.000762945 0)
(0.0653022 -0.000758542 0)
(0.0645447 -0.000754554 0)
(0.0637719 -0.000752492 0)
(0.0629934 -0.000751814 0)
(0.0622003 -0.000753433 0)
(0.061398 -0.000757026 0)
(0.0605801 -0.000763124 0)
(0.059749 -0.000771515 0)
(0.0588997 -0.000782487 0)
(0.058033 -0.000795872 0)
(0.0571443 -0.000811804 0)
(0.0562334 -0.000830112 0)
(0.0552961 -0.000850825 0)
(0.0543313 -0.000873729 0)
(0.0533351 -0.00089878 0)
(0.0523057 -0.000925679 0)
(0.0512396 -0.000954333 0)
(0.0501346 -0.000984298 0)
(0.0489874 -0.00101546 0)
(0.0477957 -0.00104716 0)
(0.0465565 -0.00107931 0)
(0.0452676 -0.00111094 0)
(0.0439266 -0.00114205 0)
(0.0425318 -0.00117125 0)
(0.0410813 -0.00119874 0)
(0.0395746 -0.00122261 0)
(0.0380107 -0.00124336 0)
(0.0363909 -0.00125853 0)
(0.0347155 -0.00126893 0)
(0.0329882 -0.00127183 0)
(0.0312116 -0.0012681 0)
(0.0293921 -0.00125531 0)
(0.0275358 -0.00123407 0)
(0.0256522 -0.00120274 0)
(0.0237515 -0.00116196 0)
(0.0218463 -0.00111094 0)
(0.0199505 -0.00105077 0)
(0.018079 -0.00098188 0)
(0.0162474 -0.000906398 0)
(0.0144707 -0.000826495 0)
(0.0127637 -0.000745959 0)
(0.0111391 -0.00066898 0)
(0.0096085 -0.000600699 0)
(0.00818082 -0.000545486 0)
(0.0068635 -0.000505593 0)
(0.00566111 -0.000478197 0)
(0.00457611 -0.000454426 0)
(0.00360754 -0.0004217 0)
(0.00275143 -0.000370633 0)
(0.00199967 -0.000301416 0)
(0.00134031 -0.000224673 0)
(0.000758085 -0.000154639 0)
(0.000239233 -0.000100033 0)
(-0.000222115 -6.08214e-05 0)
(-0.000621729 -3.36184e-05 0)
(-0.000953169 -1.81806e-05 0)
(-0.00121821 -1.6646e-05 0)
(-0.0014296 -2.66829e-05 0)
(-0.00160325 -3.85423e-05 0)
(-0.00174986 -4.13599e-05 0)
(-0.00187412 -3.18078e-05 0)
(-0.00197982 -1.54354e-05 0)
(-0.00207274 -4.98743e-07 0)
(-0.00215861 8.27073e-06 0)
(-0.00223989 1.06904e-05 0)
(-0.00231576 8.49143e-06 0)
(-0.00238493 3.06473e-06 0)
(-0.00244813 -4.78565e-06 0)
(-0.0025082 -1.4161e-05 0)
(-0.00256874 -2.38196e-05 0)
(-0.00263271 -3.25883e-05 0)
(-0.00270187 -3.98631e-05 0)
(-0.0027771 -4.57459e-05 0)
(-0.00285879 -5.08099e-05 0)
(-0.00294719 -5.5739e-05 0)
(-0.00304255 -6.10574e-05 0)
(-0.00314502 -6.70263e-05 0)
(-0.0032547 -7.36699e-05 0)
(-0.00337156 -8.08598e-05 0)
(-0.00349549 -8.8401e-05 0)
(-0.00362631 -9.60949e-05 0)
(-0.0037638 -0.000103773 0)
(-0.00390772 -0.000111311 0)