/*--------------------------------*- C++ -*----------------------------------*\
| =========                 |                                                 |
| \\      /  F ield         | OpenFOAM: The Open Source CFD Toolbox           |
|  \\    /   O peration     | Version:  4.1                                   |
|   \\  /    A nd           | Web:      www.OpenFOAM.org                      |
|    \\/     M anipulation  |                                                 |
\*---------------------------------------------------------------------------*/
FoamFile
{
    version     2.0;
    format      ascii;
    class       volScalarField;
    location    "510";
    object      p;
}
// * * * * * * * * * * * * * * * * * * * * * * * * * * * * * * * * * * * * * //

dimensions      [1 -1 -2 0 0 0 0];

internalField   nonuniform List<scalar> 
1275
(
0.71205
0.71205
0.712049
0.71205
0.712049
0.712049
0.712048
0.712049
0.712048
0.712049
0.712048
0.712049
0.712048
0.712049
0.712049
0.71205
0.71205
0.712051
0.712051
0.712052
0.712053
0.712053
0.712054
0.712055
0.712056
0.712057
0.712058
0.712059
0.71206
0.712061
0.712062
0.712063
0.712063
0.712064
0.712064
0.712063
0.712062
0.71206
0.712058
0.712056
0.712052
0.712049
0.712047
0.712045
0.712045
0.712047
0.712052
0.712062
0.712076
0.712097
0.712125
0.712162
0.712209
0.712267
0.712337
0.712419
0.712513
0.712619
0.712734
0.712858
0.712988
0.713121
0.713255
0.713387
0.713514
0.713633
0.713742
0.713838
0.71392
0.713988
0.71404
0.714077
0.714099
0.714107
0.714103
0.714088
0.714064
0.714032
0.713995
0.713953
0.713908
0.713862
0.713816
0.713771
0.713726
0.713684
0.713644
0.713608
0.713574
0.713544
0.713517
0.713493
0.713473
0.713456
0.713442
0.713432
0.713424
0.71342
0.713418
0.713419
0.713422
0.713428
0.713435
0.713443
0.713454
0.713465
0.713477
0.713489
0.713502
0.713514
0.713527
0.713539
0.71355
0.713561
0.713572
0.713582
0.713591
0.7136
0.713607
0.713614
0.71362
0.713626
0.712049
0.712049
0.712048
0.712049
0.712048
0.712049
0.712048
0.712049
0.712049
0.712049
0.712049
0.712049
0.712049
0.71205
0.71205
0.71205
0.712051
0.712051
0.712052
0.712053
0.712053
0.712054
0.712055
0.712056
0.712057
0.712058
0.712059
0.71206
0.712061
0.712063
0.712063
0.712064
0.712065
0.712066
0.712066
0.712066
0.712065
0.712065
0.712063
0.712062
0.712059
0.712057
0.712054
0.712052
0.712051
0.712051
0.712054
0.712061
0.712072
0.71209
0.712115
0.71215
0.712195
0.712251
0.71232
0.712402
0.712495
0.712601
0.712716
0.71284
0.712971
0.713105
0.713239
0.713372
0.713499
0.713619
0.713728
0.713825
0.713908
0.713976
0.714028
0.714065
0.714087
0.714096
0.714092
0.714077
0.714053
0.714021
0.713984
0.713943
0.713898
0.713853
0.713807
0.713762
0.713718
0.713677
0.713638
0.713601
0.713569
0.713539
0.713513
0.71349
0.713471
0.713455
0.713442
0.713433
0.713426
0.713423
0.713422
0.713424
0.713428
0.713434
0.713442
0.713451
0.713462
0.713473
0.713485
0.713498
0.71351
0.713522
0.713533
0.713544
0.713555
0.713565
0.713574
0.713584
0.713593
0.713601
0.713609
0.713616
0.713623
0.713629
0.712052
0.712052
0.712051
0.712051
0.71205
0.71205
0.712049
0.71205
0.712049
0.712049
0.712049
0.712049
0.712049
0.712049
0.712049
0.71205
0.71205
0.712051
0.712052
0.712052
0.712053
0.712054
0.712055
0.712056
0.712057
0.712058
0.712059
0.71206
0.712062
0.712063
0.712064
0.712065
0.712066
0.712066
0.712067
0.712067
0.712066
0.712065
0.712064
0.712062
0.712059
0.712056
0.712053
0.71205
0.712048
0.712046
0.712047
0.712052
0.71206
0.712076
0.712099
0.712131
0.712175
0.71223
0.712298
0.712379
0.712473
0.712578
0.712693
0.712818
0.712948
0.713082
0.713217
0.713349
0.713476
0.713596
0.713704
0.713801
0.713883
0.71395
0.714002
0.714038
0.71406
0.714068
0.714064
0.714049
0.714025
0.713993
0.713956
0.713916
0.713872
0.713828
0.713783
0.713739
0.713697
0.713656
0.713618
0.713584
0.713552
0.713523
0.713498
0.713476
0.713458
0.713442
0.71343
0.713421
0.713415
0.713412
0.713411
0.713413
0.713417
0.713423
0.713431
0.713441
0.713452
0.713464
0.713477
0.71349
0.713503
0.713517
0.71353
0.713543
0.713555
0.713567
0.713578
0.713588
0.713597
0.713604
0.713611
0.713617
0.713622
0.713628
0.712048
0.712048
0.712047
0.712049
0.712047
0.712049
0.712048
0.712049
0.712049
0.712049
0.712049
0.71205
0.712049
0.71205
0.71205
0.712051
0.712051
0.712052
0.712052
0.712053
0.712054
0.712054
0.712055
0.712056
0.712057
0.712059
0.71206
0.712061
0.712062
0.712063
0.712065
0.712066
0.712067
0.712068
0.712069
0.712069
0.71207
0.712069
0.712068
0.712066
0.712064
0.71206
0.712056
0.712051
0.712046
0.712042
0.71204
0.712042
0.712048
0.712061
0.712082
0.712113
0.712156
0.71221
0.712278
0.712358
0.712451
0.712556
0.712671
0.712794
0.712923
0.713055
0.713188
0.713318
0.713443
0.713559
0.713665
0.713758
0.713838
0.713902
0.71395
0.713984
0.714004
0.71401
0.714004
0.713988
0.713964
0.713933
0.713897
0.713858
0.713816
0.713773
0.713731
0.713689
0.713649
0.713611
0.713576
0.713544
0.713515
0.713489
0.713466
0.713446
0.71343
0.713416
0.713406
0.713398
0.713394
0.713392
0.713392
0.713395
0.7134
0.713407
0.713416
0.713426
0.713437
0.71345
0.713463
0.713477
0.713491
0.713505
0.713518
0.713532
0.713545
0.713557
0.71357
0.713581
0.713592
0.713602
0.713612
0.71362
0.713627
0.713633
0.712054
0.712053
0.712052
0.712052
0.71205
0.71205
0.712049
0.712049
0.712048
0.712048
0.712048
0.712048
0.712048
0.712048
0.712048
0.712049
0.712049
0.71205
0.712051
0.712052
0.712052
0.712053
0.712054
0.712055
0.712057
0.712058
0.712059
0.71206
0.712062
0.712063
0.712064
0.712066
0.712067
0.712068
0.712069
0.71207
0.71207
0.71207
0.712068
0.712066
0.712063
0.712059
0.712054
0.712048
0.712043
0.712038
0.712036
0.712036
0.712042
0.712055
0.712076
0.712106
0.712148
0.712203
0.712269
0.712349
0.712441
0.712543
0.712656
0.712776
0.712902
0.71303
0.713159
0.713284
0.713403
0.713513
0.713613
0.713699
0.713772
0.71383
0.713873
0.713902
0.713917
0.71392
0.713912
0.713894
0.71387
0.713839
0.713804
0.713767
0.713728
0.713688
0.713649
0.713612
0.713576
0.713542
0.713511
0.713482
0.713457
0.713434
0.713415
0.713398
0.713384
0.713373
0.713364
0.713358
0.713355
0.713354
0.713355
0.713358
0.713364
0.713371
0.713379
0.713389
0.713401
0.713413
0.713427
0.713441
0.713456
0.713471
0.713487
0.713502
0.713518
0.713533
0.713548
0.713563
0.713576
0.713589
0.7136
0.71361
0.713619
0.713627
0.712042
0.712045
0.712042
0.712046
0.712044
0.712047
0.712046
0.712048
0.712047
0.712048
0.712047
0.712048
0.712048
0.712048
0.712048
0.712049
0.712049
0.71205
0.712051
0.712051
0.712052
0.712053
0.712054
0.712055
0.712056
0.712058
0.712059
0.71206
0.712062
0.712063
0.712064
0.712066
0.712068
0.712069
0.71207
0.712071
0.712071
0.712071
0.71207
0.712068
0.712065
0.71206
0.712055
0.712049
0.712043
0.712038
0.712035
0.712036
0.712042
0.712055
0.712076
0.712107
0.712149
0.712203
0.71227
0.712348
0.712438
0.712538
0.712647
0.712763
0.712883
0.713005
0.713126
0.713242
0.713352
0.713452
0.713542
0.713618
0.71368
0.713729
0.713763
0.713784
0.713793
0.713791
0.71378
0.713761
0.713736
0.713707
0.713675
0.71364
0.713605
0.713571
0.713537
0.713505
0.713474
0.713446
0.713421
0.713398
0.713377
0.713359
0.713344
0.713331
0.713321
0.713313
0.713307
0.713304
0.713303
0.713304
0.713306
0.71331
0.713316
0.713324
0.713332
0.713342
0.713353
0.713365
0.713378
0.713392
0.713407
0.713422
0.713439
0.713455
0.713472
0.71349
0.713507
0.713525
0.713542
0.713559
0.713575
0.71359
0.713604
0.713616
0.712054
0.712054
0.71205
0.712051
0.712047
0.712048
0.712045
0.712046
0.712045
0.712045
0.712045
0.712045
0.712045
0.712046
0.712046
0.712047
0.712047
0.712048
0.712049
0.71205
0.712051
0.712052
0.712053
0.712054
0.712055
0.712056
0.712058
0.712059
0.712061
0.712062
0.712064
0.712065
0.712067
0.712068
0.712069
0.71207
0.71207
0.71207
0.712069
0.712067
0.712064
0.71206
0.712055
0.71205
0.712045
0.712042
0.712041
0.712043
0.712051
0.712066
0.712088
0.712121
0.712164
0.712218
0.712284
0.712361
0.712448
0.712545
0.712649
0.712758
0.71287
0.712982
0.713092
0.713196
0.713292
0.713379
0.713454
0.713516
0.713566
0.713602
0.713626
0.713638
0.71364
0.713633
0.713618
0.713598
0.713574
0.713547
0.713518
0.713489
0.71346
0.713431
0.713404
0.713379
0.713356
0.713335
0.713316
0.713299
0.713285
0.713272
0.713262
0.713253
0.713247
0.713243
0.71324
0.713239
0.71324
0.713242
0.713245
0.71325
0.713256
0.713263
0.71327
0.713279
0.713289
0.7133
0.713312
0.713324
0.713338
0.713354
0.71337
0.713388
0.713406
0.713426
0.713446
0.713468
0.713489
0.713511
0.713532
0.713552
0.713571
0.71359
0.712022
0.712036
0.71203
0.712041
0.712038
0.712044
0.712042
0.712045
0.712044
0.712046
0.712045
0.712046
0.712046
0.712047
0.712047
0.712048
0.712048
0.712049
0.712049
0.71205
0.712051
0.712052
0.712053
0.712054
0.712055
0.712056
0.712058
0.712059
0.71206
0.712062
0.712064
0.712065
0.712067
0.712068
0.712069
0.712071
0.712071
0.712071
0.71207
0.712069
0.712066
0.712063
0.71206
0.712056
0.712053
0.712051
0.712053
0.712058
0.712069
0.712087
0.712112
0.712147
0.712192
0.712247
0.712313
0.712388
0.712473
0.712564
0.712661
0.712761
0.712862
0.712961
0.713056
0.713144
0.713223
0.713292
0.71335
0.713396
0.713431
0.713453
0.713466
0.713469
0.713465
0.713454
0.713438
0.713419
0.713398
0.713375
0.713352
0.713329
0.713307
0.713287
0.713268
0.71325
0.713235
0.713221
0.713209
0.713199
0.71319
0.713183
0.713178
0.713174
0.713172
0.713171
0.713171
0.713172
0.713175
0.713178
0.713183
0.713188
0.713194
0.7132
0.713207
0.713214
0.713222
0.713231
0.71324
0.713251
0.713263
0.713276
0.713291
0.713308
0.713327
0.713347
0.71337
0.713394
0.713419
0.713446
0.713473
0.7135
0.713526
0.713552
0.712046
0.712053
0.712045
0.712047
0.712042
0.712044
0.712041
0.712043
0.712041
0.712043
0.712042
0.712043
0.712043
0.712044
0.712045
0.712046
0.712046
0.712047
0.712048
0.712049
0.71205
0.712051
0.712052
0.712054
0.712055
0.712056
0.712058
0.712059
0.712061
0.712062
0.712064
0.712066
0.712068
0.712069
0.712071
0.712073
0.712074
0.712074
0.712075
0.712074
0.712074
0.712073
0.712072
0.712071
0.712072
0.712075
0.71208
0.71209
0.712106
0.712128
0.712158
0.712197
0.712244
0.7123
0.712365
0.712438
0.712517
0.712601
0.712688
0.712776
0.712863
0.712946
0.713022
0.713092
0.713152
0.713202
0.713242
0.713272
0.713292
0.713303
0.713306
0.713303
0.713295
0.713282
0.713267
0.713251
0.713234
0.713217
0.713201
0.713186
0.713172
0.713159
0.713148
0.713139
0.713131
0.713124
0.713118
0.713114
0.713111
0.713108
0.713107
0.713107
0.713108
0.713109
0.713112
0.713115
0.713119
0.713123
0.713127
0.713132
0.713137
0.713142
0.713147
0.713153
0.713158
0.713164
0.71317
0.713177
0.713186
0.713196
0.713208
0.713223
0.71324
0.71326
0.713283
0.713309
0.713338
0.713368
0.7134
0.713434
0.713468
0.713502
0.711941
0.712024
0.712018
0.712043
0.712038
0.712047
0.712044
0.712048
0.712046
0.712048
0.712047
0.712048
0.712048
0.712048
0.712048
0.712049
0.712049
0.71205
0.712051
0.712052
0.712052
0.712054
0.712055
0.712056
0.712057
0.712059
0.712061
0.712062
0.712064
0.712067
0.712069
0.712071
0.712074
0.712077
0.712079
0.712082
0.712085
0.712087
0.71209
0.712092
0.712094
0.712097
0.7121
0.712104
0.712109
0.712117
0.71213
0.712146
0.712167
0.712195
0.71223
0.712272
0.712321
0.712377
0.71244
0.712508
0.71258
0.712654
0.712728
0.712801
0.71287
0.712934
0.712991
0.713041
0.713082
0.713115
0.713139
0.713155
0.713163
0.713165
0.713163
0.713157
0.713148
0.713139
0.713128
0.713117
0.713107
0.713097
0.713088
0.71308
0.713074
0.713068
0.713064
0.71306
0.713058
0.713056
0.713055
0.713055
0.713055
0.713056
0.713058
0.71306
0.713063
0.713066
0.71307
0.713074
0.713078
0.713083
0.713088
0.713092
0.713096
0.7131
0.713103
0.713106
0.713109
0.713111
0.713114
0.713117
0.713121
0.713128
0.713136
0.713147
0.713162
0.71318
0.713202
0.713227
0.713257
0.71329
0.713327
0.713365
0.713406
0.713448
0.712312
0.71227
0.712263
0.712221
0.712208
0.712164
0.712148
0.712095
0.712084
0.712009
0.712024
0.71205
0.712043
0.712049
0.712044
0.712046
0.712043
0.712045
0.712044
0.712045
0.712045
0.712046
0.712046
0.712047
0.712048
0.712049
0.71205
0.712051
0.712052
0.712054
0.712055
0.712057
0.712059
0.712061
0.712063
0.712066
0.712068
0.712071
0.712074
0.712078
0.712082
0.712086
0.71209
0.712095
0.7121
0.712106
0.712111
0.712117
0.712124
0.71213
0.712137
0.712145
0.712154
0.712164
0.712177
)
;

boundaryField
{
    inlet
    {
        type            zeroGradient;
    }
    outlet
    {
        type            fixedValue;
        value           nonuniform 0();
    }
    walls
    {
        type            zeroGradient;
    }
    symwall
    {
        type            empty;
    }
    procBoundary0to1
    {
        type            processor;
        value           nonuniform List<scalar> 10(0.713632 0.713634 0.713633 0.713638 0.713635 0.713627 0.713606 0.713576 0.713535 0.713492);
    }
    procBoundary0to2
    {
        type            processor;
        value           nonuniform List<scalar> 
133
(
0.712193
0.712211
0.712234
0.712262
0.712295
0.712333
0.712377
0.712426
0.71248
0.712538
0.712598
0.712659
0.71272
0.712779
0.712835
0.712886
0.712932
0.712971
0.713002
0.713026
0.713044
0.713056
0.713062
0.713065
0.713064
0.713061
0.713055
0.713049
0.713043
0.713036
0.713031
0.713026
0.713023
0.713021
0.713019
0.713018
0.713018
0.713018
0.713019
0.71302
0.713021
0.713023
0.713025
0.713027
0.71303
0.713032
0.713036
0.713039
0.713043
0.713047
0.713052
0.713056
0.713061
0.713065
0.713069
0.713072
0.713075
0.713077
0.713077
0.713077
0.713076
0.713075
0.713075
0.713075
0.713077
0.713081
0.713088
0.713099
0.713113
0.713133
0.713157
0.713186
0.713221
0.713259
0.713302
0.713348
0.713396
0.712321
0.712273
0.712266
0.712223
0.71221
0.712166
0.712149
0.712097
0.71208
0.71201
0.711983
0.712034
0.712027
0.71205
0.712044
0.712054
0.71205
0.712054
0.712052
0.712054
0.712053
0.712055
0.712054
0.712056
0.712056
0.712057
0.712058
0.71206
0.712062
0.712064
0.712066
0.712069
0.712071
0.712075
0.712078
0.712083
0.712087
0.712092
0.712097
0.712103
0.71211
0.712117
0.712125
0.712133
0.712142
0.712151
0.712161
0.712172
0.712183
0.712195
0.712208
0.712223
0.712238
0.712256
0.712193
0.712274
)
;
    }
}


// ************************************************************************* //
