/*--------------------------------*- C++ -*----------------------------------*\
| =========                 |                                                 |
| \\      /  F ield         | OpenFOAM: The Open Source CFD Toolbox           |
|  \\    /   O peration     | Version:  4.1                                   |
|   \\  /    A nd           | Web:      www.OpenFOAM.org                      |
|    \\/     M anipulation  |                                                 |
\*---------------------------------------------------------------------------*/
FoamFile
{
    version     2.0;
    format      ascii;
    class       volVectorField;
    location    "0.0054";
    object      U;
}
// * * * * * * * * * * * * * * * * * * * * * * * * * * * * * * * * * * * * * //

dimensions      [0 1 -1 0 0 0 0];

internalField   nonuniform List<vector> 
441
(
(-0.000135201 0.000132581 0)
(-0.000547448 0.000247527 0)
(-0.000995802 0.000300196 0)
(-0.00143634 0.000305786 0)
(-0.00184456 0.00028569 0)
(-0.00220724 0.000251668 0)
(-0.00251552 0.000209368 0)
(-0.00276266 0.000161609 0)
(-0.00294347 0.000110112 0)
(-0.00305421 5.61911e-05 0)
(-0.00309256 1.01553e-06 0)
(-0.00305762 -5.42896e-05 0)
(-0.00294996 -0.000108588 0)
(-0.00277159 -0.000160678 0)
(-0.00252604 -0.000209188 0)
(-0.00221831 -0.000252322 0)
(-0.00185508 -0.000287157 0)
(-0.00144529 -0.000307911 0)
(-0.00100234 -0.000302648 0)
(-0.000551127 -0.000249743 0)
(-0.000136089 -0.000133807 0)
(-0.000265214 0.000544454 0)
(-0.00110789 0.00105316 0)
(-0.00201836 0.00123696 0)
(-0.00290604 0.00123958 0)
(-0.00372325 0.00114911 0)
(-0.00444608 0.00100856 0)
(-0.0050586 0.000837565 0)
(-0.00554863 0.000645948 0)
(-0.00590658 0.00043992 0)
(-0.00612548 0.000224451 0)
(-0.00620099 4.0787e-06 0)
(-0.00613148 -0.000216789 0)
(-0.00591803 -0.000433701 0)
(-0.00556443 -0.000641996 0)
(-0.00507723 -0.000836495 0)
(-0.00446572 -0.00101069 0)
(-0.00374196 -0.0011544 0)
(-0.00292197 -0.00124746 0)
(-0.00202998 -0.00124622 0)
(-0.00111436 -0.00106171 0)
(-0.000266622 -0.000549046 0)
(-0.000347113 0.00102034 0)
(-0.00140681 0.00197774 0)
(-0.00254592 0.00230695 0)
(-0.00365462 0.00230171 0)
(-0.00467378 0.00212811 0)
(-0.00557383 0.0018648 0)
(-0.00633535 0.00154702 0)
(-0.00694373 0.00119223 0)
(-0.00738765 0.000811552 0)
(-0.00765893 0.000413903 0)
(-0.00775254 7.43576e-06 0)
(-0.00766655 -0.000399932 0)
(-0.00740218 -0.000800212 0)
(-0.00696381 -0.00118503 0)
(-0.00635908 -0.00154508 0)
(-0.0055989 -0.00186876 0)
(-0.00469772 -0.00213787 0)
(-0.00367504 -0.00231627 0)
(-0.00256087 -0.00232408 0)
(-0.00141517 -0.00199357 0)
(-0.000348978 -0.00102877 0)
(-0.000400369 0.00153951 0)
(-0.00159916 0.00297859 0)
(-0.00288229 0.00346342 0)
(-0.00412914 0.00344811 0)
(-0.00527341 0.00318313 0)
(-0.00628203 0.00278597 0)
(-0.00713374 0.00230902 0)
(-0.00781295 0.00177818 0)
(-0.00830791 0.00120981 0)
(-0.00861028 0.000616946 0)
(-0.00871496 1.1346e-05 0)
(-0.00861996 -0.000595625 0)
(-0.00832639 -0.0011925 0)
(-0.00783854 -0.00176718 0)
(-0.00716405 -0.0023061 0)
(-0.00631417 -0.00279211 0)
(-0.0053042 -0.00319823 0)
(-0.00415551 -0.00347066 0)
(-0.00290166 -0.00348999 0)
(-0.00161005 -0.00300314 0)
(-0.000402848 -0.00155253 0)
(-0.000447066 0.00210208 0)
(-0.00177436 0.00405652 0)
(-0.00319032 0.00470696 0)
(-0.00456322 0.00467864 0)
(-0.00581994 0.00431311 0)
(-0.00692449 0.0037702 0)
(-0.00785447 0.00312127 0)
(-0.0085942 0.00240155 0)
(-0.0091323 0.00163303 0)
(-0.00946092 0.000832842 0)
(-0.00957535 1.62089e-05 0)
(-0.00947366 -0.000802365 0)
(-0.00915666 -0.00160823 0)
(-0.00862804 -0.00238573 0)
(-0.0078947 -0.00311701 0)
(-0.00696732 -0.00377896 0)
(-0.00586116 -0.00433484 0)
(-0.00459868 -0.00471122 0)
(-0.00321649 -0.00474546 0)
(-0.00178915 -0.00409214 0)
(-0.000450488 -0.00212098 0)
(-0.000499289 0.00271958 0)
(-0.0019761 0.00523468 0)
(-0.00354682 0.00606302 0)
(-0.00506503 0.00601676 0)
(-0.00644941 0.00553776 0)
(-0.00766095 0.00483306 0)
(-0.00867667 0.00399539 0)
(-0.0094816 0.0030705 0)
(-0.0100656 0.00208643 0)
(-0.0104221 0.00106435 0)
(-0.0105472 2.25141e-05 0)
(-0.0104392 -0.00102197 0)
(-0.0100984 -0.00205182 0)
(-0.00952728 -0.00304825 0)
(-0.00873122 -0.00398913 0)
(-0.00771932 -0.00484497 0)
(-0.00650591 -0.00556795 0)
(-0.00511392 -0.00606239 0)
(-0.0035831 -0.00611721 0)
(-0.0019967 -0.00528497 0)
(-0.000504121 -0.00274632 0)
(-0.000563507 0.00340862 0)
(-0.00222693 0.00654468 0)
(-0.00399018 0.007566 0)
(-0.00568703 0.00749371 0)
(-0.00722578 0.00688286 0)
(-0.00856425 0.0059944 0)
(-0.00967965 0.00494584 0)
(-0.0105589 0.00379494 0)
(-0.0111945 0.00257624 0)
(-0.0115821 0.00131468 0)
(-0.0117194 3.08393e-05 0)
(-0.0116052 -0.00125654 0)
(-0.0112389 -0.0025285 0)
(-0.010621 -0.00376385 0)
(-0.00975416 -0.00493649 0)
(-0.00864449 -0.00601004 0)
(-0.007304 -0.00692395 0)
(-0.00575517 -0.00755661 0)
(-0.00404108 -0.00764126 0)
(-0.002256 -0.00661489 0)
(-0.000570399 -0.0034461 0)
(-0.000644305 0.00418966 0)
(-0.00254321 0.00802396 0)
(-0.00454745 0.00925572 0)
(-0.00646453 0.00914452 0)
(-0.00818968 0.00837599 0)
(-0.00967765 0.00727426 0)
(-0.0109073 0.00598617 0)
(-0.0118697 0.00458346 0)
(-0.0125617 0.00310751 0)
(-0.012983 0.00158644 0)
(-0.0131339 4.18935e-05 0)
(-0.013014 -0.00150729 0)
(-0.0126215 -0.00304204 0)
(-0.0119539 -0.00454008 0)
(-0.0110091 -0.00597198 0)
(-0.00978815 -0.00729412 0)
(-0.00829835 -0.0084311 0)
(-0.00656003 -0.00923041 0)
(-0.00461936 -0.00935963 0)
(-0.00258458 -0.0081216 0)
(-0.000654195 -0.00424207 0)
(-0.000746536 0.0050878 0)
(-0.00294294 0.00971695 0)
(-0.00524776 0.0111779 0)
(-0.00743392 0.0110073 0)
(-0.00938045 0.010045 0)
(-0.0110399 0.00869068 0)
(-0.0123958 0.00712678 0)
(-0.0134463 0.00544133 0)
(-0.0141962 0.00368268 0)
(-0.0146515 0.00188086 0)
(-0.0148168 5.65598e-05 0)
(-0.0146929 -0.00177368 0)
(-0.0142763 -0.00359318 0)
(-0.0135599 -0.00538069 0)
(-0.0125343 -0.00710487 0)
(-0.011192 -0.00871483 0)
(-0.00953168 -0.0101178 0)
(-0.00756834 -0.0111238 0)
(-0.00535002 -0.011321 0)
(-0.00300226 -0.00985278 0)
(-0.00076083 -0.00516124 0)
(-0.000876652 0.00613485 0)
(-0.00345047 0.0116783 0)
(-0.00612989 0.013386 0)
(-0.00864193 0.0131235 0)
(-0.0108461 0.0119164 0)
(-0.0126954 0.0102574 0)
(-0.0141829 0.00837243 0)
(-0.0153197 0.00636832 0)
(-0.0161229 0.00429992 0)
(-0.0166087 0.00219694 0)
(-0.0167878 7.59288e-05 0)
(-0.0166633 -0.00205254 0)
(-0.0162293 -0.00417787 0)
(-0.0154717 -0.00628327 0)
(-0.0143705 -0.00833809 0)
(-0.0129042 -0.0102849 0)
(-0.0110568 -0.0120112 0)
(-0.00883207 -0.0132805 0)
(-0.00627651 -0.013583 0)
(-0.00353643 -0.0118678 0)
(-0.000897516 -0.00623834 0)
(-0.0010438 0.00737287 0)
(-0.00410085 0.0139777 0)
(-0.00724842 0.0159446 0)
(-0.0101518 0.0155377 0)
(-0.0126482 0.0140132 0)
(-0.0146971 0.0119804 0)
(-0.0163099 0.00971838 0)
(-0.0175193 0.00735542 0)
(-0.0183618 0.00495091 0)
(-0.0188682 0.00253035 0)
(-0.0190587 0.000101311 0)
(-0.0189393 -0.00233679 0)
(-0.0185011 -0.0047848 0)
(-0.0177206 -0.00723562 0)
(-0.0165621 -0.00966378 0)
(-0.0149825 -0.0120079 0)
(-0.012942 -0.0141335 0)
(-0.0104222 -0.0157476 0)
(-0.00746076 -0.0162157 0)
(-0.00422709 -0.0142436 0)
(-0.00107467 -0.00751996 0)
(-0.00126066 0.00885994 0)
(-0.00494371 0.0167082 0)
(-0.0086784 0.0189327 0)
(-0.0120456 0.0182962 0)
(-0.0148603 0.0163496 0)
(-0.0171009 0.0138509 0)
(-0.0188125 0.0111444 0)
(-0.0200622 0.00838009 0)
(-0.0209153 0.00561757 0)
(-0.0214235 0.00287172 0)
(-0.0216196 0.000134208 0)
(-0.0215142 -0.00261385 0)
(-0.0210945 -0.00539206 0)
(-0.0203246 -0.0082106 0)
(-0.0191474 -0.0110566 0)
(-0.0174886 -0.0138706 0)
(-0.0152695 -0.0164967 0)
(-0.012432 -0.0185732 0)
(-0.00898912 -0.0193055 0)
(-0.00513191 -0.017084 0)
(-0.00130703 -0.00907152 0)
(-0.00154223 0.0106795 0)
(-0.00604155 0.019998 0)
(-0.0105091 0.0224477 0)
(-0.0144099 0.0214421 0)
(-0.0175443 0.0189213 0)
(-0.0199346 0.0158357 0)
(-0.0216842 0.0126058 0)
(-0.0229131 0.00939969 0)
(-0.0237269 0.00626791 0)
(-0.0242052 0.00320466 0)
(-0.0243965 0.000176167 0)
(-0.0243171 -0.00286379 0)
(-0.0239506 -0.00596292 0)
(-0.0232463 -0.00915905 0)
(-0.0221194 -0.0124637 0)
(-0.020453 -0.0158308 0)
(-0.0181092 -0.0190898 0)
(-0.0149613 -0.0217999 0)
(-0.0109666 -0.0229589 0)
(-0.00632562 -0.0205336 0)
(-0.00161287 -0.0109885 0)
(-0.00189643 0.0129541 0)
(-0.00744054 0.0240265 0)
(-0.0127902 0.0266054 0)
(-0.0172556 0.0250014 0)
(-0.0206494 0.0216871 0)
(-0.0230823 0.0178591 0)
(-0.0247525 0.0140202 0)
(-0.0258561 0.0103427 0)
(-0.0265513 0.00685086 0)
(-0.0269501 0.00350319 0)
(-0.0271188 0.000228374 0)
(-0.0270808 -0.0030576 0)
(-0.026816 -0.0064412 0)
(-0.0262591 -0.010001 0)
(-0.0252943 -0.0137902 0)
(-0.0237511 -0.0177973 0)
(-0.0214084 -0.0218561 0)
(-0.018029 -0.0254459 0)
(-0.0134589 -0.0272992 0)
(-0.00786971 -0.0247948 0)
(-0.00200439 -0.013413 0)
(-0.00228737 0.0158572 0)
(-0.00904776 0.0290289 0)
(-0.0153243 0.0315158 0)
(-0.0202407 0.028944 0)
(-0.0236871 0.0245294 0)
(-0.0259324 0.0197739 0)
(-0.027315 0.0152486 0)
(-0.0281271 0.0110978 0)
(-0.0285849 0.00729058 0)
(-0.0288317 0.00372901 0)
(-0.0289498 0.000290536 0)
(-0.0289682 -0.0031566 0)
(-0.0288662 -0.00674774 0)
(-0.0285678 -0.0106166 0)
(-0.0279308 -0.0148808 0)
(-0.0267293 -0.019598 0)
(-0.024641 -0.0246482 0)
(-0.0212694 -0.029456 0)
(-0.0162647 -0.0324332 0)
(-0.00968003 -0.03013 0)
(-0.00244936 -0.0165488 0)
(-0.00252495 0.0195972 0)
(-0.0102517 0.0352372 0)
(-0.0170553 0.0371798 0)
(-0.0218996 0.0330785 0)
(-0.0248743 0.0271766 0)
(-0.0264839 0.0213123 0)
(-0.0272333 0.0160691 0)
(-0.0275067 0.0115019 0)
(-0.0275624 0.00748134 0)
(-0.0275591 0.0038287 0)
(-0.0275837 0.000358372 0)
(-0.0276677 -0.00311497 0)
(-0.0277931 -0.0067811 0)
(-0.0278864 -0.0108402 0)
(-0.0277989 -0.0154995 0)
(-0.0272729 -0.0209335 0)
(-0.0258997 -0.027144 0)
(-0.0231043 -0.0335801 0)
(-0.0182524 -0.0383219 0)
(-0.0111175 -0.0367817 0)
(-0.00275487 -0.0206445 0)
(-0.0019765 0.0242788 0)
(-0.00896706 0.042588 0)
(-0.0146265 0.043167 0)
(-0.0179374 0.0368063 0)
(-0.0193238 0.0290538 0)
(-0.0195166 0.0220124 0)
(-0.0191169 0.0161482 0)
(-0.0185241 0.0113319 0)
(-0.0179766 0.00728631 0)
(-0.0176063 0.00373255 0)
(-0.0174802 0.000419183 0)
(-0.0176229 -0.00288816 0)
(-0.0180251 -0.00642808 0)
(-0.0186381 -0.0104672 0)
(-0.0193516 -0.0153179 0)
(-0.0199489 -0.0213212 0)
(-0.0200356 -0.0287054 0)
(-0.0189607 -0.0371096 0)
(-0.0158349 -0.04441 0)
(-0.00997695 -0.0446234 0)
(-0.00226821 -0.02584 0)
(0.00112553 0.0294794 0)
(0.00037164 0.0499429 0)
(0.000290915 0.0479172 0)
(0.00160108 0.0386908 0)
(0.00372112 0.0290838 0)
(0.00605473 0.0211539 0)
(0.00821715 0.0150353 0)
(0.0100071 0.0103183 0)
(0.0113358 0.0065511 0)
(0.0121711 0.00336046 0)
(0.0125042 0.000447263 0)
(0.0123318 -0.00244923 0)
(0.0116495 -0.00559202 0)
(0.0104519 -0.00929009 0)
(0.00874311 -0.0139447 0)
(0.00656301 -0.0200753 0)
(0.00404761 -0.0282264 0)
(0.00154062 -0.0384663 0)
(-0.000266333 -0.0488774 0)
(-0.000436959 -0.052263 0)
(0.000829809 -0.0316902 0)
(0.0117357 0.032954 0)
(0.0304903 0.0531291 0)
(0.044491 0.0474878 0)
(0.0550042 0.0359473 0)
(0.0628246 0.0255903 0)
(0.0686165 0.0178159 0)
(0.0728764 0.0122519 0)
(0.0759445 0.00821914 0)
(0.0780478 0.00515268 0)
(0.0793314 0.00264674 0)
(0.0798782 0.000406385 0)
(0.0797197 -0.00180986 0)
(0.0788368 -0.0042421 0)
(0.0771509 -0.00718345 0)
(0.0745006 -0.0110466 0)
(0.0705981 -0.0164369 0)
(0.0649696 -0.024156 0)
(0.0569115 -0.0348443 0)
(0.045609 -0.0474862 0)
(0.0305205 -0.0550291 0)
(0.0115814 -0.0358045 0)
(0.0461676 0.0298095 0)
(0.108352 0.0443292 0)
(0.145829 0.0360654 0)
(0.167673 0.0253983 0)
(0.180964 0.0171442 0)
(0.189372 0.0114707 0)
(0.194887 0.00766511 0)
(0.19856 0.00504357 0)
(0.200961 0.00312778 0)
(0.202399 0.00160684 0)
(0.203033 0.000270689 0)
(0.202924 -0.00104393 0)
(0.202046 -0.00249603 0)
(0.200269 -0.00428267 0)
(0.197299 -0.00669473 0)
(0.192539 -0.0101955 0)
(0.184798 -0.0155025 0)
(0.17175 -0.0235207 0)
(0.149174 -0.0345965 0)
(0.109684 -0.0446694 0)
(0.0463311 -0.0327539 0)
(0.181689 0.00365681 0)
(0.291515 0.00490108 0)
(0.340006 0.00663803 0)
(0.361349 0.00575931 0)
(0.372306 0.00422359 0)
(0.378432 0.00292558 0)
(0.382138 0.00198089 0)
(0.384478 0.00130881 0)
(0.38596 0.000812448 0)
(0.386834 0.000418126 0)
(0.387224 7.283e-05 0)
(0.387176 -0.000265146 0)
(0.386673 -0.000634881 0)
(0.385624 -0.00108018 0)
(0.383811 -0.00165483 0)
(0.38075 -0.00241911 0)
(0.375345 -0.0034007 0)
(0.364956 -0.00445716 0)
(0.343335 -0.00490859 0)
(0.292633 -0.00384525 0)
(0.180069 -0.00630146 0)
)
;

boundaryField
{
    movingWall
    {
        type            fixedValue;
        value           uniform (0.5 0 0);
    }
    fixedWalls
    {
        type            noSlip;
    }
    frontAndBack
    {
        type            empty;
    }
}


// ************************************************************************* //
