/*--------------------------------*- C++ -*----------------------------------*\
| =========                 |                                                 |
| \\      /  F ield         | OpenFOAM: The Open Source CFD Toolbox           |
|  \\    /   O peration     | Version:  4.1                                   |
|   \\  /    A nd           | Web:      www.OpenFOAM.org                      |
|    \\/     M anipulation  |                                                 |
\*---------------------------------------------------------------------------*/
FoamFile
{
    version     2.0;
    format      ascii;
    class       volVectorField;
    location    "898";
    object      U;
}
// * * * * * * * * * * * * * * * * * * * * * * * * * * * * * * * * * * * * * //

dimensions      [0 1 -1 0 0 0 0];

internalField   nonuniform List<vector> 
3264
(
(-2.6665e-06 -4.75753e-07 0)
(-0.0001332 3.0569e-05 0)
(-0.000389823 4.86696e-05 0)
(-0.000677069 5.10074e-05 0)
(-0.000978964 5.27301e-05 0)
(-0.00128487 5.21308e-05 0)
(-0.00158943 5.34228e-05 0)
(-0.001894 5.4054e-05 0)
(-0.00219396 5.51408e-05 0)
(-0.00249 5.57438e-05 0)
(-0.00277951 5.62719e-05 0)
(-0.00306265 5.64797e-05 0)
(-0.00333832 5.65281e-05 0)
(-0.00360655 5.63776e-05 0)
(-0.00386696 5.60994e-05 0)
(-0.00411959 5.5704e-05 0)
(-0.00436439 5.52275e-05 0)
(-0.00460141 5.4686e-05 0)
(-0.0048307 5.40992e-05 0)
(-0.00505234 5.34789e-05 0)
(-0.0052664 5.28355e-05 0)
(-0.00547293 5.21756e-05 0)
(-0.00567197 5.15036e-05 0)
(-0.00586355 5.08214e-05 0)
(-0.00604766 5.01289e-05 0)
(-0.00622426 4.9424e-05 0)
(-0.00639327 4.87025e-05 0)
(-0.00655459 4.79582e-05 0)
(-0.00670804 4.71831e-05 0)
(-0.00685343 4.6367e-05 0)
(-0.00699049 4.54979e-05 0)
(-0.00711891 4.45618e-05 0)
(-0.00723832 4.35427e-05 0)
(-0.00734831 4.24231e-05 0)
(-0.00744838 4.11837e-05 0)
(-0.00753801 3.98043e-05 0)
(-0.00761659 3.82636e-05 0)
(-0.0076835 3.65399e-05 0)
(-0.00773805 3.46116e-05 0)
(-0.00777952 3.24577e-05 0)
(-0.00780715 3.00588e-05 0)
(-0.00782018 2.73973e-05 0)
(-0.00781782 2.44584e-05 0)
(-0.0077993 2.1231e-05 0)
(-0.00776386 1.77079e-05 0)
(-0.00771078 1.38867e-05 0)
(-0.00763937 9.77041e-06 0)
(-0.00754903 5.36771e-06 0)
(-0.00743922 6.93284e-07 0)
(-0.00730948 -4.23206e-06 0)
(-0.00715949 -9.38138e-06 0)
(-0.00698903 -1.47218e-05 0)
(-0.006798 -2.0215e-05 0)
(-0.00658647 -2.58175e-05 0)
(-0.00635464 -3.14815e-05 0)
(-0.00610286 -3.71556e-05 0)
(-0.00583165 -4.27858e-05 0)
(-0.00554168 -4.83164e-05 0)
(-0.00523378 -5.36911e-05 0)
(-0.00490894 -5.88541e-05 0)
(-0.00456827 -6.37513e-05 0)
(-0.00421305 -6.8331e-05 0)
(-0.00384464 -7.25455e-05 0)
(-0.00346456 -7.63515e-05 0)
(-0.00307439 -7.97113e-05 0)
(-0.00267579 -8.25935e-05 0)
(-0.00227051 -8.49735e-05 0)
(-0.00186031 -8.68337e-05 0)
(-0.00144698 -8.81645e-05 0)
(-0.00103232 -8.89636e-05 0)
(-0.000618091 -8.92365e-05 0)
(-0.000206033 -8.89958e-05 0)
(0.000202177 -8.82613e-05 0)
(0.000604936 -8.70591e-05 0)
(0.00100073 -8.54209e-05 0)
(0.00138816 -8.33836e-05 0)
(0.00176594 -8.09878e-05 0)
(0.0021329 -7.82774e-05 0)
(0.00248802 -7.52986e-05 0)
(0.00283042 -7.20983e-05 0)
(0.00315935 -6.8724e-05 0)
(0.00347424 -6.52222e-05 0)
(0.00377463 -6.1638e-05 0)
(0.00406022 -5.80143e-05 0)
(0.00433084 -5.43909e-05 0)
(0.00458644 -5.08043e-05 0)
(0.00482711 -4.72871e-05 0)
(0.00505303 -4.38678e-05 0)
(0.0052645 -4.0571e-05 0)
(0.00546188 -3.74167e-05 0)
(0.00564564 -3.44209e-05 0)
(0.00581629 -3.15957e-05 0)
(0.0059744 -2.89493e-05 0)
(0.00612058 -2.64866e-05 0)
(0.00625548 -2.42092e-05 0)
(0.00637976 -2.21164e-05 0)
(0.0064941 -2.02046e-05 0)
(0.00659918 -1.84687e-05 0)
(0.00669566 -1.69018e-05 0)
(0.00678422 -1.54956e-05 0)
(0.0068655 -1.42411e-05 0)
(0.00694012 -1.31286e-05 0)
(0.00700868 -1.2148e-05 0)
(0.00707176 -1.1289e-05 0)
(0.00712989 -1.05412e-05 0)
(0.00718358 -9.89474e-06 0)
(0.00723331 -9.33967e-06 0)
(0.00727952 -8.86664e-06 0)
(0.00732262 -8.46672e-06 0)
(0.00736297 -8.13149e-06 0)
(0.00740092 -7.85309e-06 0)
(0.00743679 -7.62421e-06 0)
(0.00747085 -7.43814e-06 0)
(0.00750335 -7.28871e-06 0)
(0.00753453 -7.17032e-06 0)
(0.00756457 -7.07788e-06 0)
(0.00759366 -7.00682e-06 0)
(0.00762195 -6.95306e-06 0)
(0.00764958 -6.91294e-06 0)
(0.00767665 -6.88327e-06 0)
(0.00770326 -6.86121e-06 0)
(0.00772951 -6.8443e-06 0)
(0.00775545 -6.83042e-06 0)
(0.00778114 -6.81772e-06 0)
(0.00780663 -6.80467e-06 0)
(0.00783194 -6.78997e-06 0)
(0.00785711 -6.77255e-06 0)
(0.00788216 -6.75154e-06 0)
(0.00790708 -6.72625e-06 0)
(0.00793189 -6.69617e-06 0)
(0.00795659 -6.66092e-06 0)
(0.00798117 -6.62023e-06 0)
(0.00800562 -6.57399e-06 0)
(0.00802994 -6.52213e-06 0)
(0.00805411 -6.4647e-06 0)
(0.00807811 -6.4018e-06 0)
(0.00810193 -6.33361e-06 0)
(0.00812556 -6.26034e-06 0)
(0.00814897 -6.18225e-06 0)
(0.00817214 -6.09962e-06 0)
(0.00819507 -6.01277e-06 0)
(0.00821772 -5.92204e-06 0)
(0.00824009 -5.82775e-06 0)
(0.00826216 -5.73028e-06 0)
(0.00828392 -5.62995e-06 0)
(0.00830534 -5.52714e-06 0)
(0.00832641 -5.42217e-06 0)
(0.00834713 -5.3154e-06 0)
(0.00836748 -5.20715e-06 0)
(0.00838745 -5.09773e-06 0)
(0.00840703 -4.98746e-06 0)
(0.00842621 -4.8766e-06 0)
(0.00844499 -4.76545e-06 0)
(0.00846336 -4.65425e-06 0)
(0.00848132 -4.54323e-06 0)
(0.00849885 -4.43263e-06 0)
(0.00851597 -4.32265e-06 0)
(0.00853266 -4.21347e-06 0)
(0.00854893 -4.10526e-06 0)
(0.00856477 -3.99817e-06 0)
(0.00858019 -3.89235e-06 0)
(0.00859519 -3.78791e-06 0)
(0.00860977 -3.68497e-06 0)
(0.00862393 -3.58362e-06 0)
(0.00863768 -3.48393e-06 0)
(0.00865102 -3.38597e-06 0)
(0.00866396 -3.2898e-06 0)
(0.00867649 -3.19546e-06 0)
(0.00868863 -3.10299e-06 0)
(0.00870038 -3.01239e-06 0)
(0.00871175 -2.92369e-06 0)
(0.00872274 -2.83689e-06 0)
(0.00873337 -2.75197e-06 0)
(0.00874362 -2.66891e-06 0)
(0.00875352 -2.58769e-06 0)
(0.00876308 -2.50826e-06 0)
(0.00877228 -2.43056e-06 0)
(0.00878115 -2.35452e-06 0)
(0.00878969 -2.28003e-06 0)
(0.00879791 -2.20699e-06 0)
(0.00880581 -2.13521e-06 0)
(0.0088134 -2.0645e-06 0)
(0.00882068 -1.99456e-06 0)
(0.00882766 -1.92502e-06 0)
(0.00883434 -1.85534e-06 0)
(0.00884073 -1.7848e-06 0)
(0.00884681 -1.71237e-06 0)
(0.00885259 -1.63666e-06 0)
(0.00885807 -1.55549e-06 0)
(0.00886321 -1.46656e-06 0)
(0.008868 -1.36378e-06 0)
(0.0088724 -1.2474e-06 0)
(0.00887638 -1.09218e-06 0)
(0.00887976 -9.2942e-07 0)
(0.00888268 -6.44405e-07 0)
(0.00888427 -4.08106e-07 0)
(0.00888609 1.21381e-07 0)
(0.0088835 7.14798e-07 0)
(0.00888509 1.03417e-06 0)
(0.00887357 4.34993e-06 0)
(-8.33556e-05 0.000136425 0)
(-0.000582892 0.000379261 0)
(-0.0013113 0.000518318 0)
(-0.00208586 0.00056239 0)
(-0.00286548 0.000583328 0)
(-0.00363325 0.000585002 0)
(-0.00437585 0.000584892 0)
(-0.00509614 0.000578133 0)
(-0.0057869 0.000569118 0)
(-0.00645031 0.000556833 0)
(-0.00708363 0.000543064 0)
(-0.00768827 0.000527991 0)
(-0.00826384 0.000512332 0)
(-0.00881143 0.000496313 0)
(-0.00933151 0.000480211 0)
(-0.00982499 0.000464145 0)
(-0.0102925 0.000448211 0)
(-0.0107348 0.00043245 0)
(-0.0111526 0.000416877 0)
(-0.0115463 0.000401485 0)
(-0.0119163 0.000386251 0)
(-0.0122632 0.000371138 0)
(-0.0125871 0.000356101 0)
(-0.0128882 0.000341083 0)
(-0.0131666 0.000326021 0)
(-0.0134223 0.000310844 0)
(-0.0136551 0.000295473 0)
(-0.0138649 0.000279826 0)
(-0.0140513 0.000263813 0)
(-0.0142139 0.000247338 0)
(-0.0143523 0.000230304 0)
(-0.0144658 0.00021261 0)
(-0.0145538 0.000194154 0)
(-0.0146155 0.000174834 0)
(-0.0146501 0.000154553 0)
(-0.0146568 0.000133215 0)
(-0.0146346 0.000110736 0)
(-0.0145827 8.70378e-05 0)
(-0.0144999 6.20578e-05 0)
(-0.0143855 3.5747e-05 0)
(-0.0142383 8.07477e-06 0)
(-0.0140576 -2.09696e-05 0)
(-0.0138424 -5.13744e-05 0)
(-0.0135921 -8.3104e-05 0)
(-0.0133059 -0.000116098 0)
(-0.0129832 -0.000150268 0)
(-0.0126237 -0.000185502 0)
(-0.0122271 -0.00022166 0)
(-0.0117932 -0.000258576 0)
(-0.0113222 -0.000296063 0)
(-0.0108143 -0.000333907 0)
(-0.01027 -0.00037188 0)
(-0.00969 -0.000409733 0)
(-0.00907524 -0.000447206 0)
(-0.00842682 -0.000484029 0)
(-0.00774611 -0.000519925 0)
(-0.00703466 -0.000554617 0)
(-0.00629426 -0.000587829 0)
(-0.00552687 -0.000619294 0)
(-0.00473465 -0.000648753 0)
(-0.00391995 -0.000675965 0)
(-0.00308525 -0.000700705 0)
(-0.00223317 -0.000722773 0)
(-0.00136646 -0.000741993 0)
(-0.00048796 -0.000758218 0)
(0.000399428 -0.000771332 0)
(0.00129275 -0.000781252 0)
(0.00218903 -0.000787926 0)
(0.00308531 -0.000791341 0)
(0.00397864 -0.000791516 0)
(0.00486615 -0.000788505 0)
(0.00574505 -0.000782395 0)
(0.00661262 -0.000773305 0)
(0.00746632 -0.000761383 0)
(0.00830373 -0.000746804 0)
(0.00912258 -0.000729766 0)
(0.00992081 -0.000710489 0)
(0.0106965 -0.000689208 0)
(0.0114481 -0.000666169 0)
(0.012174 -0.000641629 0)
(0.0128731 -0.000615849 0)
(0.0135443 -0.000589089 0)
(0.0141869 -0.000561606 0)
(0.0148002 -0.00053365 0)
(0.0153839 -0.000505462 0)
(0.0159379 -0.000477268 0)
(0.0164622 -0.00044928 0)
(0.0169569 -0.000421691 0)
(0.0174226 -0.000394677 0)
(0.0178597 -0.000368391 0)
(0.018269 -0.000342969 0)
(0.0186512 -0.000318523 0)
(0.0190073 -0.000295147 0)
(0.0193383 -0.000272914 0)
(0.0196453 -0.000251877 0)
(0.0199293 -0.000232073 0)
(0.0201917 -0.000213521 0)
(0.0204336 -0.000196226 0)
(0.0206562 -0.000180179 0)
(0.0208608 -0.00016536 0)
(0.0210487 -0.000151738 0)
(0.0212209 -0.000139273 0)
(0.0213788 -0.00012792 0)
(0.0215234 -0.000117626 0)
(0.0216559 -0.000108336 0)
(0.0217773 -9.99902e-05 0)
(0.0218887 -9.25288e-05 0)
(0.0219909 -8.58897e-05 0)
(0.022085 -8.00114e-05 0)
(0.0221717 -7.48329e-05 0)
(0.0222519 -7.02948e-05 0)
(0.0223262 -6.63392e-05 0)
(0.0223954 -6.29107e-05 0)
(0.0224601 -5.99565e-05 0)
(0.0225208 -5.74262e-05 0)
(0.022578 -5.52728e-05 0)
(0.0226323 -5.34521e-05 0)
(0.0226841 -5.1923e-05 0)
(0.0227336 -5.06473e-05 0)
(0.0227813 -4.95902e-05 0)
(0.0228274 -4.87196e-05 0)
(0.0228723 -4.80062e-05 0)
(0.022916 -4.74237e-05 0)
(0.0229589 -4.69481e-05 0)
(0.023001 -4.65582e-05 0)
(0.0230426 -4.62349e-05 0)
(0.0230836 -4.59615e-05 0)
(0.0231243 -4.5723e-05 0)
(0.0231647 -4.55066e-05 0)
(0.0232048 -4.53012e-05 0)
(0.0232446 -4.50973e-05 0)
(0.0232843 -4.48866e-05 0)
(0.0233238 -4.46626e-05 0)
(0.0233632 -4.44197e-05 0)
(0.0234023 -4.41534e-05 0)
(0.0234413 -4.38602e-05 0)
(0.0234801 -4.35377e-05 0)
(0.0235187 -4.31839e-05 0)
(0.023557 -4.27977e-05 0)
(0.0235951 -4.23787e-05 0)
(0.0236328 -4.19268e-05 0)
(0.0236703 -4.14423e-05 0)
(0.0237073 -4.09262e-05 0)
(0.023744 -4.03796e-05 0)
(0.0237803 -3.98038e-05 0)
(0.0238161 -3.92004e-05 0)
(0.0238514 -3.85712e-05 0)
(0.0238862 -3.79181e-05 0)
(0.0239204 -3.72431e-05 0)
(0.0239541 -3.65482e-05 0)
(0.0239871 -3.58355e-05 0)
(0.0240196 -3.51071e-05 0)
(0.0240514 -3.4365e-05 0)
(0.0240825 -3.36114e-05 0)
(0.024113 -3.28481e-05 0)
(0.0241427 -3.20771e-05 0)
(0.0241718 -3.13004e-05 0)
(0.0242001 -3.05196e-05 0)
(0.0242277 -2.97365e-05 0)
(0.0242545 -2.89527e-05 0)
(0.0242806 -2.81697e-05 0)
(0.024306 -2.7389e-05 0)
(0.0243306 -2.66118e-05 0)
(0.0243544 -2.58395e-05 0)
(0.0243775 -2.50731e-05 0)
(0.0243999 -2.43137e-05 0)
(0.0244214 -2.35622e-05 0)
(0.0244423 -2.28196e-05 0)
(0.0244624 -2.20865e-05 0)
(0.0244818 -2.13637e-05 0)
(0.0245004 -2.06518e-05 0)
(0.0245183 -1.99512e-05 0)
(0.0245355 -1.92625e-05 0)
(0.0245521 -1.85858e-05 0)
(0.0245679 -1.79216e-05 0)
(0.024583 -1.72698e-05 0)
(0.0245975 -1.66307e-05 0)
(0.0246113 -1.6004e-05 0)
(0.0246245 -1.53897e-05 0)
(0.0246371 -1.47874e-05 0)
(0.024649 -1.41964e-05 0)
(0.0246603 -1.36161e-05 0)
(0.024671 -1.30452e-05 0)
(0.0246811 -1.2482e-05 0)
(0.0246907 -1.19243e-05 0)
(0.0246997 -1.13689e-05 0)
(0.0247081 -1.08113e-05 0)
(0.0247159 -1.02451e-05 0)
(0.0247232 -9.66151e-06 0)
(0.0247298 -9.04791e-06 0)
(0.0247359 -8.38464e-06 0)
(0.0247413 -7.65452e-06 0)
(0.0247459 -6.78939e-06 0)
(0.0247498 -5.83677e-06 0)
(0.0247527 -4.45689e-06 0)
(0.0247544 -3.16846e-06 0)
(0.024755 -6.53095e-07 0)
(0.0247523 1.67892e-06 0)
(0.0247511 4.40328e-06 0)
(0.0247378 1.38382e-05 0)
(-0.000178821 0.000644952 0)
(-0.00104289 0.00125395 0)
(-0.00216749 0.0015328 0)
(-0.0033045 0.00157417 0)
(-0.00439251 0.00156924 0)
(-0.00542086 0.00152586 0)
(-0.00637388 0.00148212 0)
(-0.00726264 0.00142961 0)
(-0.00808372 0.00137618 0)
(-0.00884527 0.00132016 0)
(-0.00954865 0.00126407 0)
(-0.010199 0.00120808 0)
(-0.0107987 0.001153 0)
(-0.0113511 0.00109902 0)
(-0.0118586 0.00104633 0)
(-0.0123235 0.000994955 0)
(-0.0127475 0.000944843 0)
(-0.0131323 0.000895901 0)
(-0.0134792 0.000848003 0)
(-0.0137894 0.000800997 0)
(-0.0140637 0.000754721 0)
(-0.0143029 0.000709001 0)
(-0.0145076 0.000663657 0)
(-0.0146781 0.000618504 0)
(-0.0148147 0.000573351 0)
(-0.0149176 0.000528007 0)
(-0.0149866 0.000482275 0)
(-0.0150218 0.000435961 0)
(-0.0150228 0.000388867 0)
(-0.0149894 0.0003408 0)
(-0.0149211 0.000291571 0)
(-0.0148175 0.000240996 0)
(-0.0146781 0.000188902 0)
(-0.0145023 0.00013513 0)
(-0.0142896 7.95346e-05 0)
(-0.0140392 2.19925e-05 0)
(-0.0137506 -3.75964e-05 0)
(-0.0134232 -9.93045e-05 0)
(-0.0130565 -0.000163173 0)
(-0.0126499 -0.000229209 0)
(-0.012203 -0.000297382 0)
(-0.0117154 -0.000367622 0)
(-0.0111869 -0.000439816 0)
(-0.0106174 -0.000513809 0)
(-0.0100069 -0.000589404 0)
(-0.0093556 -0.000666359 0)
(-0.00866373 -0.00074439 0)
(-0.00793183 -0.000823175 0)
(-0.00716059 -0.000902353 0)
(-0.00635087 -0.000981528 0)
(-0.00550374 -0.00106028 0)
(-0.00462046 -0.00113815 0)
(-0.0037025 -0.00121469 0)
(-0.00275152 -0.0012894 0)
(-0.00176938 -0.00136179 0)
(-0.000758132 -0.00143138 0)
(0.000280005 -0.00149768 0)
(0.00134263 -0.00156021 0)
(0.00242718 -0.00161853 0)
(0.00353096 -0.00167219 0)
(0.00465114 -0.00172082 0)
(0.00578479 -0.00176404 0)
(0.00692887 -0.00180153 0)
(0.0080803 -0.00183303 0)
(0.00923592 -0.00185832 0)
(0.0103926 -0.00187723 0)
(0.0115471 -0.00188966 0)
(0.0126964 -0.00189556 0)
(0.0138373 -0.00189494 0)
(0.0149668 -0.00188789 0)
(0.016082 -0.00187452 0)
(0.01718 -0.00185504 0)
(0.0182583 -0.0018297 0)
(0.0193143 -0.00179878 0)
(0.0203457 -0.00176263 0)
(0.0213502 -0.00172163 0)
(0.022326 -0.00167622 0)
(0.0232714 -0.00162683 0)
(0.0241847 -0.00157394 0)
(0.0250648 -0.00151803 0)
(0.0259105 -0.00145961 0)
(0.0267211 -0.00139917 0)
(0.0274958 -0.0013372 0)
(0.0282344 -0.00127419 0)
(0.0289367 -0.00121061 0)
(0.0296026 -0.00114689 0)
(0.0302324 -0.00108347 0)
(0.0308266 -0.00102073 0)
(0.0313855 -0.000959023 0)
(0.0319101 -0.000898682 0)
(0.032401 -0.000839988 0)
(0.0328594 -0.000783193 0)
(0.0332862 -0.000728509 0)
(0.0336827 -0.000676109 0)
(0.0340501 -0.000626136 0)
(0.0343897 -0.000578693 0)
(0.0347028 -0.000533854 0)
(0.0349908 -0.000491662 0)
(0.0352551 -0.000452131 0)
(0.0354972 -0.000415251 0)
(0.0357183 -0.000380989 0)
(0.03592 -0.000349292 0)
(0.0361035 -0.000320091 0)
(0.0362702 -0.000293301 0)
(0.0364214 -0.000268825 0)
(0.0365583 -0.000246559 0)
(0.0366822 -0.000226388 0)
(0.0367941 -0.000208195 0)
(0.0368952 -0.000191859 0)
(0.0369864 -0.000177256 0)
(0.0370688 -0.000164262 0)
(0.0371433 -0.000152756 0)
(0.0372108 -0.000142618 0)
(0.0372719 -0.000133732 0)
(0.0373275 -0.000125984 0)
(0.0373782 -0.000119267 0)
(0.0374247 -0.000113477 0)
(0.0374675 -0.000108518 0)
(0.037507 -0.000104298 0)
(0.0375439 -0.000100731 0)
(0.0375784 -9.77361e-05 0)
(0.037611 -9.52399e-05 0)
(0.037642 -9.31739e-05 0)
(0.0376717 -9.14753e-05 0)
(0.0377003 -9.00871e-05 0)
(0.037728 -8.89571e-05 0)
(0.0377551 -8.80386e-05 0)
(0.0377816 -8.72893e-05 0)
(0.0378078 -8.66717e-05 0)
(0.0378337 -8.61526e-05 0)
(0.0378595 -8.57024e-05 0)
(0.0378851 -8.52957e-05 0)
(0.0379107 -8.491e-05 0)
(0.0379363 -8.45264e-05 0)
(0.0379618 -8.41287e-05 0)
(0.0379874 -8.37032e-05 0)
(0.038013 -8.32389e-05 0)
(0.0380387 -8.27268e-05 0)
(0.0380643 -8.21597e-05 0)
(0.0380899 -8.15324e-05 0)
(0.0381155 -8.08412e-05 0)
(0.038141 -8.00835e-05 0)
(0.0381664 -7.92584e-05 0)
(0.0381917 -7.83655e-05 0)
(0.0382168 -7.74056e-05 0)
(0.0382417 -7.63802e-05 0)
(0.0382664 -7.52916e-05 0)
(0.0382908 -7.41423e-05 0)
(0.0383149 -7.29355e-05 0)
(0.0383386 -7.16747e-05 0)
(0.038362 -7.03636e-05 0)
(0.0383849 -6.90062e-05 0)
(0.0384074 -6.76066e-05 0)
(0.0384294 -6.61688e-05 0)
(0.0384509 -6.46972e-05 0)
(0.0384719 -6.31957e-05 0)
(0.0384923 -6.16687e-05 0)
(0.0385122 -6.01201e-05 0)
(0.0385315 -5.85538e-05 0)
(0.0385501 -5.69737e-05 0)
(0.0385682 -5.53835e-05 0)
(0.0385855 -5.37867e-05 0)
(0.0386023 -5.21865e-05 0)
(0.0386184 -5.05863e-05 0)
(0.0386338 -4.89889e-05 0)
(0.0386485 -4.73972e-05 0)
(0.0386625 -4.58138e-05 0)
(0.0386759 -4.42411e-05 0)
(0.0386886 -4.26815e-05 0)
(0.0387006 -4.11368e-05 0)
(0.0387119 -3.96091e-05 0)
(0.0387225 -3.81e-05 0)
(0.0387325 -3.6611e-05 0)
(0.0387418 -3.51434e-05 0)
(0.0387504 -3.36983e-05 0)
(0.0387583 -3.22767e-05 0)
(0.0387657 -3.08792e-05 0)
(0.0387723 -2.95064e-05 0)
(0.0387784 -2.81584e-05 0)
(0.0387838 -2.68352e-05 0)
(0.0387886 -2.55362e-05 0)
(0.0387928 -2.42606e-05 0)
(0.0387964 -2.30069e-05 0)
(0.0387994 -2.17727e-05 0)
(0.0388019 -2.05547e-05 0)
(0.0388037 -1.93482e-05 0)
(0.0388051 -1.81461e-05 0)
(0.0388058 -1.69389e-05 0)
(0.0388061 -1.57131e-05 0)
(0.0388057 -1.44482e-05 0)
(0.0388048 -1.31183e-05 0)
(0.0388033 -1.16808e-05 0)
(0.0388012 -1.00782e-05 0)
(0.0387983 -8.25385e-06 0)
(0.0387947 -5.97954e-06 0)
(0.0387903 -3.4524e-06 0)
(0.0387846 4.20752e-07 0)
(0.0387774 4.49236e-06 0)
(0.0387697 9.69263e-06 0)
(0.0387535 2.32117e-05 0)
(-0.000305505 0.0012614 0)
(-0.00151606 0.0023147 0)
(-0.00286962 0.00272265 0)
(-0.00413636 0.00273243 0)
(-0.00523494 0.00266007 0)
(-0.00621451 0.00253044 0)
(-0.00706123 0.00240107 0)
(-0.00780873 0.00226554 0)
(-0.00845854 0.00213481 0)
(-0.00902741 0.00200738 0)
(-0.00952062 0.00188556 0)
(-0.00994717 0.00176892 0)
(-0.0103119 0.00165756 0)
(-0.0106203 0.00155103 0)
(-0.0108759 0.00144892 0)
(-0.0110821 0.00135075 0)
(-0.0112415 0.00125603 0)
(-0.0113564 0.00116429 0)
(-0.0114286 0.0010751 0)
(-0.0114594 0.000988009 0)
(-0.0114501 0.000902624 0)
(-0.0114015 0.000818559 0)
(-0.0113145 0.000735443 0)
(-0.0111895 0.000652927 0)
(-0.0110269 0.000570673 0)
(-0.0108269 0.000488357 0)
(-0.0105897 0.000405668 0)
(-0.0103153 0.00032231 0)
(-0.0100037 0.000237999 0)
(-0.00965459 0.000152468 0)
(-0.00926793 6.5468e-05 0)
(-0.00884346 -2.32303e-05 0)
(-0.00838093 -0.000113832 0)
(-0.00788011 -0.000206514 0)
(-0.00734074 -0.000301425 0)
(-0.00676261 -0.000398675 0)
(-0.00614552 -0.00049834 0)
(-0.00548937 -0.000600449 0)
(-0.00479407 -0.000704989 0)
(-0.00405966 -0.000811894 0)
(-0.00328626 -0.000921051 0)
(-0.00247408 -0.00103229 0)
(-0.00162348 -0.00114538 0)
(-0.00073493 -0.00126006 0)
(0.000190938 -0.00137598 0)
(0.00115335 -0.00149275 0)
(0.00215138 -0.00160994 0)
(0.00318393 -0.00172706 0)
(0.00424973 -0.00184359 0)
(0.00534733 -0.00195894 0)
(0.00647514 -0.00207252 0)
(0.00763135 -0.00218369 0)
(0.00881401 -0.00229181 0)
(0.010021 -0.00239622 0)
(0.01125 -0.00249625 0)
(0.0124987 -0.00259124 0)
(0.0137643 -0.00268054 0)
(0.0150443 -0.00276352 0)
(0.0163358 -0.00283959 0)
(0.0176359 -0.00290819 0)
(0.0189415 -0.00296882 0)
(0.0202495 -0.00302101 0)
(0.021557 -0.00306437 0)
(0.0228606 -0.00309857 0)
(0.0241573 -0.00312337 0)
(0.025444 -0.00313858 0)
(0.0267174 -0.00314413 0)
(0.0279747 -0.00313998 0)
(0.0292129 -0.00312623 0)
(0.0304292 -0.00310303 0)
(0.0316209 -0.00307063 0)
(0.0327855 -0.00302935 0)
(0.0339206 -0.00297958 0)
(0.0350241 -0.0029218 0)
(0.036094 -0.00285654 0)
(0.0371286 -0.00278439 0)
(0.0381264 -0.00270599 0)
(0.0390862 -0.00262201 0)
(0.0400067 -0.00253315 0)
(0.0408874 -0.00244014 0)
(0.0417275 -0.00234371 0)
(0.0425268 -0.00224459 0)
(0.0432851 -0.00214352 0)
(0.0440025 -0.00204119 0)
(0.0446794 -0.00193828 0)
(0.0453162 -0.00183545 0)
(0.0459135 -0.0017333 0)
(0.0464722 -0.0016324 0)
(0.0469933 -0.00153327 0)
(0.0474777 -0.00143637 0)
(0.0479268 -0.00134211 0)
(0.0483418 -0.00125087 0)
(0.048724 -0.00116294 0)
(0.0490749 -0.00107858 0)
(0.0493959 -0.000998003 0)
(0.0496885 -0.000921355 0)
(0.0499542 -0.000848746 0)
(0.0501946 -0.000780243 0)
(0.0504111 -0.00071587 0)
(0.0506053 -0.000655618 0)
(0.0507787 -0.000599442 0)
(0.0509326 -0.000547271 0)
(0.0510686 -0.000499007 0)
(0.0511878 -0.000454531 0)
(0.0512918 -0.000413706 0)
(0.0513817 -0.000376381 0)
(0.0514588 -0.000342391 0)
(0.0515242 -0.000311567 0)
(0.051579 -0.000283728 0)
(0.0516242 -0.000258695 0)
(0.0516608 -0.000236284 0)
(0.0516898 -0.000216312 0)
(0.0517119 -0.0001986 0)
(0.051728 -0.00018297 0)
(0.0517388 -0.000169251 0)
(0.051745 -0.000157276 0)
(0.0517472 -0.000146886 0)
(0.051746 -0.000137928 0)
(0.0517419 -0.000130258 0)
(0.0517353 -0.00012374 0)
(0.0517268 -0.000118245 0)
(0.0517166 -0.000113653 0)
(0.0517051 -0.000109852 0)
(0.0516927 -0.00010674 0)
(0.0516795 -0.000104221 0)
(0.0516659 -0.000102208 0)
(0.051652 -0.000100621 0)
(0.051638 -9.93875e-05 0)
(0.051624 -9.84432e-05 0)
(0.0516103 -9.7729e-05 0)
(0.0515968 -9.71925e-05 0)
(0.0515836 -9.67872e-05 0)
(0.0515709 -9.64721e-05 0)
(0.0515586 -9.62116e-05 0)
(0.0515469 -9.59745e-05 0)
(0.0515356 -9.57341e-05 0)
(0.051525 -9.54678e-05 0)
(0.0515148 -9.51565e-05 0)
(0.0515052 -9.47847e-05 0)
(0.0514961 -9.43397e-05 0)
(0.0514875 -9.38115e-05 0)
(0.0514794 -9.31928e-05 0)
(0.0514717 -9.24781e-05 0)
(0.0514644 -9.16641e-05 0)
(0.0514575 -9.07491e-05 0)
(0.051451 -8.97327e-05 0)
(0.0514447 -8.86161e-05 0)
(0.0514387 -8.74013e-05 0)
(0.0514329 -8.60913e-05 0)
(0.0514273 -8.46899e-05 0)
(0.0514219 -8.32014e-05 0)
(0.0514165 -8.16308e-05 0)
(0.0514113 -7.99833e-05 0)
(0.051406 -7.82645e-05 0)
(0.0514008 -7.64802e-05 0)
(0.0513955 -7.46362e-05 0)
(0.0513901 -7.27386e-05 0)
(0.0513847 -7.07931e-05 0)
(0.0513791 -6.88058e-05 0)
(0.0513734 -6.67823e-05 0)
(0.0513675 -6.47285e-05 0)
(0.0513614 -6.26497e-05 0)
(0.0513551 -6.05512e-05 0)
(0.0513485 -5.84382e-05 0)
(0.0513417 -5.63155e-05 0)
(0.0513347 -5.41877e-05 0)
(0.0513273 -5.20593e-05 0)
(0.0513197 -4.99343e-05 0)
(0.0513117 -4.78166e-05 0)
(0.0513035 -4.57099e-05 0)
(0.0512949 -4.36175e-05 0)
(0.051286 -4.15424e-05 0)
(0.0512767 -3.94876e-05 0)
(0.0512672 -3.74555e-05 0)
(0.0512572 -3.54484e-05 0)
(0.051247 -3.34684e-05 0)
(0.0512364 -3.1517e-05 0)
(0.0512255 -2.95956e-05 0)
(0.0512142 -2.77053e-05 0)
(0.0512026 -2.58467e-05 0)
(0.0511907 -2.40198e-05 0)
(0.0511784 -2.22242e-05 0)
(0.0511658 -2.04586e-05 0)
(0.0511529 -1.87211e-05 0)
(0.0511397 -1.7008e-05 0)
(0.0511262 -1.53145e-05 0)
(0.0511124 -1.3633e-05 0)
(0.0510982 -1.1953e-05 0)
(0.0510838 -1.02592e-05 0)
(0.0510691 -8.53014e-06 0)
(0.051054 -6.73403e-06 0)
(0.0510387 -4.82799e-06 0)
(0.0510231 -2.74493e-06 0)
(0.0510071 -4.00392e-07 0)
(0.0509908 2.36761e-06 0)
(0.0509742 5.64078e-06 0)
(0.050957 1.00519e-05 0)
(0.0509393 1.51907e-05 0)
(0.0509212 2.20936e-05 0)
(0.0508977 3.75599e-05 0)
(-0.000404947 0.00246844 0)
(-0.00171873 0.00379476 0)
(-0.00298668 0.0041394 0)
(-0.00404956 0.00388792 0)
(-0.00482661 0.00361453 0)
(-0.00542872 0.00331169 0)
(-0.00585287 0.00304738 0)
(-0.00615863 0.00280048 0)
(-0.0063553 0.00257608 0)
(-0.00646907 0.00236791 0)
(-0.00650849 0.0021748 0)
(-0.00648557 0.00199427 0)
(-0.00640623 0.00182469 0)
(-0.0062766 0.00166449 0)
(-0.00610053 0.00151232 0)
(-0.00588146 0.00136702 0)
(-0.00562186 0.00122753 0)
(-0.00532379 0.00109295 0)
(-0.0049888 0.000962445 0)
(-0.00461815 0.000835292 0)
(-0.00421279 0.000710829 0)
(-0.00377346 0.000588455 0)
(-0.0033007 0.000467622 0)
(-0.0027949 0.000347823 0)
(-0.00225631 0.00022859 0)
(-0.00168511 0.000109489 0)
(-0.00108134 -9.88099e-06 0)
(-0.000445026 -0.000129893 0)
(0.000223888 -0.000250888 0)
(0.00092548 -0.000373178 0)
(0.00165984 -0.00049704 0)
(0.00242708 -0.00062272 0)
(0.00322729 -0.000750423 0)
(0.00406052 -0.000880316 0)
(0.00492681 -0.00101252 0)
(0.00582612 -0.00114711 0)
(0.00675838 -0.00128412 0)
(0.00772342 -0.0014235 0)
(0.00872098 -0.00156518 0)
(0.00975072 -0.001709 0)
(0.0108122 -0.00185475 0)
(0.0119048 -0.00200216 0)
(0.0130278 -0.0021509 0)
(0.0141804 -0.00230055 0)
(0.0153616 -0.00245065 0)
(0.0165703 -0.00260068 0)
(0.0178052 -0.00275006 0)
(0.0190648 -0.00289815 0)
(0.0203476 -0.00304425 0)
(0.0216519 -0.00318766 0)
(0.0229756 -0.0033276 0)
(0.0243169 -0.0034633 0)
(0.0256733 -0.00359393 0)
(0.0270427 -0.00371869 0)
(0.0284225 -0.00383676 0)
(0.0298101 -0.00394734 0)
(0.0312028 -0.00404964 0)
(0.0325978 -0.00414291 0)
(0.0339921 -0.00422644 0)
(0.0353828 -0.00429957 0)
(0.0367669 -0.00436171 0)
(0.0381412 -0.00441233 0)
(0.0395028 -0.00445099 0)
(0.0408486 -0.00447735 0)
(0.0421755 -0.00449114 0)
(0.0434807 -0.0044922 0)
(0.0447612 -0.00448049 0)
(0.0460143 -0.00445607 0)
(0.0472373 -0.0044191 0)
(0.0484278 -0.00436987 0)
(0.0495835 -0.00430875 0)
(0.0507023 -0.00423623 0)
(0.0517823 -0.00415289 0)
(0.0528218 -0.0040594 0)
(0.0538193 -0.00395652 0)
(0.0547738 -0.00384505 0)
(0.0556843 -0.00372589 0)
(0.05655 -0.00359994 0)
(0.0573706 -0.00346817 0)
(0.0581458 -0.00333154 0)
(0.0588757 -0.00319105 0)
(0.0595606 -0.00304766 0)
(0.060201 -0.00290234 0)
(0.0607974 -0.00275602 0)
(0.0613509 -0.00260958 0)
(0.0618624 -0.00246387 0)
(0.0623331 -0.00231968 0)
(0.0627643 -0.00217774 0)
(0.0631574 -0.0020387 0)
(0.063514 -0.00190316 0)
(0.0638356 -0.00177163 0)
(0.0641239 -0.00164458 0)
(0.0643805 -0.00152238 0)
(0.0646071 -0.00140533 0)
(0.0648055 -0.00129368 0)
(0.0649773 -0.0011876 0)
(0.0651242 -0.00108723 0)
(0.0652479 -0.000992603 0)
(0.0653501 -0.000903748 0)
(0.0654322 -0.000820627 0)
(0.0654959 -0.000743162 0)
(0.0655426 -0.000671241 0)
(0.0655738 -0.00060472 0)
(0.0655908 -0.000543427 0)
(0.065595 -0.00048717 0)
(0.0655875 -0.000435737 0)
(0.0655695 -0.000388902 0)
(0.0655421 -0.00034643 0)
(0.0655064 -0.000308078 0)
(0.0654634 -0.000273599 0)
(0.0654139 -0.000242744 0)
(0.0653587 -0.000215267 0)
(0.0652987 -0.000190924 0)
(0.0652345 -0.000169475 0)
(0.0651669 -0.000150688 0)
(0.0650964 -0.000134338 0)
(0.0650236 -0.000120209 0)
(0.0649489 -0.000108094 0)
(0.0648729 -9.77967e-05 0)
(0.0647959 -8.91308e-05 0)
(0.0647183 -8.19215e-05 0)
(0.0646405 -7.60046e-05 0)
(0.0645626 -7.1227e-05 0)
(0.064485 -6.74464e-05 0)
(0.0644079 -6.45313e-05 0)
(0.0643315 -6.23607e-05 0)
(0.0642559 -6.08236e-05 0)
(0.0641813 -5.98188e-05 0)
(0.0641078 -5.92545e-05 0)
(0.0640354 -5.90477e-05 0)
(0.0639644 -5.9124e-05 0)
(0.0638946 -5.94167e-05 0)
(0.0638262 -5.98668e-05 0)
(0.0637592 -6.04221e-05 0)
(0.0636936 -6.10371e-05 0)
(0.0636294 -6.16721e-05 0)
(0.0635666 -6.22929e-05 0)
(0.0635052 -6.28707e-05 0)
(0.0634452 -6.33811e-05 0)
(0.0633866 -6.38039e-05 0)
(0.0633292 -6.41228e-05 0)
(0.0632731 -6.4325e-05 0)
(0.0632183 -6.44008e-05 0)
(0.0631647 -6.43431e-05 0)
(0.0631123 -6.41474e-05 0)
(0.063061 -6.38112e-05 0)
(0.0630107 -6.3334e-05 0)
(0.0629615 -6.27168e-05 0)
(0.0629132 -6.19621e-05 0)
(0.0628659 -6.10735e-05 0)
(0.0628195 -6.00556e-05 0)
(0.0627739 -5.89139e-05 0)
(0.0627291 -5.76544e-05 0)
(0.0626851 -5.62837e-05 0)
(0.0626418 -5.48089e-05 0)
(0.0625991 -5.32371e-05 0)
(0.0625571 -5.15759e-05 0)
(0.0625157 -4.98327e-05 0)
(0.0624748 -4.80151e-05 0)
(0.0624345 -4.61307e-05 0)
(0.0623946 -4.41868e-05 0)
(0.0623552 -4.21908e-05 0)
(0.0623163 -4.01495e-05 0)
(0.0622777 -3.807e-05 0)
(0.0622396 -3.59589e-05 0)
(0.0622017 -3.38224e-05 0)
(0.0621642 -3.16666e-05 0)
(0.0621271 -2.94973e-05 0)
(0.0620902 -2.732e-05 0)
(0.0620535 -2.51397e-05 0)
(0.0620172 -2.29614e-05 0)
(0.061981 -2.07894e-05 0)
(0.0619451 -1.86281e-05 0)
(0.0619094 -1.64811e-05 0)
(0.0618739 -1.43521e-05 0)
(0.0618386 -1.22442e-05 0)
(0.0618034 -1.01601e-05 0)
(0.0617684 -8.10225e-06 0)
(0.0617336 -6.07266e-06 0)
(0.0616989 -4.07282e-06 0)
(0.0616644 -2.10371e-06 0)
(0.06163 -1.6569e-07 0)
(0.0615958 1.74167e-06 0)
(0.0615616 3.61976e-06 0)
(0.0615276 5.47122e-06 0)
(0.0614937 7.30033e-06 0)
(0.06146 9.1136e-06 0)
(0.0614263 1.09207e-05 0)
(0.0613928 1.27352e-05 0)
(0.0613594 1.45774e-05 0)
(0.0613262 1.64755e-05 0)
(0.0612931 1.847e-05 0)
(0.0612601 2.06225e-05 0)
(0.0612273 2.3012e-05 0)
(0.0611948 2.57801e-05 0)
(0.0611625 2.90737e-05 0)
(0.0611305 3.33003e-05 0)
(0.061099 3.84526e-05 0)
(0.0610678 4.59081e-05 0)
(0.0610352 6.02959e-05 0)
(-0.000693428 0.00309341 0)
(-0.00209159 0.0047213 0)
(-0.00255532 0.00495019 0)
(-0.00279461 0.00450312 0)
(-0.0026315 0.00403068 0)
(-0.00238509 0.00356398 0)
(-0.00199359 0.00316001 0)
(-0.00154147 0.00280206 0)
(-0.00102 0.0024857 0)
(-0.000454747 0.00220231 0)
(0.000152316 0.00194538 0)
(0.00079185 0.00171009 0)
(0.00146122 0.0014922 0)
(0.0021565 0.00128869 0)
(0.00287593 0.00109694 0)
(0.0036177 0.00091493 0)
(0.00438084 0.000740932 0)
(0.00516454 0.000573544 0)
(0.00596836 0.000411549 0)
(0.00679199 0.000253914 0)
(0.00763532 9.97328e-05 0)
(0.00849833 -5.17889e-05 0)
(0.00938111 -0.000201359 0)
(0.0102838 -0.000349609 0)
(0.0112067 -0.000497109 0)
(0.0121499 -0.000644371 0)
(0.0131137 -0.000791859 0)
(0.0140985 -0.000939988 0)
(0.0151045 -0.00108913 0)
(0.0161318 -0.00123961 0)
(0.0171809 -0.0013917 0)
(0.0182518 -0.00154565 0)
(0.0193448 -0.00170163 0)
(0.0204598 -0.00185978 0)
(0.0215969 -0.00202017 0)
(0.0227561 -0.00218284 0)
(0.0239371 -0.00234774 0)
(0.0251398 -0.00251476 0)
(0.0263638 -0.00268375 0)
(0.0276085 -0.00285446 0)
(0.0288735 -0.00302659 0)
(0.030158 -0.00319975 0)
(0.0314612 -0.00337351 0)
(0.032782 -0.00354734 0)
(0.0341194 -0.00372065 0)
(0.035472 -0.0038928 0)
(0.0368384 -0.00406306 0)
(0.038217 -0.00423066 0)
(0.0396062 -0.00439478 0)
(0.041004 -0.00455456 0)
(0.0424084 -0.00470909 0)
(0.0438172 -0.00485745 0)
(0.0452283 -0.00499867 0)
(0.046639 -0.00513182 0)
(0.048047 -0.00525595 0)
(0.0494497 -0.00537013 0)
(0.0508442 -0.00547345 0)
(0.0522278 -0.00556506 0)
(0.0535977 -0.00564416 0)
(0.054951 -0.00571002 0)
(0.0562848 -0.00576197 0)
(0.0575962 -0.00579946 0)
(0.0588825 -0.00582202 0)
(0.0601408 -0.00582931 0)
(0.0613685 -0.00582109 0)
(0.0625629 -0.00579726 0)
(0.0637217 -0.00575785 0)
(0.0648426 -0.00570302 0)
(0.0659234 -0.00563307 0)
(0.0669624 -0.00554842 0)
(0.0679577 -0.00544964 0)
(0.068908 -0.00533741 0)
(0.0698121 -0.00521252 0)
(0.0706691 -0.00507587 0)
(0.0714783 -0.00492847 0)
(0.0722393 -0.00477137 0)
(0.072952 -0.00460572 0)
(0.0736166 -0.00443271 0)
(0.0742333 -0.00425353 0)
(0.0748027 -0.00406943 0)
(0.0753258 -0.00388163 0)
(0.0758034 -0.00369135 0)