/*--------------------------------*- C++ -*----------------------------------*\
| =========                 |                                                 |
| \\      /  F ield         | OpenFOAM: The Open Source CFD Toolbox           |
|  \\    /   O peration     | Version:  4.1                                   |
|   \\  /    A nd           | Web:      www.OpenFOAM.org                      |
|    \\/     M anipulation  |                                                 |
\*---------------------------------------------------------------------------*/
FoamFile
{
    version     2.0;
    format      ascii;
    class       volScalarField;
    location    "239";
    object      p;
}
// * * * * * * * * * * * * * * * * * * * * * * * * * * * * * * * * * * * * * //

dimensions      [1 -1 -2 0 0 0 0];

internalField   nonuniform List<scalar> 
3264
(
0.712536
0.712534
0.712533
0.712533
0.712533
0.712533
0.712534
0.712535
0.712537
0.71254
0.712543
0.712547
0.712552
0.712557
0.712564
0.712571
0.712579
0.712588
0.712599
0.712611
0.712626
0.712642
0.712661
0.712683
0.712708
0.712737
0.712769
0.712806
0.712848
0.712895
0.712946
0.713003
0.713065
0.713131
0.713203
0.713278
0.713358
0.713441
0.713527
0.713614
0.713703
0.713792
0.71388
0.713967
0.714052
0.714133
0.71421
0.714283
0.71435
0.714411
0.714466
0.714515
0.714557
0.714592
0.714622
0.714645
0.714663
0.714675
0.714684
0.714688
0.71469
0.714689
0.714686
0.714682
0.714677
0.714673
0.714668
0.714663
0.71466
0.714657
0.714655
0.714653
0.714653
0.714653
0.714653
0.714654
0.714655
0.714657
0.714658
0.714659
0.71466
0.714661
0.714661
0.714662
0.714662
0.714662
0.714662
0.714662
0.714662
0.714663
0.714663
0.714664
0.714665
0.714668
0.714671
0.714675
0.714681
0.714688
0.714697
0.714707
0.714719
0.714733
0.714748
0.714764
0.714782
0.7148
0.71482
0.71484
0.71486
0.714879
0.714899
0.714917
0.714935
0.714951
0.714966
0.71498
0.714991
0.715001
0.715008
0.715014
0.715018
0.715019
0.715019
0.715018
0.715014
0.71501
0.715004
0.714997
0.714989
0.71498
0.71497
0.71496
0.71495
0.71494
0.714929
0.714919
0.714908
0.714898
0.714888
0.714878
0.714868
0.714858
0.714849
0.71484
0.714831
0.714822
0.714813
0.714803
0.714794
0.714785
0.714776
0.714767
0.714758
0.714748
0.714738
0.714729
0.714719
0.714709
0.714699
0.714689
0.71468
0.71467
0.714659
0.714649
0.714639
0.714629
0.714619
0.714609
0.714599
0.714589
0.714579
0.714569
0.714559
0.714549
0.714539
0.714529
0.71452
0.71451
0.7145
0.71449
0.71448
0.71447
0.71446
0.71445
0.71444
0.71443
0.71442
0.71441
0.7144
0.71439
0.71438
0.71437
0.714361
0.714351
0.714341
0.714331
0.714321
0.714311
0.714301
0.714291
0.712537
0.712536
0.712535
0.712535
0.712535
0.712536
0.712536
0.712538
0.71254
0.712543
0.712546
0.71255
0.712555
0.71256
0.712567
0.712574
0.712582
0.712591
0.712602
0.712614
0.712628
0.712644
0.712663
0.712684
0.712708
0.712736
0.712768
0.712804
0.712845
0.712891
0.712941
0.712997
0.713058
0.713124
0.713195
0.71327
0.713349
0.713432
0.713517
0.713604
0.713693
0.713781
0.71387
0.713957
0.714041
0.714122
0.7142
0.714272
0.714339
0.714401
0.714456
0.714505
0.714547
0.714583
0.714613
0.714637
0.714655
0.714668
0.714677
0.714682
0.714685
0.714685
0.714683
0.71468
0.714676
0.714672
0.714668
0.714665
0.714662
0.71466
0.714659
0.714658
0.714658
0.714658
0.714658
0.714659
0.71466
0.714661
0.714662
0.714662
0.714663
0.714664
0.714664
0.714665
0.714665
0.714665
0.714664
0.714664
0.714664
0.714664
0.714664
0.714665
0.714666
0.714668
0.714671
0.714675
0.71468
0.714687
0.714695
0.714705
0.714717
0.71473
0.714745
0.714761
0.714778
0.714797
0.714816
0.714836
0.714856
0.714876
0.714895
0.714914
0.714932
0.714949
0.714964
0.714977
0.714989
0.714999
0.715007
0.715013
0.715017
0.715019
0.715019
0.715018
0.715014
0.71501
0.715004
0.714997
0.714989
0.71498
0.714971
0.714961
0.714951
0.71494
0.714929
0.714919
0.714908
0.714898
0.714888
0.714878
0.714868
0.714858
0.714849
0.71484
0.714831
0.714821
0.714812
0.714803
0.714794
0.714785
0.714776
0.714767
0.714758
0.714748
0.714739
0.714729
0.714719
0.714709
0.714699
0.71469
0.71468
0.71467
0.71466
0.714649
0.714639
0.714629
0.714619
0.714609
0.714599
0.714589
0.714579
0.714569
0.714559
0.714549
0.714539
0.714529
0.71452
0.71451
0.7145
0.71449
0.71448
0.71447
0.71446
0.71445
0.71444
0.71443
0.71442
0.71441
0.7144
0.71439
0.71438
0.71437
0.714361
0.714351
0.714341
0.714331
0.714321
0.714311
0.714301
0.714291
0.712539
0.712537
0.712536
0.712535
0.712535
0.712535
0.712536
0.712537
0.712539
0.712542
0.712545
0.712549
0.712554
0.712559
0.712566
0.712573
0.712581
0.71259
0.7126
0.712612
0.712626
0.712641
0.712659
0.71268
0.712703
0.712731
0.712762
0.712797
0.712838
0.712883
0.712933
0.712988
0.713049
0.713115
0.713185
0.71326
0.713339
0.713421
0.713506
0.713593
0.713682
0.71377
0.713858
0.713945
0.714029
0.71411
0.714187
0.71426
0.714327
0.714388
0.714443
0.714492
0.714534
0.71457
0.714599
0.714623
0.714641
0.714654
0.714663
0.714668
0.714671
0.714671
0.71467
0.714667
0.714664
0.714661
0.714658
0.714655
0.714654
0.714653
0.714653
0.714653
0.714654
0.714656
0.714658
0.71466
0.714661
0.714663
0.714664
0.714665
0.714665
0.714666
0.714666
0.714666
0.714666
0.714666
0.714666
0.714665
0.714665
0.714665
0.714665
0.714665
0.714666
0.714667
0.71467
0.714674
0.714679
0.714685
0.714693
0.714703
0.714715
0.714728
0.714742
0.714759
0.714776
0.714794
0.714814
0.714834
0.714854
0.714874
0.714893
0.714912
0.71493
0.714947
0.714962
0.714976
0.714988
0.714998
0.715006
0.715012
0.715016
0.715018
0.715019
0.715017
0.715014
0.71501
0.715004
0.714997
0.714989
0.71498
0.714971
0.714961
0.714951
0.71494
0.71493
0.714919
0.714908
0.714898
0.714888
0.714878
0.714868
0.714858
0.714849
0.71484
0.714831
0.714822
0.714813
0.714803
0.714794
0.714785
0.714776
0.714767
0.714758
0.714748
0.714739
0.714729
0.714719
0.714709
0.714699
0.71469
0.71468
0.71467
0.71466
0.714649
0.714639
0.714629
0.714619
0.714609
0.714599
0.714589
0.714579
0.714569
0.714559
0.714549
0.714539
0.714529
0.71452
0.71451
0.7145
0.71449
0.71448
0.71447
0.71446
0.71445
0.71444
0.71443
0.71442
0.71441
0.7144
0.71439
0.71438
0.71437
0.714361
0.714351
0.714341
0.714331
0.714321
0.714311
0.714301
0.714291
0.712533
0.712533
0.712532
0.712533
0.712532
0.712533
0.712534
0.712535
0.712537
0.71254
0.712544
0.712548
0.712553
0.712558
0.712564
0.712571
0.712579
0.712588
0.712598
0.712609
0.712622
0.712637
0.712654
0.712674
0.712697
0.712724
0.712754
0.712789
0.712828
0.712873
0.712923
0.712977
0.713037
0.713103
0.713173
0.713247
0.713325
0.713407
0.713492
0.713578
0.713666
0.713753
0.71384
0.713926
0.714009
0.714089
0.714165
0.714236
0.714301
0.714361
0.714415
0.714462
0.714502
0.714537
0.714565
0.714588
0.714605
0.714618
0.714626
0.714631
0.714634
0.714635
0.714634
0.714632
0.71463
0.714629
0.714627
0.714627
0.714627
0.714629
0.714631
0.714634
0.714638
0.714642
0.714646
0.714651
0.714655
0.714659
0.714663
0.714666
0.714668
0.714669
0.71467
0.714671
0.714671
0.71467
0.714669
0.714669
0.714668
0.714667
0.714667
0.714667
0.714667
0.714669
0.714671
0.714674
0.714679
0.714685
0.714693
0.714702
0.714713
0.714726
0.714741
0.714757
0.714774
0.714792
0.714811
0.714831
0.714851
0.71487
0.71489
0.714909
0.714926
0.714943
0.714958
0.714972
0.714984
0.714994
0.715002
0.715008
0.715012
0.715015
0.715015
0.715014
0.715012
0.715008
0.715002
0.714995
0.714988
0.714979
0.71497
0.714961
0.714951
0.71494
0.71493
0.714919
0.714909
0.714898
0.714888
0.714878
0.714868
0.714859
0.714849
0.71484
0.714831
0.714822
0.714813
0.714804
0.714795
0.714785
0.714776
0.714767
0.714758
0.714748
0.714739
0.714729
0.714719
0.714709
0.714699
0.71469
0.71468
0.71467
0.714659
0.714649
0.714639
0.714629
0.714619
0.714609
0.714599
0.714589
0.714579
0.714569
0.714559
0.714549
0.714539
0.714529
0.71452
0.71451
0.7145
0.71449
0.71448
0.71447
0.71446
0.71445
0.71444
0.71443
0.71442
0.71441
0.7144
0.71439
0.71438
0.71437
0.714361
0.714351
0.714341
0.714331
0.714321
0.714311
0.714301
0.714291
0.712531
0.712531
0.712528
0.712529
0.712527
0.712528
0.712529
0.712531
0.712533
0.712536
0.71254
0.712545
0.71255
0.712555
0.712562
0.712569
0.712577
0.712585
0.712595
0.712606
0.712619
0.712633
0.71265
0.712669
0.712692
0.712718
0.712748
0.712783
0.712822
0.712866
0.712915
0.71297
0.71303
0.713094
0.713164
0.713238
0.713315
0.713396
0.713479
0.713564
0.71365
0.713736
0.713821
0.713905
0.713985
0.714062
0.714135
0.714203
0.714265
0.714322
0.714372
0.714416
0.714453
0.714484
0.71451
0.71453
0.714545
0.714556
0.714563
0.714567
0.714569
0.71457
0.71457
0.714569
0.714568
0.714569
0.714569
0.714571
0.714575
0.714579
0.714585
0.714592
0.714599
0.714608
0.714616
0.714625
0.714634
0.714643
0.71465
0.714657
0.714663
0.714668
0.714672
0.714675
0.714676
0.714677
0.714678
0.714677
0.714676
0.714676
0.714675
0.714674
0.714674
0.714675
0.714677
0.71468
0.714684
0.71469
0.714697
0.714706
0.714717
0.714729
0.714743
0.714758
0.714775
0.714793
0.714811
0.71483
0.714849
0.714869
0.714887
0.714905
0.714923
0.714939
0.714953
0.714967
0.714978
0.714988
0.714996
0.715002
0.715006
0.715009
0.715009
0.715008
0.715006
0.715002
0.714998
0.714992
0.714985
0.714977
0.714968
0.714959
0.714949
0.71494
0.71493
0.714919
0.714909
0.714899
0.714889
0.714879
0.714869
0.71486
0.71485
0.714841
0.714832
0.714822
0.714813
0.714804
0.714795
0.714786
0.714776
0.714767
0.714758
0.714748
0.714739
0.714729
0.714719
0.714709
0.714699
0.714689
0.714679
0.714669
0.714659
0.714649
0.714639
0.714629
0.714619
0.714609
0.714599
0.714589
0.714579
0.714569
0.714559
0.714549
0.714539
0.714529
0.71452
0.71451
0.7145
0.71449
0.71448
0.71447
0.71446
0.71445
0.71444
0.71443
0.71442
0.71441
0.7144
0.71439
0.71438
0.71437
0.714361
0.714351
0.714341
0.714331
0.714321
0.714311
0.714301
0.714291
0.712499
0.712514
0.712513
0.71252
0.712521
0.712523
0.712525
0.712528
0.712531
0.712534
0.712538
0.712543
0.712548
0.712554
0.712561
0.712568
0.712576
0.712584
0.712594
0.712605
0.712617
0.712632
0.712648
0.712668
0.71269
0.712717
0.712747
0.712781
0.712821
0.712865
0.712914
0.712968
0.713028
0.713092
0.713161
0.713234
0.71331
0.713389
0.713471
0.713554
0.713637
0.71372
0.713801
0.713881
0.713957
0.71403
0.714098
0.71416
0.714217
0.714268
0.714313
0.714352
0.714384
0.71441
0.714431
0.714448
0.714459
0.714468
0.714473
0.714476
0.714478
0.714478
0.714479
0.714479
0.714481
0.714483
0.714487
0.714492
0.714499
0.714507
0.714517
0.714528
0.714541
0.714554
0.714568
0.714583
0.714598
0.714612
0.714626
0.714639
0.71465
0.714661
0.71467
0.714677
0.714683
0.714687
0.71469
0.714692
0.714693
0.714693
0.714692
0.714692
0.714692
0.714692
0.714693
0.714695
0.714699
0.714704
0.71471
0.714718
0.714728
0.714739
0.714752
0.714766
0.714782
0.714798
0.714815
0.714833
0.714851
0.714869
0.714886
0.714903
0.714919
0.714934
0.714947
0.71496
0.71497
0.714979
0.714987
0.714992
0.714996
0.714999
0.715
0.714999
0.714997
0.714994
0.71499
0.714985
0.714979
0.714972
0.714964
0.714956
0.714947
0.714938
0.714929
0.714919
0.71491
0.7149
0.71489
0.71488
0.714871
0.714861
0.714852
0.714842
0.714833
0.714824
0.714814
0.714805
0.714796
0.714786
0.714777
0.714767
0.714758
0.714748
0.714738
0.714729
0.714719
0.714709
0.714699
0.714689
0.714679
0.714669
0.714659
0.714649
0.714639
0.714629
0.714619
0.714609
0.714599
0.714589
0.714579
0.714569
0.714559
0.714549
0.714539
0.714529
0.71452
0.71451
0.7145
0.71449
0.71448
0.71447
0.71446
0.71445
0.71444
0.71443
0.71442
0.71441
0.7144
0.71439
0.71438
0.71437
0.714361
0.714351
0.714341
0.714331
0.714321
0.714311
0.714301
0.714291
0.712498
0.712515
0.712513
0.712517
0.712517
0.71252
0.712522
0.712525
0.712529
0.712533
0.712537
0.712543
0.712548
0.712554
0.712561
0.712568
0.712576
0.712585
0.712595
0.712607
0.712619
0.712634
0.712652
0.712672
0.712695
0.712722
0.712753
0.712788
0.712828
0.712873
0.712923
0.712977
0.713037
0.713101
0.713169
0.713241
0.713316
0.713393
0.713472
0.713552
0.713631
0.71371
0.713786
0.71386
0.713931
0.713996
0.714057
0.714113
0.714162
0.714206
0.714243
0.714274
0.7143
0.714321
0.714336
0.714348
0.714356
0.714362
0.714365
0.714367
0.714369
0.71437
0.714372
0.714375
0.714379
0.714384
0.714391
0.7144
0.714411
0.714423
0.714438
0.714454
0.714471
0.71449
0.71451
0.71453
0.714551
0.714572
0.714592
0.714611
0.71463
0.714647
0.714663
0.714677
0.714688
0.714698
0.714706
0.714712
0.714716
0.714719
0.714721
0.714722
0.714723
0.714723
0.714724
0.714726
0.714728
0.714732
0.714737
0.714744
0.714752
0.714761
0.714772
0.714784
0.714798
0.714812
0.714827
0.714842
0.714858
0.714873
0.714888
0.714903
0.714917
0.714929
0.714941
0.714952
0.714961
0.714968
0.714975
0.71498
0.714983
0.714986
0.714987
0.714987
0.714986
0.714984
0.71498
0.714976
0.714971
0.714966
0.714959
0.714952
0.714945
0.714936
0.714928
0.714919
0.71491
0.714901
0.714892
0.714882
0.714873
0.714863
0.714854
0.714844
0.714834
0.714825
0.714815
0.714806
0.714796
0.714787
0.714777
0.714768
0.714758
0.714748
0.714738
0.714729
0.714719
0.714709
0.714699
0.714689
0.714679
0.714669
0.714659
0.714649
0.714639
0.714629
0.714619
0.714609
0.714599
0.714589
0.714579
0.714569
0.714559
0.714549
0.714539
0.714529
0.71452
0.71451
0.7145
0.71449
0.71448
0.71447
0.71446
0.71445
0.71444
0.71443
0.71442
0.71441
0.7144
0.71439
0.71438
0.71437
0.714361
0.714351
0.714341
0.714331
0.714321
0.714311
0.714301
0.714291
0.712342
0.712482
0.712499
0.71252
0.712524
0.712527
0.712529
0.712531
0.712534
0.712538
0.712542
0.712547
0.712552
0.712559
0.712566
0.712573
0.712582
0.712591
0.712602
0.712615
0.712629
0.712645
0.712664
0.712685
0.71271
0.712739
0.712772
0.712809
0.71285
0.712897
0.712948
0.713003
0.713063
0.713127
0.713194
0.713265
0.713338
0.713412
0.713488
0.713563
0.713638
0.71371
0.71378
0.713847
0.713909
0.713966
0.714018
0.714064
0.714104
0.714139
0.714167
0.71419
0.714209
0.714223
0.714234
0.714241
0.714247
0.714251
0.714254
0.714257
0.71426
0.714264
0.714268
0.714274
0.714281
0.71429
0.714301
0.714313
0.714328
0.714344
0.714363
0.714383
0.714405
0.714428
0.714453
0.714479
0.714505
0.714531
0.714558
0.714584
0.714609
0.714633
0.714655
0.714676
0.714694
0.71471
0.714724
0.714736
0.714745
0.714753
0.714758
0.714762
0.714765
0.714767
0.714769
0.714771
0.714773
0.714775
0.714779
0.714784
0.714789
0.714796
0.714805
0.714814
0.714824
0.714835
0.714846
0.714858
0.71487
0.714882
0.714894
0.714905
0.714916
0.714926
0.714935
0.714943
0.71495
0.714956
0.714961
0.714965
0.714968
0.71497
0.714972
0.714972
0.714972
0.714971
0.714969
0.714966
0.714963
0.714958
0.714953
0.714948
0.714941
0.714934
0.714927
0.714919
0.714911
0.714902
0.714893
0.714884
0.714875
0.714865
0.714856
0.714846
0.714836
0.714827
0.714817
0.714807
0.714797
0.714788
0.714778
0.714768
0.714758
0.714748
0.714738
0.714728
0.714718
0.714709
0.714699
0.714689
0.714679
0.714669
0.714659
0.714649
0.714639
0.714629
0.714619
0.714609
0.714599
0.714589
0.714579
0.714569
0.714559
0.714549
0.714539
0.71453
0.71452
0.71451
0.7145
0.71449
0.71448
0.71447
0.71446
0.71445
0.71444
0.71443
0.71442
0.71441
0.7144
0.71439
0.71438
0.71437
0.714361
0.714351
0.714341
0.714331
0.714321
0.714311
0.714301
0.714291
0.713075
0.713019
0.712957
0.712889
0.712816
0.712738
0.712651
0.712531
0.713082
0.713035
0.712972
0.712903
0.71283
0.712751
0.71266
0.712563
0.713086
0.713047
0.712989
0.712923
0.712854
0.712782
0.712711
0.712641
0.713096
0.713062
0.71301
0.712949
0.712884
0.71282
0.712757
0.712698
0.713109
0.713077
0.713028
0.712972
0.712913
0.712856
0.712802
0.712754
0.713124
0.713091
0.713043
0.712989
0.712935
0.712884
0.712836
0.712794
0.71314
0.713102
0.713053
0.713
0.712949
0.712902
0.712858
0.712819
0.713148
0.7131
0.713051
0.713001
0.712953
0.712907
0.712865
0.712826
0.712468
0.712488
0.712508
0.71252
0.712526
0.712529
0.712532
0.712535
0.712539
0.712543
0.712547
0.712553
0.712559
0.712566
0.712574
0.712583
0.712594
0.712605
0.712618
0.712632
0.712649
0.712668
0.712689
0.712714
0.712742
0.712774
0.71281
0.71285
0.712894
0.712943
0.712995
0.713052
0.713113
0.713177
0.713243
0.713312
0.713382
0.713453
0.713524
0.713593
0.713661
0.713725
0.713786
0.713843
0.713895
0.713941
0.713983
0.714018
0.714048
0.714073
0.714093
0.714109
0.714121
0.714131
0.714138
0.714144
0.714149
0.714154
0.714159
0.714164
0.71417
0.714177
0.714185
0.714194
0.714204
0.714217
0.714231
0.714246
0.714264
0.714283
0.714305
0.714328
0.714354
0.71438
0.714409
0.714438
0.714469
0.7145
0.714531
0.714562
0.714593
0.714623
0.714651
0.714677
0.714702
0.714724
0.714744
0.714762
0.714777
0.714789
0.714799
0.714807
0.714813
0.714818
0.714821
0.714824
0.714826
0.714829
0.714831
0.714834
0.714837
0.714842
0.714847
0.714852
0.714859
0.714865
0.714873
0.71488
0.714888
0.714895
0.714903
0.71491
0.714917
0.714923
0.714928
0.714933
0.714938
0.714942
0.714946
0.714949
0.714951
0.714954
0.714955
0.714957
0.714957
0.714957
0.714957
0.714956
0.714954
0.714951
0.714948
0.714943
0.714938
0.714933
0.714926
0.714919
0.714912
0.714904
0.714895
0.714886
0.714877
0.714868
0.714858
0.714848
0.714839
0.714829
0.714819
0.714809
0.714798
0.714788
0.714778
0.714768
0.714758
0.714748
0.714738
0.714728
0.714718
0.714708
0.714698
0.714688
0.714678
0.714669
0.714659
0.714649
0.714639
0.714629
0.714619
0.714609
0.714599
0.714589
0.714579
0.714569
0.714559
0.714549
0.714539
0.71453
0.71452
0.71451
0.7145
0.71449
0.71448
0.71447
0.71446
0.71445
0.71444
0.71443
0.71442
0.71441
0.7144
0.71439
0.71438
0.71437
0.714361
0.714351
0.714341
0.714331
0.714321
0.714311
0.714301
0.714291
0.71249
0.7125
0.712513
0.712526
0.712534
0.712539
0.712543
0.712547
0.712551
0.712556
0.712561
0.712567
0.712575
0.712584
0.712593
0.712604
0.712617
0.712631
0.712647
0.712665
0.712686
0.712708
0.712734
0.712763
0.712796
0.712832
0.712872
0.712916
0.712964
0.713015
0.71307
0.713128
0.713189
0.713252
0.713317
0.713383
0.713449
0.713514
0.713578
0.713639
0.713698
0.713752
0.713802
0.713847
0.713887
0.713922
0.713952
0.713977
0.713998
0.714014
0.714028
0.714039
0.714048
0.714057
0.714064
0.714072
0.714079
0.714087
0.714095
0.714103
0.714112
0.714122
0.714133
0.714145
0.714158
0.714172
0.714188
0.714206
0.714225
0.714246
0.71427
0.714295
0.714322
0.714351
0.714382
0.714414
0.714447
0.714481
0.714516
0.714551
0.714585
0.714619
0.714652
0.714684
0.714713
0.714741
0.714766
0.714788
0.714808
0.714825
0.71484
0.714851
0.714861
0.714868
0.714874
0.714878
0.714881
0.714883
0.714885
0.714887
0.714888
0.714889
0.714891
0.714893
0.714895
0.714898
0.714901
0.714903
0.714906
0.714909
0.714912
0.714915
0.714917
0.71492
0.714922
0.714924
0.714927
0.714929
0.714931
0.714933
0.714936
0.714938
0.71494
0.714942
0.714944
0.714945
0.714946
0.714946
0.714946
0.714945
0.714943
0.71494
0.714936
0.714932
0.714926
0.71492
0.714913
0.714906
0.714898
0.714889
0.71488
0.71487
0.714861
0.714851
0.714841
0.71483
0.71482
0.71481
0.7148
0.714789
0.714779
0.714769
0.714758
0.714748
0.714738
0.714728
0.714718
0.714708
0.714698
0.714688
0.714678
0.714668
0.714658
0.714648
0.714639
0.714629
0.714619
0.714609
0.714599
0.714589
0.714579
0.714569
0.714559
0.714549
0.714539
0.71453
0.71452
0.71451
0.7145
0.71449
0.71448
0.71447
0.71446
0.71445
0.71444
0.71443
0.71442
0.71441
0.7144
0.71439
0.71438
0.71437
0.714361
0.714351
0.714341
0.714331
0.714321
0.714311
0.714301
0.714291
0.712588
0.712564
0.712558
0.712558
0.71256
0.712562
0.712565
0.712568
0.712571
0.712576
0.712582
0.71259
0.712599
0.71261
0.712622
0.712636
0.712652
0.712669
0.71269
0.712712
0.712737
0.712765
0.712796
0.712831
0.712868
0.71291
0.712954
0.713003
0.713054
0.713108
0.713165
0.713224
0.713284
0.713345
0.713407
0.713468
0.713527
0.713585
0.71364
0.713691
0.713738
0.713781
0.713818
0.713851
0.71388
0.713904
0.713924
0.713942
0.713957
0.71397
0.713982
0.713993
0.714003
0.714013
0.714023
0.714033
0.714043
0.714053
0.714064
0.714075
0.714086
0.714098
0.71411
0.714123
0.714137
0.714152
0.714169
0.714187
0.714207
0.714229
0.714253
0.714279
0.714307
0.714337
0.714369
0.714403
0.714438
0.714474
0.714511
0.714548
0.714585
0.714622
0.714658
0.714693
0.714726
0.714758
0.714786
0.714813
0.714836
0.714857
0.714875
0.71489
0.714903
0.714912
0.71492
0.714926
0.714929
0.714932
0.714933
0.714933
0.714933
0.714932
0.714931
0.714929
0.714928
0.714926
0.714925
0.714923
0.714922
0.71492
0.714919
0.714918
0.714917
0.714916
0.714916
0.714916
0.714916
0.714917
0.714919
0.71492
0.714923
0.714925
0.714928
0.71493
0.714933
0.714936
0.714938
0.714939
0.71494
0.71494
0.714939
0.714938
0.714935
0.714931
0.714927
0.714921
0.714915
0.714908
0.7149
0.714891
0.714882
0.714873
0.714863
0.714853
0.714843
0.714832
0.714822
0.714811
0.7148
0.71479
0.714779
0.714769
0.714759
0.714748
0.714738
0.714728
0.714718
0.714708
0.714698
0.714688
0.714678
0.714668
0.714658
0.714648
0.714638
0.714629
0.714619
0.714609
0.714599
0.714589
0.714579
0.714569
0.714559
0.714549
0.714539
0.71453
0.71452
0.71451
0.7145
0.71449
0.71448
0.71447
0.71446
0.71445
0.71444
0.71443
0.71442
0.71441
0.7144
0.71439
0.71438
0.71437
0.714361
0.714351
0.714341
0.714331
0.714321
0.714311
0.714301
0.714291
0.712652
0.712625
0.71261
0.712603
0.712599
0.712598
0.712597
0.712599
0.712601
0.712606
0.712612
0.71262
0.71263
0.712642
0.712657
0.712673
0.712693
0.712714
0.712738
0.712766
0.712796
0.712829
0.712865
0.712905
0.712947
0.712994
0.713043
0.713094
0.713149
0.713205
0.713262
0.71332
0.713378
0.713435
0.713491
0.713545
0.713597
0.713645
0.713689
0.713729
0.713764
0.713796
0.713823
0.713848
0.71387
0.713888
0.713905
0.713919
0.713932
0.713945
0.713957
0.713969
0.713981
0.713994
0.714007
0.714019
0.714031
0.714043
0.714055
0.714066
0.714078
0.71409
0.714103
0.714116
0.71413
0.714145
0.714162
0.714181
0.714201
0.714223
0.714248
0.714274
0.714303
0.714333
0.714366
0.714401
0.714437
0.714474
0.714513
0.714551
0.714591
0.714629
0.714667
0.714704
0.71474
0.714774
0.714805
0.714834
0.71486
0.714883
0.714903
0.714921
0.714935
0.714946
0.714955
0.714962
0.714966
0.714968
0.714969
0.714968
0.714966
0.714963
0.71496
0.714956
0.714951
0.714946
0.714942
0.714937
0.714932
0.714927
0.714923
0.714919
0.714916
0.714913
0.714911
0.714909
0.714909
0.714909
0.71491
0.714911
0.714914
0.714916
0.71492
0.714923
0.714926
0.71493
0.714932
0.714935
0.714937
0.714937
0.714937
0.714936
0.714934
0.714931
0.714927
0.714922
0.714916
0.714909
0.714901
0.714893
0.714884
0.714874
0.714865
0.714854
0.714844
0.714833
0.714823
0.714812
0.714801
0.71479
0.71478
0.714769
0.714759
0.714748
0.714738
0.714728
0.714718
0.714708
0.714698
0.714688
0.714678
0.714668
0.714658
0.714648
0.714638
0.714629
0.714619
0.714609
0.714599
0.714589
0.714579
0.714569
0.714559
0.714549
0.71454
0.71453
0.71452
0.71451
0.7145
0.71449
0.71448
0.71447
0.71446
0.71445
0.71444
0.71443
0.71442
0.71441
0.7144
0.71439
0.71438
0.71437
0.714361
0.714351
0.714341
0.714331
0.714321
0.714311
0.714301
0.714291
0.712715
0.712687
0.712667
0.712654
0.712645
0.712639
0.712635
0.712633
0.712633
0.712636
0.712642
0.71265
0.712661
0.712674
0.712691
0.71271
0.712732
0.712757
0.712785
0.712816
0.71285
0.712887
0.712928
0.712972
0.713019
0.713068
0.71312
0.713174
0.713229
0.713285
0.71334
0.713395
0.713448
0.713499
0.713548
0.713595
0.713638
0.713679
0.713715
0.713747
0.713775
0.713799
0.71382
0.713838
0.713855
0.713871
0.713887
0.713903
0.713919
0.713935
0.71395
0.713965
0.713979
0.713992
0.714004
0.714017
0.714029
0.71404
0.714052
0.714064
0.714076
0.714088
0.714101
0.714115
0.714129
0.714145
0.714162
0.714181
0.714201
0.714224
0.714248
0.714275
0.714304
0.714335
0.714369
0.714404
0.71444
0.714478
0.714518
0.714557
0.714597
0.714637
0.714676
0.714714
0.714751
0.714786
0.714819
0.714849
0.714876
0.714901
0.714922
0.714941
0.714956
0.714968
0.714978
0.714984
0.714989
0.714991
0.714991
0.714989
0.714986
0.714982
0.714977
0.714971
0.714964
0.714958
0.714951
0.714944
0.714937
0.71493
0.714924
0.714919
0.714914
0.71491
0.714907
0.714905
0.714904
0.714904
0.714905
0.714906
0.714909
0.714912
0.714915
0.714919
0.714923
0.714926
0.71493
0.714932
0.714935
0.714936
0.714936
0.714936
0.714934
0.714931
0.714928
0.714923
0.714917
0.71491
0.714902
0.714894
0.714885
0.714876
0.714866
0.714855
0.714845
0.714834
0.714823
0.714812
0.714801
0.714791
0.71478
0.714769
0.714759
0.714748
0.714738
0.714728
0.714718
0.714708
0.714698
0.714688
0.714678
0.714668
0.714658
0.714648
0.714638
0.714628
0.714619
0.714609
0.714599
0.714589
0.714579
0.714569
0.714559
0.714549
0.71454
0.71453
0.71452
0.71451
0.7145
0.71449
0.71448
0.71447
0.71446
0.71445
0.71444
0.71443
0.71442
0.71441
0.7144
0.71439
0.71438
0.71437
0.714361
0.714351
0.714341
0.714331
0.714321
0.714311
0.714301
0.714291
0.712759
0.712731
0.712708
0.712691
0.712678
0.712668
0.71266
0.712656
0.712655
0.712657
0.712662
0.71267
0.712682
0.712696
0.712714
0.712735
0.712759
0.712786
0.712817
0.71285
0.712887
0.712927
0.71297
0.713016
0.713064
0.713115
0.713167
0.713221
0.713275
0.713329
0.713382
0.713433
0.713482
0.713528
0.713571
0.713611
0.713648
0.71368
0.713709
0.713734
0.713758
0.713782
0.713805
0.713827
0.713849
0.713869
0.713887
0.713904
0.71392
0.713935
0.713949
0.713963
0.713976
0.713989
0.714002
0.714015
0.714027
0.714039
0.714052
0.714064
0.714076
0.714089
0.714102
0.714116
0.714131
0.714147
0.714164
0.714183
0.714204
0.714227
0.714252
0.714279
0.714309
0.71434
0.714374
0.714409
0.714446
0.714485
0.714524
0.714564
0.714605
0.714645
0.714685
0.714723
0.71476
0.714796
0.714829
0.714859
0.714887
0.714912
0.714934
0.714952
0.714968
0.71498
0.714989
0.714996
0.715
0.715002
0.715001
0.714999
0.714995
0.71499
0.714984
0.714977
0.71497
0.714962
0.714954
0.714946
0.714938
0.714931
0.714925
0.714919
0.714914
0.714909
0.714906
0.714904
0.714903
0.714902
0.714903
0.714905
0.714907
0.71491
0.714914
0.714918
0.714921
0.714925
0.714929
0.714932
0.714934
0.714935
0.714936
0.714935
0.714934
0.714931
0.714928
0.714923
0.714917
0.71491
0.714903
0.714894
0.714885
0.714876
0.714866
0.714856
0.714845
0.714834
0.714823
0.714812
0.714802
0.714791
0.71478
0.714769
0.714759
0.714748
0.714738
0.714728
0.714718
0.714708
0.714698
0.714688
0.714678
0.714668
0.714658
0.714648
0.714638
0.714628
0.714619
0.714609
0.714599
0.714589
0.714579
0.714569
0.714559
0.714549
0.71454
0.71453
0.71452
0.71451
0.7145
0.71449
0.71448
0.71447
0.71446
0.71445
0.71444
0.71443
0.71442
0.71441
0.7144
0.71439
0.71438
0.71437
0.714361
0.714351
0.714341
0.714331
0.714321
0.714311
0.714301
0.714291
0.712785
0.712756
0.712732
0.712712
0.712695
0.712683
0.712673
0.712668
0.712666
0.712667
0.712672
0.712681
0.712693
0.712708
0.712727
0.712749
0.712774
0.712802
0.712834
0.712868
0.712906
0.712947
0.712991
0.713037
0.713085
0.713135
0.713186
0.713238
0.713289
0.713339
0.713388
0.713433
0.713477
0.713518
0.713558
0.713597
0.713634
0.71367
0.713703
0.713733
0.71376
0.713785
0.713808
0.713828
0.713848
0.713866
0.713884
0.7139
0.713916
0.713932
0.713947
0.713962
0.713975
0.713989
0.714002
0.714014
0.714027
0.714039
0.714051
0.714064
0.714076
0.714089
0.714102
0.714117
0.714132
0.714148
0.714166
0.714186
0.714207
0.71423
0.714256
0.714283
0.714313
0.714345
0.714378
0.714414
0.714451
0.71449
0.714529
0.714569
0.71461
0.71465
0.714689
0.714728
0.714765
0.7148
0.714833
0.714864
0.714891
0.714916
0.714938
0.714956
0.714972
0.714984
0.714993
0.714999
0.715003
0.715005
0.715004
0.715001
0.714997
0.714992
0.714985
0.714978
0.714971
0.714963
0.714954
0.714946
0.714939
0.714931
0.714925
0.714919
0.714914
0.714909
0.714906
0.714904
0.714903
0.714903
0.714903
0.714905
0.714907
0.71491
0.714914
0.714918
0.714921
0.714925
0.714928
0.714931
0.714934
0.714935
0.714936
0.714935
0.714934
0.714931
0.714927
0.714922
0.714917
0.71491
0.714902
0.714894
0.714885
0.714876
0.714866
0.714855
0.714845
0.714834
0.714823
0.714813
0.714802
0.714791
0.71478
0.714769
0.714759
0.714748
0.714738
0.714728
0.714718
0.714708
0.714698
0.714688
0.714678
0.714668
0.714658
0.714648
0.714638
0.714628
0.714619
0.714609
0.714599
0.714589
0.714579
0.714569
0.714559
0.714549
0.71454
0.71453
0.71452
0.71451
0.7145
0.71449
0.71448
0.71447
0.71446
0.71445
0.71444
0.71443
0.71442
0.71441
0.7144
0.71439
0.71438
0.71437
0.714361
0.714351
0.714341
0.714331
0.714321
0.714311
0.714301
0.714291
0.712792
0.712761
0.712735
0.712712
0.712694
0.71268
0.71267
0.712664
0.712662
0.712663
0.712668
0.712677
0.712689
0.712704
0.712723
0.712745
0.71277
0.712798
0.712829
0.712863
0.7129
0.71294
0.712982
0.713027
0.713073
0.713122
0.713172
0.713223
0.713274
0.713325
0.713374
0.713422
0.713468
0.713513
0.713555
0.713595
0.713632
0.713667
0.713698
0.713727
0.713753
0.713778
0.713802
0.713824
0.713845
0.713864
0.713883
0.7139
0.713916
0.713932
0.713946
0.713961
0.713974
0.713988
0.714001
0.714013
0.714026
0.714038
0.71405
0.714063
0.714075
0.714088
0.714102
0.714117
0.714132
0.714149
0.714167
0.714187
0.714209
0.714233
0.714259
0.714287
0.714317
0.714349
0.714383
0.714419
0.714456
0.714495
0.714535
0.714575
0.714616
0.714656
0.714695
0.714734
0.714771
0.714806
0.714839
0.714869
0.714896
0.714921
0.714942
0.71496
0.714975
0.714987
0.714995
0.715001
0.715005
0.715006
0.715004
0.715001
0.714997
0.714991
0.714985
0.714977
0.714969
0.714961
0.714953
0.714945
0.714938
0.714931
0.714924
0.714918
0.714913
0.714909
0.714906
0.714904
0.714903
0.714903
0.714904
0.714906
0.714908
0.714911
0.714915
0.714919
0.714922
0.714926
0.714929
0.714932
0.714934
0.714936
0.714936
0.714935
0.714934
0.714931
0.714927
0.714922
0.714916
0.71491
0.714902
0.714894
0.714885
0.714875
0.714866
0.714855
0.714845
0.714834
0.714823
0.714812
0.714802
0.714791
0.71478
0.714769
0.714759
0.714748
0.714738
0.714728
0.714718
0.714708
0.714698
0.714688
0.714678
0.714668
0.714658
0.714648
0.714638
0.714628
0.714619
0.714609
0.714599
0.714589
0.714579
0.714569
0.714559
0.714549
0.71454
0.71453
0.71452
0.71451
0.7145
0.71449
0.71448
0.71447
0.71446
0.71445
0.71444
0.71443
0.71442
0.71441
0.7144
0.71439
0.71438
0.71437
0.714361
0.714351
0.714341
0.714331
0.714321
0.714311
0.714301
0.714291
)
;

boundaryField
{
    inlet
    {
        type            zeroGradient;
    }
    outlet
    {
        type            fixedValue;
        value           uniform 0.714286;
    }
    walls
    {
        type            zeroGradient;
    }
    symwall
    {
        type            empty;
    }
}

