/*--------------------------------*- C++ -*----------------------------------*\
| =========                 |                                                 |
| \\      /  F ield         | OpenFOAM: The Open Source CFD Toolbox           |
|  \\    /   O peration     | Version:  4.1                                   |
|   \\  /    A nd           | Web:      www.OpenFOAM.org                      |
|    \\/     M anipulation  |                                                 |
\*---------------------------------------------------------------------------*/
FoamFile
{
    version     2.0;
    format      ascii;
    class       volScalarField;
    location    "145";
    object      p;
}
// * * * * * * * * * * * * * * * * * * * * * * * * * * * * * * * * * * * * * //

dimensions      [1 -1 -2 0 0 0 0];

internalField   nonuniform List<scalar> 
3264
(
0.712689
0.712687
0.712685
0.712682
0.712679
0.712675
0.71267
0.712666
0.712661
0.712656
0.712651
0.712647
0.712645
0.712644
0.712645
0.71265
0.712658
0.71267
0.712687
0.71271
0.71274
0.712776
0.712819
0.712871
0.71293
0.712997
0.713072
0.713154
0.713243
0.713339
0.71344
0.713546
0.713656
0.713767
0.71388
0.713992
0.714103
0.71421
0.714313
0.71441
0.714501
0.714584
0.714659
0.714725
0.714782
0.71483
0.71487
0.714902
0.714926
0.714943
0.714955
0.714962
0.714964
0.714964
0.714961
0.714957
0.714952
0.714946
0.714941
0.714935
0.714931
0.714927
0.714925
0.714924
0.714926
0.71493
0.714937
0.714947
0.714961
0.714979
0.715
0.715026
0.715055
0.715088
0.715123
0.715161
0.715201
0.715241
0.715282
0.71532
0.715357
0.715391
0.715421
0.715446
0.715467
0.715483
0.715494
0.7155
0.715503
0.715501
0.715497
0.71549
0.715481
0.715471
0.71546
0.715448
0.715435
0.715422
0.71541
0.715397
0.715384
0.715372
0.71536
0.715348
0.715336
0.715324
0.715313
0.715301
0.71529
0.715279
0.715268
0.715257
0.715246
0.715235
0.715224
0.715213
0.715202
0.715191
0.71518
0.715169
0.715158
0.715147
0.715136
0.715125
0.715115
0.715104
0.715093
0.715082
0.715071
0.71506
0.715049
0.715038
0.715027
0.715016
0.715005
0.714994
0.714983
0.714972
0.714961
0.71495
0.714939
0.714928
0.714917
0.714906
0.714895
0.714884
0.714873
0.714862
0.714851
0.71484
0.714829
0.714818
0.714807
0.714796
0.714785
0.714774
0.714763
0.714752
0.714741
0.71473
0.71472
0.714709
0.714698
0.714687
0.714676
0.714665
0.714654
0.714643
0.714632
0.714621
0.71461
0.714599
0.714588
0.714577
0.714566
0.714555
0.714544
0.714533
0.714522
0.714511
0.7145
0.714489
0.714478
0.714467
0.714456
0.714445
0.714434
0.714423
0.714412
0.714401
0.71439
0.714379
0.714368
0.714357
0.714346
0.714335
0.714324
0.714313
0.714302
0.714291
0.712691
0.712689
0.712687
0.712685
0.712682
0.712679
0.712675
0.712671
0.712666
0.712662
0.712657
0.712653
0.71265
0.712649
0.71265
0.712653
0.71266
0.712671
0.712687
0.712709
0.712737
0.712771
0.712814
0.712864
0.712922
0.712988
0.713061
0.713143
0.713232
0.713327
0.713428
0.713534
0.713643
0.713754
0.713867
0.713979
0.71409
0.714197
0.714301
0.714398
0.71449
0.714573
0.714649
0.714716
0.714774
0.714823
0.714864
0.714896
0.714922
0.71494
0.714953
0.71496
0.714964
0.714964
0.714962
0.714959
0.714954
0.714948
0.714943
0.714938
0.714933
0.714929
0.714927
0.714926
0.714927
0.71493
0.714936
0.714946
0.714959
0.714976
0.714997
0.715022
0.71505
0.715083
0.715119
0.715157
0.715197
0.715237
0.715278
0.715317
0.715355
0.715389
0.71542
0.715446
0.715467
0.715483
0.715495
0.715501
0.715504
0.715502
0.715498
0.715491
0.715482
0.715472
0.71546
0.715448
0.715435
0.715423
0.71541
0.715397
0.715384
0.715372
0.71536
0.715348
0.715336
0.715324
0.715313
0.715301
0.71529
0.715279
0.715268
0.715257
0.715246
0.715235
0.715224
0.715213
0.715202
0.715191
0.71518
0.715169
0.715158
0.715147
0.715136
0.715125
0.715115
0.715104
0.715093
0.715082
0.715071
0.71506
0.715049
0.715038
0.715027
0.715016
0.715005
0.714994
0.714983
0.714972
0.714961
0.71495
0.714939
0.714928
0.714917
0.714906
0.714895
0.714884
0.714873
0.714862
0.714851
0.71484
0.714829
0.714818
0.714807
0.714796
0.714785
0.714774
0.714763
0.714752
0.714741
0.71473
0.71472
0.714709
0.714698
0.714687
0.714676
0.714665
0.714654
0.714643
0.714632
0.714621
0.71461
0.714599
0.714588
0.714577
0.714566
0.714555
0.714544
0.714533
0.714522
0.714511
0.7145
0.714489
0.714478
0.714467
0.714456
0.714445
0.714434
0.714423
0.714412
0.714401
0.71439
0.714379
0.714368
0.714357
0.714346
0.714335
0.714324
0.714313
0.714302
0.714291
0.712694
0.712691
0.712689
0.712687
0.712684
0.71268
0.712676
0.712671
0.712666
0.712661
0.712656
0.712651
0.712648
0.712645
0.712645
0.712647
0.712653
0.712663
0.712678
0.712699
0.712726
0.71276
0.712802
0.712851
0.712908
0.712974
0.713047
0.713129
0.713217
0.713312
0.713413
0.713518
0.713628
0.713739
0.713852
0.713964
0.714075
0.714182
0.714285
0.714383
0.714474
0.714558
0.714634
0.714701
0.714759
0.714809
0.71485
0.714883
0.714908
0.714927
0.714941
0.714949
0.714954
0.714956
0.714956
0.714953
0.71495
0.714945
0.71494
0.714935
0.714931
0.714927
0.714925
0.714924
0.714925
0.714928
0.714934
0.714944
0.714956
0.714973
0.714994
0.715018
0.715047
0.71508
0.715115
0.715154
0.715194
0.715235
0.715277
0.715317
0.715355
0.71539
0.715421
0.715448
0.715469
0.715486
0.715497
0.715503
0.715505
0.715504
0.715499
0.715492
0.715483
0.715472
0.71546
0.715448
0.715435
0.715422
0.715409
0.715397
0.715384
0.715372
0.715359
0.715347
0.715336
0.715324
0.715313
0.715301
0.71529
0.715279
0.715268
0.715257
0.715246
0.715235
0.715224
0.715213
0.715202
0.715191
0.71518
0.715169
0.715158
0.715147
0.715136
0.715125
0.715115
0.715104
0.715093
0.715082
0.715071
0.71506
0.715049
0.715038
0.715027
0.715016
0.715005
0.714994
0.714983
0.714972
0.714961
0.71495
0.714939
0.714928
0.714917
0.714906
0.714895
0.714884
0.714873
0.714862
0.714851
0.71484
0.714829
0.714818
0.714807
0.714796
0.714785
0.714774
0.714763
0.714752
0.714741
0.71473
0.71472
0.714709
0.714698
0.714687
0.714676
0.714665
0.714654
0.714643
0.714632
0.714621
0.71461
0.714599
0.714588
0.714577
0.714566
0.714555
0.714544
0.714533
0.714522
0.714511
0.7145
0.714489
0.714478
0.714467
0.714456
0.714445
0.714434
0.714423
0.714412
0.714401
0.71439
0.714379
0.714368
0.714357
0.714346
0.714335
0.714324
0.714313
0.714302
0.714291
0.71269
0.712689
0.712687
0.712686
0.712683
0.71268
0.712675
0.712671
0.712665
0.71266
0.712654
0.712649
0.712644
0.712641
0.712639
0.712641
0.712645
0.712654
0.712668
0.712687
0.712713
0.712746
0.712787
0.712836
0.712892
0.712957
0.71303
0.713111
0.713199
0.713293
0.713394
0.713498
0.713607
0.713717
0.713829
0.71394
0.714049
0.714155
0.714257
0.714353
0.714442
0.714524
0.714597
0.714663
0.714719
0.714767
0.714806
0.714838
0.714863
0.714882
0.714896
0.714906
0.714913
0.714917
0.71492
0.714922
0.714923
0.714923
0.714923
0.714923
0.714923
0.714922
0.714922
0.714923
0.714924
0.714928
0.714934
0.714943
0.714956
0.714973
0.714994
0.715018
0.715047
0.71508
0.715115
0.715154
0.715194
0.715235
0.715277
0.715317
0.715355
0.715391
0.715422
0.715449
0.71547
0.715487
0.715498
0.715504
0.715506
0.715504
0.715499
0.715491
0.715482
0.715471
0.715459
0.715447
0.715434
0.715422
0.715409
0.715396
0.715384
0.715371
0.715359
0.715347
0.715336
0.715324
0.715313
0.715301
0.71529
0.715279
0.715268
0.715257
0.715246
0.715235
0.715224
0.715213
0.715202
0.715191
0.71518
0.715169
0.715158
0.715147
0.715136
0.715126
0.715115
0.715104
0.715093
0.715082
0.715071
0.71506
0.715049
0.715038
0.715027
0.715016
0.715005
0.714994
0.714983
0.714972
0.714961
0.71495
0.714939
0.714928
0.714917
0.714906
0.714895
0.714884
0.714873
0.714862
0.714851
0.71484
0.714829
0.714818
0.714807
0.714796
0.714785
0.714774
0.714763
0.714752
0.714741
0.71473
0.71472
0.714709
0.714698
0.714687
0.714676
0.714665
0.714654
0.714643
0.714632
0.714621
0.71461
0.714599
0.714588
0.714577
0.714566
0.714555
0.714544
0.714533
0.714522
0.714511
0.7145
0.714489
0.714478
0.714467
0.714456
0.714445
0.714434
0.714423
0.714412
0.714401
0.71439
0.714379
0.714368
0.714357
0.714346
0.714335
0.714324
0.714313
0.714302
0.714291
0.712689
0.712688
0.712685
0.712684
0.71268
0.712677
0.712672
0.712668
0.712662
0.712656
0.71265
0.712645
0.712639
0.712636
0.712633
0.712634
0.712638
0.712646
0.712659
0.712678
0.712704
0.712737
0.712777
0.712825
0.712881
0.712946
0.713018
0.713098
0.713185
0.713279
0.713378
0.713481
0.713587
0.713695
0.713804
0.713912
0.714018
0.71412
0.714218
0.714309
0.714394
0.71447
0.714539
0.714598
0.714649
0.714692
0.714727
0.714755
0.714776
0.714793
0.714806
0.714816
0.714825
0.714832
0.714839
0.714847
0.714854
0.714863
0.714871
0.71488
0.714889
0.714898
0.714906
0.714914
0.714922
0.714931
0.714941
0.714952
0.714966
0.714983
0.715003
0.715028
0.715056
0.715088
0.715123
0.71516
0.7152
0.715241
0.715282
0.715321
0.715359
0.715394
0.715425
0.715451
0.715471
0.715487
0.715497
0.715503
0.715504
0.715502
0.715497
0.715489
0.71548
0.715469
0.715457
0.715445
0.715433
0.71542
0.715408
0.715395
0.715383
0.715371
0.715359
0.715347
0.715335
0.715324
0.715312
0.715301
0.71529
0.715279
0.715268
0.715257
0.715246
0.715235
0.715224
0.715213
0.715202
0.715191
0.71518
0.715169
0.715158
0.715147
0.715136
0.715126
0.715115
0.715104
0.715093
0.715082
0.715071
0.71506
0.715049
0.715038
0.715027
0.715016
0.715005
0.714994
0.714983
0.714972
0.714961
0.71495
0.714939
0.714928
0.714917
0.714906
0.714895
0.714884
0.714873
0.714862
0.714851
0.71484
0.714829
0.714818
0.714807
0.714796
0.714785
0.714774
0.714763
0.714752
0.714741
0.71473
0.71472
0.714709
0.714698
0.714687
0.714676
0.714665
0.714654
0.714643
0.714632
0.714621
0.71461
0.714599
0.714588
0.714577
0.714566
0.714555
0.714544
0.714533
0.714522
0.714511
0.7145
0.714489
0.714478
0.714467
0.714456
0.714445
0.714434
0.714423
0.714412
0.714401
0.71439
0.714379
0.714368
0.714357
0.714346
0.714335
0.714324
0.714313
0.714302
0.714291
0.712657
0.712672
0.712672
0.712677
0.712676
0.712675
0.712672
0.712668
0.712663
0.712657
0.712651
0.712644
0.712639
0.712635
0.712632
0.712632
0.712636
0.712644
0.712657
0.712676
0.712701
0.712734
0.712774
0.712822
0.712878
0.712942
0.713013
0.713093
0.713178
0.71327
0.713367
0.713467
0.713571
0.713675
0.71378
0.713883
0.713983
0.714079
0.714169
0.714253
0.714329
0.714397
0.714456
0.714506
0.714548
0.714582
0.714609
0.71463
0.714646
0.714658
0.714669
0.714678
0.714688
0.714699
0.714711
0.714726
0.714742
0.71476
0.71478
0.714802
0.714823
0.714845
0.714867
0.714888
0.714908
0.714927
0.714946
0.714965
0.714985
0.715005
0.715028
0.715053
0.715081
0.715112
0.715146
0.715181
0.715219
0.715257
0.715296
0.715333
0.715369
0.715402
0.715431
0.715455
0.715474
0.715488
0.715497
0.715501
0.715502
0.715499
0.715493
0.715485
0.715476
0.715465
0.715454
0.715442
0.71543
0.715418
0.715406
0.715394
0.715382
0.71537
0.715358
0.715347
0.715335
0.715324
0.715312
0.715301
0.71529
0.715279
0.715268
0.715257
0.715246
0.715235
0.715224
0.715213
0.715202
0.715191
0.71518
0.715169
0.715158
0.715147
0.715136
0.715126
0.715115
0.715104
0.715093
0.715082
0.715071
0.71506
0.715049
0.715038
0.715027
0.715016
0.715005
0.714994
0.714983
0.714972
0.714961
0.71495
0.714939
0.714928
0.714917
0.714906
0.714895
0.714884
0.714873
0.714862
0.714851
0.71484
0.714829
0.714818
0.714807
0.714796
0.714785
0.714774
0.714763
0.714752
0.714741
0.71473
0.71472
0.714709
0.714698
0.714687
0.714676
0.714665
0.714654
0.714643
0.714632
0.714621
0.71461
0.714599
0.714588
0.714577
0.714566
0.714555
0.714544
0.714533
0.714522
0.714511
0.7145
0.714489
0.714478
0.714467
0.714456
0.714445
0.714434
0.714423
0.714412
0.714401
0.71439
0.714379
0.714368
0.714357
0.714346
0.714335
0.714324
0.714313
0.714302
0.714291
0.712658
0.712675
0.712674
0.712678
0.712676
0.712676
0.712673
0.712669
0.712664
0.712659
0.712653
0.712647
0.712641
0.712637
0.712635
0.712636
0.71264
0.712648
0.712662
0.712681
0.712708
0.712741
0.712782
0.71283
0.712887
0.712951
0.713022
0.7131
0.713185
0.713275
0.713369
0.713466
0.713564
0.713664
0.713762
0.713858
0.713949
0.714036
0.714116
0.714189
0.714253
0.714309
0.714355
0.714393
0.714423
0.714445
0.714462
0.714474
0.714483
0.714491
0.714499
0.714508
0.71452
0.714535
0.714553
0.714576
0.714602
0.714631
0.714664
0.714699
0.714735
0.714772
0.714809
0.714845
0.714881
0.714915
0.714947
0.714978
0.715007
0.715036
0.715065
0.715094
0.715124
0.715155
0.715188
0.715221
0.715256
0.71529
0.715325
0.715358
0.71539
0.715419
0.715443
0.715464
0.71548
0.715491
0.715497
0.7155
0.715499
0.715495
0.715489
0.715481
0.715471
0.715461
0.71545
0.715439
0.715427
0.715415
0.715404
0.715392
0.71538
0.715369
0.715357
0.715346
0.715335
0.715323
0.715312
0.715301
0.71529
0.715279
0.715268
0.715257
0.715246
0.715235
0.715224
0.715213
0.715202
0.715191
0.71518
0.715169
0.715158
0.715147
0.715137
0.715126
0.715115
0.715104
0.715093
0.715082
0.715071
0.71506
0.715049
0.715038
0.715027
0.715016
0.715005
0.714994
0.714983
0.714972
0.714961
0.71495
0.714939
0.714928
0.714917
0.714906
0.714895
0.714884
0.714873
0.714862
0.714851
0.71484
0.714829
0.714818
0.714807
0.714796
0.714785
0.714774
0.714763
0.714752
0.714741
0.71473
0.71472
0.714709
0.714698
0.714687
0.714676
0.714665
0.714654
0.714643
0.714632
0.714621
0.71461
0.714599
0.714588
0.714577
0.714566
0.714555
0.714544
0.714533
0.714522
0.714511
0.7145
0.714489
0.714478
0.714467
0.714456
0.714445
0.714434
0.714423
0.714412
0.714401
0.71439
0.714379
0.714368
0.714357
0.714346
0.714335
0.714324
0.714313
0.714302
0.714291
0.7125
0.712642
0.712661
0.712683
0.712685
0.712685
0.712682
0.712678
0.712673
0.712667
0.712661
0.712655
0.71265
0.712647
0.712646
0.712648
0.712653
0.712664
0.712679
0.712701
0.712729
0.712765
0.712807
0.712857
0.712915
0.71298
0.713051
0.713129
0.713212
0.713299
0.71339
0.713483
0.713576
0.713668
0.713758
0.713844
0.713925
0.713999
0.714066
0.714125
0.714174
0.714215
0.714246
0.71427
0.714286
0.714296
0.714303
0.714307
0.714311
0.714315
0.714323
0.714334
0.714349
0.71437
0.714396
0.714427
0.714463
0.714504
0.714548
0.714595
0.714645
0.714696
0.714748
0.714799
0.714849
0.714898
0.714945
0.714989
0.715031
0.71507
0.715108
0.715143
0.715178
0.715211
0.715244
0.715276
0.715308
0.715339
0.715368
0.715396
0.715422
0.715445
0.715464
0.715479
0.71549
0.715497
0.7155
0.7155
0.715497
0.715491
0.715484
0.715476
0.715466
0.715456
0.715446
0.715435
0.715424
0.715412
0.715401
0.71539
0.715379
0.715368
0.715357
0.715345
0.715334
0.715323
0.715312
0.715301
0.71529
0.715279
0.715268
0.715257
0.715246
0.715235
0.715224
0.715213
0.715202
0.715191
0.71518
0.715169
0.715158
0.715148
0.715137
0.715126
0.715115
0.715104
0.715093
0.715082
0.715071
0.71506
0.715049
0.715038
0.715027
0.715016
0.715005
0.714994
0.714983
0.714972
0.714961
0.71495
0.714939
0.714928
0.714917
0.714906
0.714895
0.714884
0.714873
0.714862
0.714851
0.71484
0.714829
0.714818
0.714807
0.714796
0.714785
0.714774
0.714763
0.714752
0.714741
0.71473
0.71472
0.714709
0.714698
0.714687
0.714676
0.714665
0.714654
0.714643
0.714632
0.714621
0.71461
0.714599
0.714588
0.714577
0.714566
0.714555
0.714544
0.714533
0.714522
0.714511
0.7145
0.714489
0.714478
0.714467
0.714456
0.714445
0.714434
0.714423
0.714412
0.714401
0.71439
0.714379
0.714368
0.714357
0.714346
0.714335
0.714324
0.714313
0.714302
0.714291
0.713247
0.713191
0.713128
0.71306
0.712986
0.712907
0.712818
0.712696
0.713254
0.713207
0.713144
0.713074
0.713
0.712921
0.712829
0.712729
0.713259
0.71322
0.713161
0.713095
0.713025
0.712953
0.712881
0.71281
0.71327
0.713236
0.713183
0.713122
0.713057
0.712993
0.712929
0.712871
0.713284
0.713252
0.713203
0.713146
0.713088
0.713031
0.712977
0.71293
0.713299
0.713266
0.713218
0.713165
0.713112
0.713061
0.713014
0.712973
0.713315
0.713278
0.713229
0.713177
0.713127
0.71308
0.713037
0.713
0.713324
0.713277
0.713227
0.713178
0.71313
0.713086
0.713045
0.713008
0.712629
0.712649
0.712671
0.712682
0.712688
0.712689
0.712687
0.712684
0.71268
0.712676
0.712672
0.712668
0.712666
0.712666
0.712668
0.712673
0.712683
0.712697
0.712717
0.712743
0.712775
0.712814
0.71286
0.712913
0.712973
0.713039
0.713112
0.713189
0.71327
0.713354
0.71344
0.713526
0.713611
0.713694
0.713773
0.713846
0.713913
0.713973
0.714024
0.714066
0.714099
0.714124
0.71414
0.71415
0.714154
0.714155
0.714155
0.714155
0.714157
0.714163
0.714173
0.714188
0.714209
0.714236
0.71427
0.714309
0.714353
0.714403
0.714457
0.714514
0.714575
0.714637
0.7147
0.714763
0.714825
0.714886
0.714945
0.715001
0.715054
0.715104
0.71515
0.715193
0.715233
0.715271
0.715305
0.715337
0.715367
0.715394
0.715419
0.715441
0.71546
0.715476
0.715489
0.715497
0.715503
0.715505
0.715504
0.715501
0.715495
0.715488
0.71548
0.715471
0.715462
0.715452
0.715441
0.715431
0.71542
0.71541
0.715399
0.715388
0.715377
0.715366
0.715356
0.715345
0.715334
0.715323
0.715312
0.715301
0.71529
0.715279
0.715268
0.715257
0.715246
0.715235
0.715224
0.715213
0.715202
0.715191
0.71518
0.715169
0.715159
0.715148
0.715137
0.715126
0.715115
0.715104
0.715093
0.715082
0.715071
0.71506
0.715049
0.715038
0.715027
0.715016
0.715005
0.714994
0.714983
0.714972
0.714961
0.71495
0.714939
0.714928
0.714917
0.714906
0.714895
0.714884
0.714873
0.714862
0.714851
0.71484
0.714829
0.714818
0.714807
0.714796
0.714785
0.714774
0.714763
0.714752
0.714741
0.71473
0.71472
0.714709
0.714698
0.714687
0.714676
0.714665
0.714654
0.714643
0.714632
0.714621
0.71461
0.714599
0.714588
0.714577
0.714566
0.714555
0.714544
0.714533
0.714522
0.714511
0.7145
0.714489
0.714478
0.714467
0.714456
0.714445
0.714434
0.714423
0.714412
0.714401
0.71439
0.714379
0.714368
0.714357
0.714346
0.714335
0.714324
0.714313
0.714302
0.714291
0.712654
0.712663
0.712676
0.712689
0.712697
0.712701
0.712702
0.712702
0.7127
0.712699
0.712698
0.712698
0.7127
0.712705
0.712712
0.712723
0.712738
0.712759
0.712785
0.712817
0.712855
0.712899
0.71295
0.713007
0.71307
0.713137
0.713209
0.713284
0.713362
0.713441
0.71352
0.713597
0.713672
0.713741
0.713806
0.713864
0.713914
0.713956
0.71399
0.714016
0.714033
0.714043
0.714048
0.714049
0.714048
0.714046
0.714045
0.714047
0.714052
0.714061
0.714076
0.714096
0.714122
0.714155
0.714193
0.714237
0.714287
0.714343
0.714402
0.714466
0.714533
0.714602
0.714673
0.714744
0.714815
0.714884
0.714952
0.715017
0.715078
0.715136
0.715189
0.715239
0.715284
0.715325
0.715361
0.715394
0.715422
0.715447
0.715468
0.715485
0.715498
0.715507
0.715514
0.715516
0.715516
0.715514
0.715509
0.715502
0.715495
0.715486
0.715477
0.715467
0.715457
0.715447
0.715437
0.715427
0.715417
0.715407
0.715396
0.715386
0.715376
0.715365
0.715355
0.715344
0.715333
0.715323
0.715312
0.715301
0.71529
0.715279
0.715268
0.715257
0.715246
0.715235
0.715224
0.715213
0.715203
0.715192
0.715181
0.71517
0.715159
0.715148
0.715137
0.715126
0.715115
0.715104
0.715093
0.715082
0.715071
0.71506
0.715049
0.715038
0.715027
0.715016
0.715005
0.714994
0.714983
0.714972
0.714961
0.71495
0.714939
0.714928
0.714917
0.714906
0.714895
0.714884
0.714873
0.714862
0.714851
0.71484
0.714829
0.714818
0.714807
0.714796
0.714785
0.714774
0.714763
0.714752
0.714741
0.71473
0.71472
0.714709
0.714698
0.714687
0.714676
0.714665
0.714654
0.714643
0.714632
0.714621
0.71461
0.714599
0.714588
0.714577
0.714566
0.714555
0.714544
0.714533
0.714522
0.714511
0.7145
0.714489
0.714478
0.714467
0.714456
0.714445
0.714434
0.714423
0.714412
0.714401
0.71439
0.714379
0.714368
0.714357
0.714346
0.714335
0.714324
0.714313
0.714302
0.714291
0.712756
0.712732
0.712726
0.712727
0.712729
0.71273
0.712732
0.712733
0.712734
0.712736
0.71274
0.712745
0.712753
0.712764
0.712778
0.712797
0.71282
0.712848
0.712882
0.712921
0.712967
0.713017
0.713073
0.713134
0.713198
0.713266
0.713336
0.713407
0.713479
0.71355
0.713618
0.713683
0.713743
0.713796
0.713843
0.713883
0.713916
0.713941
0.71396
0.713973
0.713981
0.713986
0.713988
0.713987
0.713987
0.713987
0.713989
0.713994
0.714003
0.714016
0.714034
0.714057
0.714085
0.714119
0.71416
0.714206
0.714258
0.714316
0.714379
0.714445
0.714516
0.714589
0.714664
0.71474
0.714816
0.714891
0.714964
0.715035
0.715102
0.715165
0.715223
0.715277
0.715326
0.715369
0.715407
0.71544
0.715467
0.71549
0.715507
0.71552
0.715529
0.715533
0.715534
0.715532
0.715528
0.715521
0.715513
0.715504
0.715495
0.715485
0.715474
0.715464
0.715454
0.715444
0.715434
0.715424
0.715414
0.715404
0.715394
0.715384
0.715374
0.715364
0.715354
0.715344
0.715333
0.715323
0.715312
0.715301
0.71529
0.715279
0.715268
0.715258
0.715247
0.715236
0.715225
0.715214
0.715203
0.715192
0.715181
0.71517
0.715159
0.715148
0.715137
0.715126
0.715115
0.715104
0.715093
0.715082
0.715071
0.71506
0.715049
0.715038
0.715027
0.715016
0.715005
0.714994
0.714983
0.714972
0.714961
0.71495
0.714939
0.714928
0.714917
0.714906
0.714895
0.714884
0.714873
0.714862
0.714851
0.71484
0.714829
0.714818
0.714807
0.714796
0.714785
0.714774
0.714763
0.714752
0.714741
0.71473
0.71472
0.714709
0.714698
0.714687
0.714676
0.714665
0.714654
0.714643
0.714632
0.714621
0.71461
0.714599
0.714588
0.714577
0.714566
0.714555
0.714544
0.714533
0.714522
0.714511
0.7145
0.714489
0.714478
0.714467
0.714456
0.714445
0.714434
0.714423
0.714412
0.714401
0.71439
0.714379
0.714368
0.714357
0.714346
0.714335
0.714324
0.714313
0.714302
0.714291
0.712825
0.712797
0.712784
0.712778
0.712775
0.712774
0.712775
0.712777
0.71278
0.712785
0.712793
0.712803
0.712817
0.712835
0.712856
0.712883
0.712914
0.71295
0.712992
0.713039
0.713091
0.713147
0.713208
0.713271
0.713336
0.713401
0.713466
0.71353
0.713592
0.713651
0.713706
0.713754
0.713796
0.713833
0.713864
0.71389
0.713912
0.713929
0.713941
0.713948
0.713952
0.713954
0.713957
0.71396
0.713964
0.713969
0.713975
0.713982
0.713993
0.714006
0.714024
0.714047
0.714076
0.714111
0.714152
0.714199
0.714252
0.714311
0.714375
0.714443
0.714516
0.714591
0.714669
0.714747
0.714826
0.714904
0.71498
0.715054
0.715124
0.71519
0.715251
0.715307
0.715358
0.715402
0.715441
0.715473
0.7155
0.71552
0.715535
0.715545
0.71555
0.715552
0.715549
0.715544
0.715536
0.715527
0.715517
0.715506
0.715495
0.715483
0.715472
0.715461
0.715451
0.715441
0.715431
0.715421
0.715412
0.715402
0.715393
0.715383
0.715373
0.715363
0.715353
0.715343
0.715333
0.715322
0.715312
0.715301
0.71529
0.715279
0.715269
0.715258
0.715247
0.715236
0.715225
0.715214
0.715203
0.715192
0.715181
0.71517
0.715159
0.715148
0.715137
0.715126
0.715115
0.715104
0.715093
0.715082
0.715071
0.71506
0.715049
0.715038
0.715027
0.715016
0.715005
0.714994
0.714983
0.714972
0.714961
0.71495
0.714939
0.714928
0.714917
0.714906
0.714895
0.714884
0.714873
0.714862
0.714851
0.71484
0.714829
0.714818
0.714807
0.714796
0.714785
0.714774
0.714763
0.714752
0.714741
0.71473
0.71472
0.714709
0.714698
0.714687
0.714676
0.714665
0.714654
0.714643
0.714632
0.714621
0.71461
0.714599
0.714588
0.714577
0.714566
0.714555
0.714544
0.714533
0.714522
0.714511
0.7145
0.714489
0.714478
0.714467
0.714456
0.714445
0.714434
0.714423
0.714412
0.714401
0.71439
0.714379
0.714368
0.714357
0.714346
0.714335
0.714324
0.714313
0.714302
0.714291
0.712892
0.712864
0.712847
0.712835
0.712828
0.712824
0.712823
0.712824
0.712829
0.712836
0.712847
0.712862
0.712881
0.712904
0.712932
0.712965
0.713003
0.713046
0.713095
0.713148
0.713204
0.713264
0.713326
0.713388
0.713449
0.713507
0.713563
0.713617
0.713668
0.713716
0.713759
0.713797
0.713828
0.713853
0.713871
0.713884
0.713894
0.713904
0.713915
0.713927
0.713939
0.713948
0.713956
0.713961
0.713966
0.71397
0.713975
0.713982
0.713993
0.714007
0.714025
0.714049
0.714079
0.714114
0.714156
0.714203
0.714257
0.714317
0.714382
0.714451
0.714524
0.714601
0.714679
0.714759
0.71484
0.714919
0.714997
0.715072
0.715143
0.71521
0.715273
0.715329
0.71538
0.715425
0.715463
0.715495
0.71552
0.71554
0.715553
0.715561
0.715564
0.715563
0.715559
0.715552
0.715542
0.715531
0.715519
0.715507
0.715495
0.715482
0.715471
0.71546
0.715449
0.715439
0.715429
0.715419
0.71541
0.715401
0.715392
0.715382
0.715373
0.715363
0.715353
0.715343
0.715333
0.715322
0.715312
0.715301
0.71529
0.715279
0.715269
0.715258
0.715247
0.715236
0.715225
0.715214
0.715203
0.715192
0.715181
0.71517
0.715159
0.715148
0.715137
0.715126
0.715115
0.715104
0.715093
0.715082
0.715071
0.71506
0.715049
0.715038
0.715027
0.715016
0.715005
0.714994
0.714983
0.714972
0.714961
0.71495
0.714939
0.714928
0.714917
0.714906
0.714895
0.714884
0.714873
0.714862
0.714851
0.71484
0.714829
0.714818
0.714807
0.714796
0.714785
0.714774
0.714763
0.714752
0.714741
0.71473
0.71472
0.714709
0.714698
0.714687
0.714676
0.714665
0.714654
0.714643
0.714632
0.714621
0.71461
0.714599
0.714588
0.714577
0.714566
0.714555
0.714544
0.714533
0.714522
0.714511
0.7145
0.714489
0.714478
0.714467
0.714456
0.714445
0.714434
0.714423
0.714412
0.714401
0.71439
0.714379
0.714368
0.714357
0.714346
0.714335
0.714324
0.714313
0.714302
0.714291
0.712939
0.712912
0.712893
0.712878
0.712868
0.712861
0.712858
0.712859
0.712864
0.712873
0.712887
0.712905
0.712927
0.712955
0.712987
0.713024
0.713066
0.713113
0.713164
0.713219
0.713277
0.713337
0.713398
0.713458
0.713515
0.713568
0.713617
0.713662
0.713703
0.713737
0.713764
0.713783
0.713801
0.71382
0.713842
0.713865
0.713887
0.713906
0.713921
0.713933
0.713941
0.713947
0.713953
0.713958
0.713963
0.713969
0.713976
0.713985
0.713997
0.714013
0.714033
0.714057
0.714088
0.714124
0.714166
0.714215
0.714269
0.714329
0.714394
0.714464
0.714538
0.714615
0.714694
0.714774
0.714855
0.714935
0.715012
0.715088
0.715159
0.715227
0.715289
0.715345
0.715396
0.71544
0.715477
0.715508
0.715532
0.71555
0.715563
0.715569
0.715571
0.715569
0.715563
0.715555
0.715544
0.715532
0.71552
0.715507
0.715494
0.715482
0.71547
0.715459
0.715448
0.715438
0.715428
0.715419
0.715409
0.7154
0.715391
0.715382
0.715372
0.715362
0.715353
0.715343
0.715332
0.715322
0.715312
0.715301
0.71529
0.715279
0.715269
0.715258
0.715247
0.715236
0.715225
0.715214
0.715203
0.715192
0.715181
0.71517
0.715159
0.715148
0.715137
0.715126
0.715115
0.715104
0.715093
0.715082
0.715071
0.71506
0.715049
0.715038
0.715027
0.715016
0.715005
0.714994
0.714983
0.714972
0.714961
0.71495
0.714939
0.714928
0.714917
0.714906
0.714895
0.714884
0.714873
0.714862
0.714851
0.71484
0.714829
0.714818
0.714807
0.714796
0.714785
0.714774
0.714763
0.714752
0.714741
0.71473
0.71472
0.714709
0.714698
0.714687
0.714676
0.714665
0.714654
0.714643
0.714632
0.714621
0.71461
0.714599
0.714588
0.714577
0.714566
0.714555
0.714544
0.714533
0.714522
0.714511
0.7145
0.714489
0.714478
0.714467
0.714456
0.714445
0.714434
0.714423
0.714412
0.714401
0.71439
0.714379
0.714368
0.714357
0.714346
0.714335
0.714324
0.714313
0.714302
0.714291
0.712967
0.712941
0.712919
0.712902
0.71289
0.712882
0.712878
0.712878
0.712884
0.712894
0.712909
0.712929
0.712954
0.712983
0.713018
0.713057
0.713101
0.713149
0.713201
0.713256
0.713313
0.713371
0.713427
0.713478
0.713523
0.713563
0.713599
0.713635
0.713673
0.713711
0.713748
0.71378
0.713808
0.713832
0.713853
0.713871
0.713886
0.7139
0.713913
0.713925
0.713935
0.713944
0.713951
0.713957
0.713964
0.71397
0.713978
0.713988
0.714001
0.714018
0.714039
0.714064
0.714095
0.714132
0.714175
0.714224
0.714279
0.714339
0.714405
0.714475
0.714549
0.714626
0.714705
0.714785
0.714865
0.714945
0.715023
0.715097
0.715169
0.715235
0.715297
0.715353
0.715403
0.715446
0.715483
0.715513
0.715536
0.715553
0.715565
0.715571
0.715572
0.715569
0.715563
0.715554
0.715544
0.715532
0.715519
0.715506
0.715494
0.715481
0.71547
0.715458
0.715448
0.715438
0.715428
0.715418
0.715409
0.7154
0.715391
0.715381
0.715372
0.715362
0.715352
0.715342
0.715332
0.715322
0.715312
0.715301
0.71529
0.715279
0.715269
0.715258
0.715247
0.715236
0.715225
0.715214
0.715203
0.715192
0.715181
0.71517
0.715159
0.715148
0.715137
0.715126
0.715115
0.715104
0.715093
0.715082
0.715071
0.71506
0.715049
0.715038
0.715027
0.715016
0.715005
0.714994
0.714983
0.714972
0.714961
0.71495
0.714939
0.714928
0.714917
0.714906
0.714895
0.714884
0.714873
0.714862
0.714851
0.71484
0.714829
0.714818
0.714807
0.714796
0.714785
0.714774
0.714763
0.714752
0.714741
0.71473
0.71472
0.714709
0.714698
0.714687
0.714676
0.714665
0.714654
0.714643
0.714632
0.714621
0.71461
0.714599
0.714588
0.714577
0.714566
0.714555
0.714544
0.714533
0.714522
0.714511
0.7145
0.714489
0.714478
0.714467
0.714456
0.714445
0.714434
0.714423
0.714412
0.714401
0.71439
0.714379
0.714368
0.714357
0.714346
0.714335
0.714324
0.714313
0.714302
0.714291
0.712975
0.712947
0.712923
0.712904
0.71289
0.712881
0.712876
0.712877
0.712882
0.712893
0.712908
0.712927
0.712951
0.71298
0.713013
0.71305
0.713091
0.713136
0.713185
0.713236
0.71329
0.713346
0.713401
0.713454
0.713505
0.713552
0.713596
0.713638
0.713678
0.713715
0.713747
0.713774
0.713798
0.713821
0.713843
0.713863
0.713882
0.713898
0.713911
0.713923
0.713932
0.71394
0.713947
0.713954
0.713961
0.713968
0.713977
0.713988
0.714002
0.71402
0.714042
0.714068
0.714101
0.714139
0.714182
0.714232
0.714287
0.714348
0.714414
0.714485
0.714559
0.714636
0.714715
0.714795
0.714876
0.714955
0.715032
0.715107
0.715177
0.715243
0.715304
0.715359
0.715408
0.71545
0.715486
0.715515
0.715537
0.715554
0.715564
0.71557
0.715571
0.715568
0.715562
0.715553
0.715543
0.715531
0.715518
0.715506
0.715493
0.715481
0.71547
0.715458
0.715448
0.715438
0.715428
0.715418
0.715409
0.7154
0.715391
0.715381
0.715372
0.715362
0.715352
0.715342
0.715332
0.715322
0.715311
0.715301
0.71529
0.715279
0.715269
0.715258
0.715247
0.715236
0.715225
0.715214
0.715203
0.715192
0.715181
0.71517
0.715159
0.715148
0.715137
0.715126
0.715115
0.715104
0.715093
0.715082
0.715071
0.71506
0.715049
0.715038
0.715027
0.715016
0.715005
0.714994
0.714983
0.714972
0.714961
0.71495
0.714939
0.714928
0.714917
0.714906
0.714895
0.714884
0.714873
0.714862
0.714851
0.71484
0.714829
0.714818
0.714807
0.714796
0.714785
0.714774
0.714763
0.714752
0.714741
0.71473
0.71472
0.714709
0.714698
0.714687
0.714676
0.714665
0.714654
0.714643
0.714632
0.714621
0.71461
0.714599
0.714588
0.714577
0.714566
0.714555
0.714544
0.714533
0.714522
0.714511
0.7145
0.714489
0.714478
0.714467
0.714456
0.714445
0.714434
0.714423
0.714412
0.714401
0.71439
0.714379
0.714368
0.714357
0.714346
0.714335
0.714324
0.714313
0.714302
0.714291
)
;

boundaryField
{
    inlet
    {
        type            zeroGradient;
    }
    outlet
    {