/*--------------------------------*- C++ -*----------------------------------*\
| =========                 |                                                 |
| \\      /  F ield         | OpenFOAM: The Open Source CFD Toolbox           |
|  \\    /   O peration     | Version:  4.1                                   |
|   \\  /    A nd           | Web:      www.OpenFOAM.org                      |
|    \\/     M anipulation  |                                                 |
\*---------------------------------------------------------------------------*/
FoamFile
{
    version     2.0;
    format      ascii;
    class       volScalarField;
    location    "3810";
    object      p;
}
// * * * * * * * * * * * * * * * * * * * * * * * * * * * * * * * * * * * * * //

dimensions      [1 -1 -2 0 0 0 0];

internalField   nonuniform List<scalar> 
1275
(
0.712254
0.712206
0.7122
0.712157
0.712144
0.712101
0.712085
0.712034
0.712019
0.71195
0.712267
0.712215
0.712209
0.712164
0.712153
0.712109
0.712097
0.712051
0.712042
0.711996
0.712284
0.71223
0.712225
0.712178
0.712168
0.712125
0.712113
0.71207
0.712058
0.712019
0.712304
0.712248
0.712244
0.712196
0.712189
0.712146
0.712137
0.712097
0.71209
0.712056
0.712323
0.712267
0.712263
0.712216
0.712209
0.712168
0.712158
0.712122
0.712112
0.712082
0.712339
0.712284
0.71228
0.712235
0.712227
0.712188
0.712179
0.712145
0.712135
0.712107
0.712347
0.712295
0.71229
0.712247
0.712239
0.712202
0.712192
0.71216
0.712148
0.712121
0.71235
0.712301
0.712296
0.712255
0.712246
0.712211
0.712199
0.712169
0.712156
0.71213
0.712343
0.712301
0.712295
0.712256
0.712246
0.712212
0.7122
0.71217
0.712157
0.712131
0.712074
0.71208
0.712086
0.712092
0.712098
0.712105
0.712112
0.712119
0.712126
0.712134
0.712142
0.71215
0.712159
0.712168
0.712178
0.712188
0.712198
0.712209
0.71222
0.712232
0.712245
0.712258
0.712272
0.712286
0.712302
0.712318
0.712335
0.712353
0.712372
0.712392
0.712414
0.712436
0.71246
0.712486
0.712513
0.712541
0.71257
0.712601
0.712634
0.712667
0.712702
0.712738
0.712774
0.712811
0.712848
0.712885
0.712921
0.712957
0.712991
0.713024
0.713055
0.713084
0.713111
0.713135
0.713157
0.713177
0.713194
0.713208
0.71322
0.71323
0.713239
0.713245
0.713251
0.713255
0.713258
0.71326
0.713262
0.713263
0.713264
0.713265
0.713266
0.713267
0.713269
0.71327
0.713272
0.713274
0.713276
0.713278
0.711926
0.711978
0.711971
0.711993
0.711987
0.711996
0.711992
0.711996
0.711993
0.711995
0.711993
0.711994
0.711993
0.711994
0.711993
0.711994
0.711994
0.711994
0.711995
0.711996
0.711996
0.711998
0.711999
0.712
0.712002
0.712004
0.712006
0.712008
0.71201
0.712013
0.712016
0.712019
0.712022
0.712025
0.712028
0.712032
0.712036
0.71204
0.712044
0.712049
0.712054
0.712059
0.712064
0.71207
0.712074
0.712082
0.712087
0.712094
0.7121
0.712108
0.712115
0.712123
0.712131
0.712139
0.712148
0.712157
0.712167
0.712177
0.712187
0.712198
0.71221
0.712222
0.712234
0.712248
0.712261
0.712276
0.712291
0.712307
0.712324
0.712341
0.71236
0.712379
0.712399
0.712421
0.712443
0.712466
0.712491
0.712516
0.712543
0.712571
0.712599
0.712629
0.71266
0.712691
0.712723
0.712755
0.712788
0.712821
0.712853
0.712885
0.712917
0.712947
0.712976
0.713004
0.71303
0.713054
0.713076
0.713096
0.713114
0.713129
0.713143
0.713155
0.713166
0.713175
0.713182
0.713188
0.713194
0.713198
0.713202
0.713206
0.713209
0.713211
0.713214
0.713217
0.71322
0.713223
0.713226
0.713229
0.713233
0.713236
0.71324
0.713244
0.713248
0.712
0.712004
0.711998
0.712003
0.711997
0.712
0.711995
0.711996
0.711993
0.711994
0.711992
0.711993
0.711992
0.711992
0.711992
0.711993
0.711993
0.711994
0.711995
0.711996
0.711997
0.711998
0.712
0.712001
0.712003
0.712005
0.712008
0.71201
0.712013
0.712016
0.712019
0.712022
0.712025
0.712029
0.712033
0.712037
0.712042
0.712046
0.712051
0.712056
0.712061
0.712067
0.712073
0.712079
0.712086
0.712092
0.712099
0.712107
0.712115
0.712123
0.712131
0.71214
0.71215
0.712159
0.71217
0.71218
0.712192
0.712203
0.712216
0.712228
0.712242
0.712256
0.712271
0.712286
0.712302
0.712319
0.712336
0.712355
0.712374
0.712394
0.712414
0.712436
0.712458
0.712481
0.712505
0.71253
0.712556
0.712582
0.71261
0.712637
0.712666
0.712694
0.712724
0.712753
0.712782
0.712811
0.71284
0.712868
0.712896
0.712923
0.712948
0.712972
0.712995
0.713016
0.713036
0.713054
0.71307
0.713085
0.713098
0.71311
0.71312
0.713129
0.713137
0.713144
0.71315
0.713156
0.713161
0.713165
0.71317
0.713174
0.713178
0.713183
0.713187
0.713191
0.713196
0.7132
0.713204
0.713209
0.713214
0.713218
0.713223
0.713228
0.713233
0.712009
0.712009
0.712003
0.712008
0.712003
0.712006
0.712002
0.712003
0.712
0.712
0.711998
0.711998
0.711996
0.711996
0.711996
0.711996
0.711996
0.711996
0.711997
0.711998
0.711999
0.712
0.712002
0.712003
0.712005
0.712008
0.71201
0.712013
0.712016
0.712019
0.712023
0.712026
0.71203
0.712034
0.712039
0.712044
0.712048
0.712054
0.712059
0.712065
0.712071
0.712078
0.712084
0.712091
0.712099
0.712107
0.712115
0.712123
0.712132
0.712142
0.712152
0.712162
0.712173
0.712184
0.712196
0.712208
0.712221
0.712235
0.712249
0.712264
0.712279
0.712296
0.712312
0.71233
0.712348
0.712367
0.712387
0.712407
0.712428
0.71245
0.712473
0.712496
0.71252
0.712544
0.712569
0.712595
0.712621
0.712648
0.712674
0.712701
0.712728
0.712755
0.712782
0.712808
0.712834
0.71286
0.712884
0.712908
0.712931
0.712952
0.712973
0.712992
0.71301
0.713026
0.713041
0.713055
0.713067
0.713078
0.713088
0.713097
0.713106
0.713113
0.713121
0.713127
0.713133
0.713139
0.713145
0.71315
0.713156
0.713161
0.713166
0.713171
0.713176
0.713181
0.713186
0.713191
0.713196
0.713201
0.713206
0.713211
0.713217
0.713222
0.713228
0.712054
0.712041
0.712035
0.71203
0.712023
0.712019
0.712014
0.712011
0.712007
0.712004
0.712001
0.712
0.711998
0.711997
0.711996
0.711996
0.711996
0.711996
0.711997
0.711998
0.711999
0.712001
0.712003
0.712005
0.712007
0.71201
0.712013
0.712016
0.71202
0.712023
0.712027
0.712031
0.712036
0.712041
0.712046
0.712051
0.712057
0.712063
0.712069
0.712075
0.712082
0.71209
0.712097
0.712105
0.712114
0.712123
0.712132
0.712142
0.712152
0.712163
0.712174
0.712186
0.712198
0.712211
0.712224
0.712238
0.712253
0.712268
0.712284
0.712301
0.712318
0.712336
0.712355
0.712375
0.712395
0.712415
0.712437
0.712459
0.712481
0.712505
0.712528
0.712553
0.712577
0.712602
0.712627
0.712653
0.712679
0.712704
0.71273
0.712755
0.71278
0.712805
0.712829
0.712852
0.712875
0.712897
0.712917
0.712937
0.712956
0.712973
0.71299
0.713005
0.713019
0.713032
0.713044
0.713055
0.713066
0.713075
0.713084
0.713093
0.713101
0.713108
0.713115
0.713121
0.713127
0.713133
0.713139
0.713145
0.71315
0.713156
0.713161
0.713167
0.713172
0.713178
0.713183
0.713188
0.713194
0.713199
0.713204
0.71321
0.713215
0.713221
0.713226
0.712073
0.712056
0.712049
0.712039
0.712033
0.712027
0.712021
0.712017
0.712012
0.712009
0.712005
0.712003
0.712001
0.711999
0.711998
0.711997
0.711997
0.711997
0.711998
0.711999
0.712
0.712002
0.712004
0.712006
0.712009
0.712012
0.712015
0.712019
0.712022
0.712027
0.712031
0.712036
0.712041
0.712046
0.712051
0.712057
0.712064
0.71207
0.712077
0.712084
0.712092
0.7121
0.712109
0.712118
0.712127
0.712137
0.712147
0.712158
0.712169
0.712181
0.712193
0.712206
0.71222
0.712234
0.712249
0.712264
0.71228
0.712297
0.712314
0.712332
0.712351
0.71237
0.71239
0.712411
0.712432
0.712454
0.712476
0.712499
0.712523
0.712547
0.712571
0.712595
0.71262
0.712645
0.712669
0.712694
0.712719
0.712743
0.712767
0.712791
0.712813
0.712836
0.712857
0.712878
0.712898
0.712917
0.712935
0.712952
0.712968
0.712983
0.712997
0.713011
0.713023
0.713035
0.713045
0.713055
0.713065
0.713073
0.713081
0.713089
0.713097
0.713104
0.713111
0.713118
0.713125
0.713131
0.713138
0.713144
0.71315
0.713155
0.713161
0.713166
0.713172
0.713177
0.713183
0.713188
0.713193
0.713199
0.713204
0.713209
0.713215
0.71322
0.713226
0.712099
0.712079
0.712071
0.712057
0.712049
0.712039
0.712032
0.712024
0.712019
0.712013
0.712009
0.712005
0.712003
0.712
0.711999
0.711998
0.711998
0.711998
0.711998
0.711999
0.712001
0.712003
0.712005
0.712007
0.71201
0.712014
0.712017
0.712021
0.712025
0.71203
0.712034
0.712039
0.712045
0.71205
0.712056
0.712063
0.71207
0.712077
0.712084
0.712092
0.7121
0.712109
0.712118
0.712128
0.712138
0.712148
0.712159
0.712171
0.712183
0.712195
0.712209
0.712222
0.712237
0.712252
0.712267
0.712284
0.712301
0.712318
0.712337
0.712355
0.712375
0.712395
0.712416
0.712437
0.712459
0.712481
0.712504
0.712527
0.712551
0.712575
0.712599
0.712623
0.712647
0.712671
0.712695
0.712719
0.712742
0.712765
0.712788
0.712809
0.712831
0.712851
0.712871
0.71289
0.712908
0.712926
0.712942
0.712957
0.712972
0.712986
0.712998
0.713011
0.713022
0.713033
0.713043
0.713053
0.713063
0.713072
0.713081
0.713089
0.713097
0.713104
0.713111
0.713118
0.713125
0.713131
0.713137
0.713143
0.713149
0.713155
0.71316
0.713166
0.713171
0.713177
0.713182
0.713188
0.713193
0.713199
0.713204
0.71321
0.713215
0.713221
0.713226
0.71211
0.712089
0.712079
0.712063
0.712054
0.712042
0.712035
0.712026
0.71202
0.712014
0.712009
0.712005
0.712002
0.712
0.711998
0.711997
0.711997
0.711997
0.711997
0.711998
0.712
0.712002
0.712004
0.712007
0.71201
0.712014
0.712017
0.712021
0.712026
0.71203
0.712035
0.712041
0.712046
0.712052
0.712059
0.712065
0.712072
0.71208
0.712088
0.712096
0.712104
0.712113
0.712123
0.712133
0.712143
0.712154
0.712165
0.712177
0.71219
0.712203
0.712216
0.71223
0.712245
0.712261
0.712277
0.712293
0.71231
0.712328
0.712347
0.712366
0.712386
0.712406
0.712427
0.712448
0.71247
0.712493
0.712515
0.712538
0.712562
0.712585
0.712609
0.712633
0.712656
0.71268
0.712703
0.712726
0.712749
0.712771
0.712793
0.712814
0.712834
0.712854
0.712872
0.71289
0.712908
0.712924
0.71294
0.712955
0.71297
0.712983
0.712997
0.713009
0.713021
0.713032
0.713043
0.713053
0.713062
0.713071
0.713079
0.713088
0.713095
0.713103
0.71311
0.713117
0.713124
0.71313
0.713136
0.713143
0.713149
0.713154
0.71316
0.713166
0.713171
0.713177
0.713182
0.713188
0.713193
0.713199
0.713204
0.713209
0.713215
0.713221
0.713226
0.712118
0.712097
0.712086
0.712069
0.71206
0.712046
0.712038
0.712028
0.712022
0.712015
0.712011
0.712006
0.712003
0.712
0.711999
0.711997
0.711997
0.711997
0.711998
0.711999
0.712
0.712002
0.712005
0.712007
0.712011
0.712014
0.712018
0.712022
0.712027
0.712031
0.712036
0.712042
0.712048
0.712054
0.71206
0.712067
0.712074
0.712081
0.712089
0.712098
0.712106
0.712115
0.712125
0.712135
0.712145
0.712157
0.712168
0.71218
0.712193
0.712206
0.71222
0.712234
0.712249
0.712264
0.71228
0.712297
0.712315
0.712333
0.712351
0.71237
0.71239
0.71241
0.712431
0.712453
0.712475
0.712497
0.712519
0.712542
0.712565
0.712588
0.712612
0.712635
0.712658
0.712681
0.712704
0.712727
0.712749
0.712771
0.712792
0.712813
0.712833
0.712853
0.712872
0.71289
0.712907
0.712924
0.71294
0.712955
0.712969
0.712983
0.712996
0.713008
0.71302
0.713031
0.713041
0.713051
0.713061
0.71307
0.713079
0.713087
0.713095
0.713103
0.71311
0.713117
0.713124
0.71313
0.713136
0.713142
0.713148
0.713154
0.71316
0.713166
0.713171
0.713177
0.713182
0.713188
0.713193
0.713199
0.713204
0.71321
0.713215
0.713221
0.713226
0.712119
0.712097
0.712085
0.712068
0.712058
0.712045
0.712037
0.712027
0.71202
0.712013
0.712008
0.712004
0.712001
0.711998
0.711996
0.711995
0.711995
0.711995
0.711995
0.711997
0.711998
0.712
0.712003
0.712006
0.712009
0.712012
0.712016
0.71202
0.712025
0.71203
0.712035
0.71204
0.712046
0.712052
0.712059
0.712065
0.712072
0.71208
0.712088
0.712096
0.712105
0.712114
0.712123
0.712133
0.712144
0.712155
0.712166
0.712178
0.712191
0.712204
0.712218
0.712232
0.712247
0.712262
0.712278
0.712295
0.712312
0.71233
0.712348
0.712367
0.712387
0.712407
0.712428
0.712449
0.712471
0.712493
0.712515
0.712538
0.712561
0.712584
0.712608
0.712631
0.712654
0.712677
0.7127
0.712723
0.712745
0.712767
0.712789
0.71281
0.71283
0.71285
0.712869
0.712887
0.712904
0.712921
0.712937
0.712952
0.712967
0.712981
0.712994
0.713007
0.713018
0.71303
0.71304
0.713051
0.71306
0.713069
0.713078
0.713086
0.713094
0.713102
0.713109
0.713116
0.713123
0.713129
0.713136
0.713142
0.713148
0.713154
0.71316
0.713165
0.713171
0.713176
0.713182
0.713187
0.713193
0.713198
0.713204
0.713209
0.713215
0.71322
0.713226
)
;

boundaryField
{
    inlet
    {
        type            zeroGradient;
    }
    outlet
    {
        type            fixedValue;
        value           nonuniform 0();
    }
    walls
    {
        type            zeroGradient;
    }
    symwall
    {
        type            empty;
    }
    procBoundary2to0
    {
        type            processor;
        value           nonuniform List<scalar> 
133
(
0.712071
0.712076
0.712081
0.712087
0.712093
0.712099
0.712105
0.712112
0.712119
0.712126
0.712133
0.712141
0.712149
0.712157
0.712166
0.712174
0.712184
0.712193
0.712203
0.712214
0.712225
0.712236
0.712249
0.712261
0.712275
0.712289
0.712304
0.71232
0.712338
0.712356
0.712375
0.712396
0.712418
0.712442
0.712467
0.712494
0.712523
0.712554
0.712586
0.71262
0.712656
0.712693
0.712732
0.712772
0.712813
0.712855
0.712897
0.712938
0.712979
0.713019
0.713057
0.713094
0.713128
0.71316
0.713189
0.713215
0.713239
0.713259
0.713276
0.713291
0.713303
0.713312
0.71332
0.713325
0.713329
0.713331
0.713332
0.713333
0.713332
0.713331
0.71333
0.713329
0.713328
0.713327
0.713326
0.713325
0.713325
0.712245
0.712203
0.712196
0.712155
0.712142
0.712099
0.712084
0.712033
0.712023
0.71195
0.711967
0.711994
0.711988
0.711993
0.711988
0.71199
0.711987
0.711989
0.711987
0.711988
0.711988
0.711989
0.711988
0.711989
0.711989
0.71199
0.711991
0.711992
0.711992
0.711994
0.711995
0.711996
0.711997
0.711999
0.712
0.712002
0.712004
0.712006
0.712009
0.712011
0.712014
0.712016
0.712019
0.712023
0.712026
0.712029
0.712033
0.712037
0.712041
0.712045
0.712049
0.712054
0.712059
0.712064
0.712069
0.712069
)
;
    }
    procBoundary2to1
    {
        type            processor;
        value           uniform 0.713325;
    }
    procBoundary2to3
    {
        type            processor;
        value           nonuniform List<scalar> 10(0.713281 0.713253 0.713239 0.713233 0.713232 0.713232 0.713232 0.713232 0.713232 0.713232);
    }
}


// ************************************************************************* //
