/*--------------------------------*- C++ -*----------------------------------*\
| =========                 |                                                 |
| \\      /  F ield         | OpenFOAM: The Open Source CFD Toolbox           |
|  \\    /   O peration     | Version:  4.1                                   |
|   \\  /    A nd           | Web:      www.OpenFOAM.org                      |
|    \\/     M anipulation  |                                                 |
\*---------------------------------------------------------------------------*/
FoamFile
{
    version     2.0;
    format      ascii;
    class       volScalarField;
    location    "5100";
    object      p;
}
// * * * * * * * * * * * * * * * * * * * * * * * * * * * * * * * * * * * * * //

dimensions      [1 -1 -2 0 0 0 0];

internalField   nonuniform List<scalar> 
1275
(
0.711993
0.711993
0.711992
0.711992
0.711991
0.711992
0.711991
0.711991
0.71199
0.711991
0.71199
0.71199
0.71199
0.711991
0.711991
0.711991
0.711992
0.711992
0.711993
0.711994
0.711995
0.711996
0.711997
0.711999
0.712
0.712002
0.712004
0.712006
0.712008
0.71201
0.712013
0.712015
0.712018
0.712021
0.712024
0.712028
0.712031
0.712035
0.712038
0.712042
0.712046
0.712051
0.712055
0.71206
0.712064
0.712069
0.712074
0.71208
0.712085
0.712091
0.712097
0.712103
0.712109
0.712115
0.712122
0.712129
0.712136
0.712143
0.71215
0.712158
0.712166
0.712174
0.712183
0.712192
0.712201
0.71221
0.71222
0.71223
0.712241
0.712252
0.712264
0.712276
0.71229
0.712303
0.712318
0.712334
0.71235
0.712368
0.712387
0.712408
0.712431
0.712455
0.712481
0.712509
0.71254
0.712573
0.712609
0.712648
0.712689
0.712733
0.712779
0.712829
0.71288
0.712934
0.71299
0.713047
0.713105
0.713164
0.713222
0.713279
0.713336
0.71339
0.713441
0.71349
0.713535
0.713575
0.713612
0.713645
0.713672
0.713696
0.713714
0.713729
0.713739
0.713745
0.713748
0.713748
0.713745
0.713739
0.713731
0.713722
0.713711
0.713699
0.711992
0.711992
0.711992
0.711992
0.711991
0.711992
0.711991
0.711992
0.711991
0.711991
0.711991
0.711991
0.711991
0.711992
0.711992
0.711992
0.711993
0.711993
0.711994
0.711995
0.711996
0.711997
0.711998
0.711999
0.712001
0.712003
0.712005
0.712007
0.712009
0.712011
0.712013
0.712016
0.712019
0.712022
0.712025
0.712028
0.712031
0.712035
0.712039
0.712043
0.712047
0.712051
0.712055
0.71206
0.712065
0.71207
0.712075
0.71208
0.712086
0.712091
0.712097
0.712103
0.712109
0.712116
0.712122
0.712129
0.712136
0.712144
0.712151
0.712159
0.712167
0.712175
0.712184
0.712192
0.712202
0.712211
0.712221
0.712231
0.712242
0.712253
0.712265
0.712278
0.712291
0.712304
0.712319
0.712335
0.712351
0.712369
0.712388
0.712409
0.712431
0.712455
0.71248
0.712508
0.712539
0.712571
0.712606
0.712644
0.712685
0.712729
0.712775
0.712824
0.712875
0.712929
0.712984
0.713041
0.713099
0.713158
0.713216
0.713273
0.71333
0.713384
0.713435
0.713484
0.713529
0.71357
0.713607
0.713639
0.713667
0.713691
0.713709
0.713724
0.713734
0.713741
0.713744
0.713743
0.71374
0.713735
0.713727
0.713718
0.713707
0.713695
0.711995
0.711995
0.711994
0.711994
0.711993
0.711993
0.711992
0.711992
0.711991
0.711991
0.711991
0.711991
0.711991
0.711991
0.711991
0.711992
0.711992
0.711993
0.711993
0.711994
0.711995
0.711997
0.711998
0.711999
0.712001
0.712002
0.712004
0.712006
0.712008
0.712011
0.712013
0.712016
0.712019
0.712021
0.712025
0.712028
0.712031
0.712035
0.712039
0.712042
0.712047
0.712051
0.712055
0.71206
0.712065
0.71207
0.712075
0.71208
0.712085
0.712091
0.712097
0.712103
0.712109
0.712116
0.712122
0.712129
0.712136
0.712143
0.712151
0.712159
0.712167
0.712175
0.712183
0.712192
0.712201
0.712211
0.712221
0.712231
0.712242
0.712253
0.712265
0.712277
0.71229
0.712303
0.712318
0.712333
0.71235
0.712367
0.712386
0.712406
0.712428
0.712452
0.712477
0.712505
0.712535
0.712567
0.712602
0.71264
0.71268
0.712723
0.71277
0.712818
0.71287
0.712923
0.712979
0.713036
0.713094
0.713152
0.713211
0.713268
0.713324
0.713379
0.71343
0.713479
0.713524
0.713565
0.713601
0.713634
0.713662
0.713685
0.713703
0.713718
0.713728
0.713734
0.713737
0.713737
0.713734
0.713728
0.713721
0.713711
0.713701
0.713689
0.711991
0.711991
0.71199
0.711992
0.71199
0.711992
0.711991
0.711992
0.711991
0.711992
0.711991
0.711991
0.711991
0.711992
0.711992
0.711992
0.711992
0.711993
0.711994
0.711995
0.711996
0.711997
0.711998
0.711999
0.712001
0.712002
0.712004
0.712006
0.712008
0.712011
0.712013
0.712016
0.712018
0.712021
0.712024
0.712028
0.712031
0.712035
0.712038
0.712042
0.712046
0.712051
0.712055
0.71206
0.712064
0.712069
0.712074
0.71208
0.712085
0.712091
0.712097
0.712103
0.712109
0.712115
0.712122
0.712129
0.712136
0.712143
0.712151
0.712158
0.712166
0.712175
0.712183
0.712192
0.712201
0.712211
0.712221
0.712231
0.712241
0.712252
0.712264
0.712276
0.712289
0.712303
0.712317
0.712332
0.712348
0.712365
0.712384
0.712404
0.712425
0.712448
0.712473
0.7125
0.71253
0.712561
0.712596
0.712633
0.712673
0.712716
0.712762
0.712811
0.712862
0.712915
0.712971
0.713027
0.713085
0.713143
0.713201
0.713259
0.713314
0.713368
0.713419
0.713467
0.713511
0.713552
0.713588
0.713619
0.713646
0.713669
0.713687
0.713701
0.713711
0.713717
0.713719
0.713719
0.713716
0.71371
0.713703
0.713694
0.713684
0.713673
0.711997
0.711996
0.711995
0.711995
0.711993
0.711993
0.711991
0.711991
0.71199
0.71199
0.71199
0.71199
0.71199
0.71199
0.71199
0.711991
0.711991
0.711992
0.711992
0.711993
0.711994
0.711995
0.711997
0.711998
0.712
0.712001
0.712003
0.712005
0.712007
0.71201
0.712012
0.712015
0.712018
0.712021
0.712024
0.712027
0.71203
0.712034
0.712038
0.712042
0.712046
0.71205
0.712054
0.712059
0.712064
0.712069
0.712074
0.712079
0.712085
0.71209
0.712096
0.712102
0.712108
0.712115
0.712121
0.712128
0.712135
0.712143
0.71215
0.712158
0.712166
0.712174
0.712182
0.712191
0.7122
0.71221
0.712219
0.71223
0.71224
0.712251
0.712262
0.712275
0.712287
0.7123
0.712315
0.71233
0.712345
0.712362
0.712381
0.7124
0.712422
0.712445
0.71247
0.712497
0.712526
0.712558
0.712592
0.71263
0.71267
0.712713
0.712758
0.712807
0.712858
0.712911
0.712966
0.713022
0.713079
0.713136
0.713193
0.713249
0.713304
0.713356
0.713406
0.713452
0.713494
0.713533
0.713568
0.713598
0.713623
0.713644
0.713661
0.713674
0.713683
0.713688
0.71369
0.71369
0.713686
0.713681
0.713674
0.713665
0.713656
0.713645
0.711985
0.711988
0.711985
0.711989
0.711987
0.71199
0.711988
0.71199
0.711989
0.71199
0.711989
0.71199
0.711989
0.71199
0.71199
0.711991
0.711991
0.711992
0.711992
0.711993
0.711994
0.711995
0.711996
0.711998
0.711999
0.712001
0.712003
0.712005
0.712007
0.712009
0.712012
0.712014
0.712017
0.71202
0.712023
0.712027
0.71203
0.712034
0.712037
0.712041
0.712045
0.71205
0.712054
0.712059
0.712063
0.712068
0.712073
0.712079
0.712084
0.71209
0.712096
0.712102
0.712108
0.712114
0.712121
0.712128
0.712135
0.712142
0.712149
0.712157
0.712165
0.712173
0.712182
0.71219
0.712199
0.712209
0.712218
0.712229
0.712239
0.71225
0.712261
0.712273
0.712286
0.712299
0.712313
0.712328
0.712344
0.712361
0.712379
0.712399
0.71242
0.712443
0.712468
0.712495
0.712525
0.712557
0.712591
0.712628
0.712668
0.712711
0.712757
0.712805
0.712855
0.712907
0.712961
0.713016
0.713072
0.713127
0.713182
0.713236
0.713288
0.713338
0.713384
0.713428
0.713468
0.713504
0.713535
0.713563
0.713586
0.713605
0.71362
0.713631
0.713639
0.713643
0.713644
0.713643
0.71364
0.713635
0.713628
0.71362
0.713612
0.713602
0.711996
0.711996
0.711993
0.711993
0.71199
0.71199
0.711988
0.711988
0.711987
0.711987
0.711987
0.711987
0.711987
0.711987
0.711988
0.711988
0.711989
0.71199
0.71199
0.711991
0.711992
0.711994
0.711995
0.711997
0.711998
0.712
0.712002
0.712004
0.712006
0.712008
0.712011
0.712014
0.712016
0.712019
0.712023
0.712026
0.712029
0.712033
0.712037
0.712041
0.712045
0.712049
0.712053
0.712058
0.712063
0.712068
0.712073
0.712078
0.712084
0.712089
0.712095
0.712101
0.712107
0.712114
0.71212
0.712127
0.712134
0.712141
0.712149
0.712156
0.712164
0.712173
0.712181
0.71219
0.712199
0.712208
0.712218
0.712228
0.712238
0.712249
0.712261
0.712273
0.712285
0.712299
0.712313
0.712328
0.712344
0.712362
0.71238
0.7124
0.712422
0.712445
0.712471
0.712499
0.712528
0.712561
0.712596
0.712633
0.712673
0.712716
0.712761
0.712808
0.712857
0.712908
0.71296
0.713013
0.713066
0.713119
0.713171
0.713221
0.713269
0.713315
0.713358
0.713397
0.713433
0.713465
0.713493
0.713517
0.713536
0.713552
0.713565
0.713574
0.71358
0.713583
0.713583
0.713582
0.713579
0.713574
0.713568
0.713561
0.713554
0.713546
0.711965
0.711979
0.711974
0.711984
0.711981
0.711987
0.711985
0.711988
0.711986
0.711988
0.711987
0.711988
0.711988
0.711988
0.711988
0.711989
0.711989
0.71199
0.711991
0.711992
0.711993
0.711994
0.711995
0.711997
0.711998
0.712
0.712002
0.712004
0.712006
0.712008
0.712011
0.712013
0.712016
0.712019
0.712022
0.712026
0.712029
0.712033
0.712036
0.712041
0.712044
0.712049
0.712053
0.712058
0.712062
0.712068
0.712073
0.712078
0.712083
0.712089
0.712095
0.712101
0.712107
0.712114
0.71212
0.712127
0.712134
0.712141
0.712149
0.712157
0.712165
0.712173
0.712181
0.71219
0.712199
0.712209
0.712219
0.712229
0.71224
0.712251
0.712263
0.712275
0.712288
0.712302
0.712317
0.712332
0.712349
0.712367
0.712386
0.712407
0.712429
0.712454
0.71248
0.712508
0.712538
0.712571
0.712606
0.712644
0.712684
0.712726
0.71277
0.712816
0.712863
0.712912
0.712961
0.713011
0.71306
0.713109
0.713156
0.713202
0.713245
0.713285
0.713323
0.713357
0.713387
0.713414
0.713437
0.713457
0.713473
0.713485
0.713495
0.713501
0.713506
0.713508
0.713508
0.713506
0.713503
0.713499
0.713495
0.713489
0.713484
0.713478
0.711989
0.711996
0.711988
0.71199
0.711985
0.711987
0.711984
0.711985
0.711984
0.711985
0.711984
0.711985
0.711985
0.711986
0.711986
0.711987
0.711988
0.711989
0.71199
0.711991
0.711992
0.711993
0.711995
0.711996
0.711998
0.712
0.712002
0.712004
0.712006
0.712008
0.712011
0.712014
0.712016
0.712019
0.712022
0.712026
0.712029
0.712033
0.712037
0.712041
0.712045
0.712049
0.712054
0.712058
0.712063
0.712068
0.712073
0.712079
0.712084
0.71209
0.712096
0.712102
0.712108
0.712115
0.712121
0.712128
0.712135
0.712143
0.712151
0.712159
0.712167
0.712175
0.712184
0.712193
0.712203
0.712213
0.712223
0.712234
0.712245
0.712257
0.712269
0.712282
0.712296
0.712311
0.712327
0.712343
0.712361
0.71238
0.712401
0.712423
0.712446
0.712472
0.712499
0.712528
0.712559
0.712592
0.712628
0.712665
0.712704
0.712745
0.712788
0.712832
0.712876
0.712922
0.712967
0.713012
0.713057
0.7131
0.713141
0.713181
0.713217
0.713251
0.713282
0.71331
0.713335
0.713356
0.713374
0.713389
0.713401
0.71341
0.713417
0.713421
0.713424
0.713425
0.713425
0.713424
0.713422
0.713419
0.713417
0.713413
0.71341
0.713407
0.711886
0.711968
0.711962
0.711987
0.711981
0.71199
0.711987
0.711991
0.711989
0.71199
0.711989
0.71199
0.711989
0.71199
0.71199
0.71199
0.711991
0.711991
0.711992
0.711993
0.711994
0.711995
0.711996
0.711998
0.711999
0.712001
0.712003
0.712005
0.712007
0.712009
0.712012
0.712014
0.712017
0.71202
0.712023
0.712027
0.71203
0.712034
0.712038
0.712042
0.712046
0.71205
0.712054
0.71206
0.712064
0.71207
0.712075
0.71208
0.712086
0.712092
0.712098
0.712104
0.712111
0.712118
0.712125
0.712132
0.712139
0.712147
0.712155
0.712164
0.712172
0.712181
0.712191
0.712201
0.712211
0.712222
0.712233
0.712245
0.712257
0.71227
0.712284
0.712298
0.712313
0.712329
0.712346
0.712365
0.712384
0.712404
0.712426
0.71245
0.712475
0.712501
0.71253
0.71256
0.712591
0.712625
0.71266
0.712696
0.712734
0.712773
0.712813
0.712854
0.712895
0.712936
0.712976
0.713016
0.713054
0.71309
0.713125
0.713157
0.713187
0.713214
0.713238
0.713259
0.713278
0.713293
0.713307
0.713317
0.713326
0.713333
0.713337
0.713341
0.713343
0.713344
0.713345
0.713344
0.713344
0.713343
0.713342
0.713342
0.713341
0.713341
0.712244
0.712202
0.712195
0.712154
0.712141
0.712098
0.712083
0.712032
0.712022
0.711949
0.711966
0.711993
0.711987
0.711992
0.711987
0.711989
0.711986
0.711988
0.711986
0.711987
0.711987
0.711988
0.711987
0.711988
0.711988
0.711989
0.71199
0.711991
0.711991
0.711993
0.711994
0.711995
0.711996
0.711998
0.711999
0.712001
0.712003
0.712005
0.712008
0.71201
0.712013
0.712015
0.712018
0.712022
0.712025
0.712028
0.712032
0.712036
0.71204
0.712044
0.712048
0.712053
0.712057
0.712062
0.712068
)
;

boundaryField
{
    inlet
    {
        type            zeroGradient;
    }
    outlet
    {
        type            fixedValue;
        value           nonuniform 0();
    }
    walls
    {
        type            zeroGradient;
    }
    symwall
    {
        type            empty;
    }
    procBoundary0to1
    {
        type            processor;
        value           nonuniform List<scalar> 10(0.713686 0.713683 0.713677 0.713661 0.713634 0.713592 0.713538 0.713473 0.713404 0.713341);
    }
    procBoundary0to2
    {
        type            processor;
        value           nonuniform List<scalar> 
133
(
0.712073
0.712078
0.712084
0.71209
0.712097
0.712103
0.71211
0.712117
0.712124
0.712132
0.71214
0.712148
0.712157
0.712165
0.712175
0.712184
0.712194
0.712205
0.712216
0.712228
0.71224
0.712252
0.712265
0.712279
0.712294
0.712309
0.712326
0.712343
0.712361
0.71238
0.7124
0.712421
0.712444
0.712467
0.712492
0.712519
0.712546
0.712575
0.712606
0.712638
0.712671
0.712705
0.712739
0.712775
0.712811
0.712848
0.712884
0.71292
0.712955
0.712989
0.713022
0.713053
0.713083
0.71311
0.713135
0.713158
0.713178
0.713196
0.713212
0.713225
0.713236
0.713245
0.713253
0.713259
0.713264
0.713268
0.713271
0.713273
0.713275
0.713277
0.713278
0.71328
0.713281
0.713282
0.713284
0.713286
0.713288
0.712253
0.712205
0.712199
0.712156
0.712143
0.7121
0.712084
0.712033
0.712018
0.711949
0.711926
0.711977
0.71197
0.711992
0.711987
0.711995
0.711992
0.711995
0.711993
0.711994
0.711992
0.711993
0.711992
0.711993
0.711992
0.711993
0.711993
0.711993
0.711994
0.711995
0.711995
0.711997
0.711998
0.711999
0.712001
0.712003
0.712005
0.712007
0.712009
0.712012
0.712014
0.712017
0.71202
0.712024
0.712027
0.712031
0.712035
0.712039
0.712043
0.712048
0.712052
0.712057
0.712062
0.712068
0.712073
0.712073
)
;
    }
}


// ************************************************************************* //
