/*--------------------------------*- C++ -*----------------------------------*\
| =========                 |                                                 |
| \\      /  F ield         | OpenFOAM: The Open Source CFD Toolbox           |
|  \\    /   O peration     | Version:  4.1                                   |
|   \\  /    A nd           | Web:      www.OpenFOAM.org                      |
|    \\/     M anipulation  |                                                 |
\*---------------------------------------------------------------------------*/
FoamFile
{
    version     2.0;
    format      ascii;
    class       volScalarField;
    location    "254";
    object      p;
}
// * * * * * * * * * * * * * * * * * * * * * * * * * * * * * * * * * * * * * //

dimensions      [1 -1 -2 0 0 0 0];

internalField   nonuniform List<scalar> 
3264
(
0.712524
0.712523
0.712522
0.712521
0.712521
0.712522
0.712523
0.712524
0.712526
0.712529
0.712533
0.712537
0.712543
0.712549
0.712555
0.712563
0.712572
0.712582
0.712593
0.712605
0.712619
0.712635
0.712653
0.712674
0.712698
0.712724
0.712755
0.712789
0.712827
0.71287
0.712917
0.712969
0.713025
0.713087
0.713153
0.713223
0.713297
0.713375
0.713456
0.713539
0.713624
0.71371
0.713796
0.713882
0.713966
0.714047
0.714125
0.7142
0.71427
0.714335
0.714394
0.714447
0.714494
0.714535
0.71457
0.714599
0.714622
0.71464
0.714653
0.714661
0.714666
0.714668
0.714667
0.714665
0.714661
0.714657
0.714652
0.714648
0.714643
0.71464
0.714637
0.714635
0.714633
0.714633
0.714633
0.714634
0.714636
0.714637
0.714639
0.714641
0.714644
0.714646
0.714647
0.714649
0.71465
0.714652
0.714653
0.714654
0.714654
0.714655
0.714655
0.714656
0.714656
0.714657
0.714658
0.714659
0.71466
0.714663
0.714666
0.71467
0.714675
0.714681
0.714689
0.714697
0.714708
0.714719
0.714732
0.714745
0.71476
0.714776
0.714792
0.714808
0.714825
0.714841
0.714857
0.714873
0.714888
0.714901
0.714913
0.714924
0.714934
0.714942
0.714948
0.714952
0.714955
0.714957
0.714956
0.714955
0.714952
0.714948
0.714942
0.714936
0.714929
0.714922
0.714913
0.714905
0.714895
0.714886
0.714877
0.714867
0.714857
0.714848
0.714838
0.714829
0.71482
0.714811
0.714802
0.714793
0.714784
0.714775
0.714767
0.714758
0.714749
0.71474
0.714731
0.714722
0.714713
0.714704
0.714695
0.714686
0.714676
0.714666
0.714657
0.714647
0.714637
0.714627
0.714617
0.714607
0.714597
0.714587
0.714577
0.714567
0.714557
0.714547
0.714537
0.714527
0.714518
0.714508
0.714498
0.714488
0.714478
0.714468
0.714458
0.714448
0.714439
0.714429
0.714419
0.714409
0.714399
0.714389
0.71438
0.71437
0.71436
0.71435
0.71434
0.71433
0.71432
0.714311
0.714301
0.714291
0.712526
0.712524
0.712524
0.712524
0.712524
0.712524
0.712525
0.712527
0.712529
0.712532
0.712535
0.71254
0.712545
0.712551
0.712558
0.712566
0.712574
0.712584
0.712595
0.712608
0.712622
0.712637
0.712655
0.712676
0.712699
0.712725
0.712754
0.712787
0.712825
0.712867
0.712913
0.712964
0.71302
0.71308
0.713146
0.713215
0.713289
0.713366
0.713447
0.71353
0.713615
0.7137
0.713786
0.713871
0.713955
0.714037
0.714115
0.71419
0.71426
0.714325
0.714384
0.714438
0.714485
0.714526
0.714561
0.71459
0.714614
0.714632
0.714645
0.714655
0.71466
0.714663
0.714663
0.714661
0.714658
0.714655
0.714651
0.714647
0.714644
0.714641
0.714639
0.714638
0.714637
0.714638
0.714638
0.714639
0.714641
0.714642
0.714644
0.714646
0.714647
0.714649
0.714651
0.714652
0.714653
0.714654
0.714655
0.714656
0.714656
0.714657
0.714657
0.714657
0.714657
0.714658
0.714658
0.714659
0.71466
0.714662
0.714665
0.714669
0.714674
0.71468
0.714687
0.714695
0.714705
0.714716
0.714729
0.714742
0.714757
0.714772
0.714789
0.714805
0.714822
0.714838
0.714854
0.71487
0.714885
0.714898
0.714911
0.714922
0.714932
0.71494
0.714946
0.714951
0.714954
0.714956
0.714956
0.714954
0.714952
0.714948
0.714943
0.714937
0.71493
0.714922
0.714914
0.714905
0.714896
0.714886
0.714877
0.714867
0.714858
0.714848
0.714839
0.714829
0.71482
0.714811
0.714802
0.714793
0.714784
0.714775
0.714766
0.714758
0.714749
0.71474
0.714731
0.714722
0.714713
0.714704
0.714695
0.714686
0.714676
0.714666
0.714657
0.714647
0.714637
0.714627
0.714617
0.714607
0.714597
0.714587
0.714577
0.714567
0.714557
0.714547
0.714537
0.714527
0.714518
0.714508
0.714498
0.714488
0.714478
0.714468
0.714458
0.714448
0.714439
0.714429
0.714419
0.714409
0.714399
0.714389
0.71438
0.71437
0.71436
0.71435
0.71434
0.71433
0.71432
0.714311
0.714301
0.714291
0.712527
0.712525
0.712524
0.712524
0.712523
0.712524
0.712525
0.712526
0.712528
0.712531
0.712535
0.712539
0.712544
0.71255
0.712557
0.712565
0.712573
0.712583
0.712594
0.712606
0.71262
0.712635
0.712652
0.712672
0.712694
0.71272
0.712749
0.712782
0.712818
0.71286
0.712905
0.712956
0.713011
0.713072
0.713137
0.713206
0.713279
0.713357
0.713437
0.71352
0.713604
0.71369
0.713776
0.713861
0.713944
0.714026
0.714104
0.714178
0.714248
0.714313
0.714372
0.714425
0.714472
0.714513
0.714548
0.714577
0.714601
0.714619
0.714632
0.714641
0.714647
0.71465
0.71465
0.714649
0.714646
0.714643
0.71464
0.714637
0.714634
0.714633
0.714632
0.714631
0.714632
0.714633
0.714635
0.714637
0.71464
0.714642
0.714645
0.714648
0.71465
0.714652
0.714653
0.714654
0.714655
0.714656
0.714657
0.714657
0.714658
0.714658
0.714658
0.714658
0.714658
0.714658
0.714659
0.714659
0.714661
0.714662
0.714665
0.714668
0.714673
0.714678
0.714685
0.714694
0.714703
0.714715
0.714727
0.71474
0.714755
0.71477
0.714786
0.714803
0.714819
0.714836
0.714852
0.714868
0.714883
0.714897
0.714909
0.714921
0.71493
0.714939
0.714945
0.71495
0.714953
0.714955
0.714955
0.714954
0.714951
0.714947
0.714942
0.714936
0.71493
0.714922
0.714914
0.714905
0.714896
0.714887
0.714877
0.714868
0.714858
0.714848
0.714839
0.714829
0.71482
0.714811
0.714802
0.714793
0.714784
0.714775
0.714767
0.714758
0.714749
0.71474
0.714731
0.714723
0.714713
0.714704
0.714695
0.714686
0.714676
0.714666
0.714657
0.714647
0.714637
0.714627
0.714617
0.714607
0.714597
0.714587
0.714577
0.714567
0.714557
0.714547
0.714537
0.714527
0.714518
0.714508
0.714498
0.714488
0.714478
0.714468
0.714458
0.714448
0.714439
0.714429
0.714419
0.714409
0.714399
0.714389
0.71438
0.71437
0.71436
0.71435
0.71434
0.71433
0.71432
0.714311
0.714301
0.714291
0.712522
0.712521
0.71252
0.712521
0.712521
0.712521
0.712522
0.712524
0.712526
0.712529
0.712533
0.712537
0.712543
0.712549
0.712556
0.712563
0.712572
0.712581
0.712592
0.712604
0.712617
0.712632
0.712648
0.712667
0.712689
0.712714
0.712742
0.712774
0.71281
0.712851
0.712896
0.712946
0.713001
0.713061
0.713125
0.713194
0.713267
0.713344
0.713424
0.713506
0.71359
0.713675
0.713759
0.713844
0.713926
0.714007
0.714084
0.714157
0.714225
0.714289
0.714346
0.714398
0.714444
0.714484
0.714517
0.714545
0.714568
0.714585
0.714598
0.714606
0.714612
0.714615
0.714616
0.714615
0.714613
0.714612
0.71461
0.714608
0.714607
0.714607
0.714608
0.71461
0.714613
0.714616
0.71462
0.714625
0.71463
0.714635
0.714639
0.714644
0.714648
0.714652
0.714655
0.714657
0.714659
0.714661
0.714661
0.714662
0.714662
0.714662
0.714662
0.714661
0.714661
0.714661
0.714661
0.714661
0.714662
0.714663
0.714666
0.714669
0.714673
0.714678
0.714685
0.714693
0.714703
0.714713
0.714725
0.714739
0.714753
0.714768
0.714784
0.7148
0.714817
0.714833
0.714849
0.714865
0.714879
0.714893
0.714906
0.714917
0.714927
0.714935
0.714941
0.714946
0.71495
0.714952
0.714952
0.714951
0.714949
0.714945
0.71494
0.714935
0.714928
0.714921
0.714913
0.714905
0.714896
0.714887
0.714877
0.714868
0.714858
0.714849
0.714839
0.71483
0.71482
0.714811
0.714802
0.714793
0.714784
0.714776
0.714767
0.714758
0.714749
0.71474
0.714732
0.714723
0.714714
0.714704
0.714695
0.714686
0.714676
0.714666
0.714657
0.714647
0.714637
0.714627
0.714617
0.714607
0.714597
0.714587
0.714577
0.714567
0.714557
0.714547
0.714537
0.714527
0.714518
0.714508
0.714498
0.714488
0.714478
0.714468
0.714458
0.714448
0.714439
0.714429
0.714419
0.714409
0.714399
0.714389
0.71438
0.71437
0.71436
0.71435
0.71434
0.71433
0.71432
0.714311
0.714301
0.714291
0.712519
0.712519
0.712517
0.712517
0.712516
0.712516
0.712517
0.712519
0.712522
0.712525
0.712529
0.712534
0.71254
0.712546
0.712553
0.712561
0.712569
0.712579
0.712589
0.712601
0.712613
0.712628
0.712644
0.712663
0.712684
0.712709
0.712737
0.712768
0.712804
0.712845
0.712889
0.712939
0.712994
0.713053
0.713117
0.713186
0.713258
0.713334
0.713413
0.713494
0.713577
0.71366
0.713743
0.713825
0.713906
0.713984
0.714058
0.714128
0.714194
0.714254
0.714309
0.714358
0.714401
0.714437
0.714468
0.714493
0.714513
0.714529
0.71454
0.714547
0.714552
0.714555
0.714556
0.714555
0.714555
0.714554
0.714554
0.714554
0.714555
0.714558
0.714561
0.714566
0.714572
0.714578
0.714586
0.714594
0.714603
0.714612
0.714621
0.714629
0.714637
0.714644
0.71465
0.714656
0.71466
0.714664
0.714667
0.714668
0.714669
0.71467
0.71467
0.714669
0.714669
0.714668
0.714668
0.714668
0.714668
0.714669
0.714671
0.714674
0.714678
0.714683
0.714689
0.714697
0.714705
0.714716
0.714727
0.71474
0.714754
0.714769
0.714784
0.7148
0.714815
0.714831
0.714847
0.714862
0.714876
0.714889
0.714901
0.714912
0.714921
0.714929
0.714935
0.71494
0.714944
0.714945
0.714946
0.714945
0.714943
0.71494
0.714936
0.714931
0.714925
0.714918
0.714911
0.714903
0.714894
0.714886
0.714877
0.714868
0.714859
0.714849
0.71484
0.714831
0.714821
0.714812
0.714803
0.714794
0.714785
0.714776
0.714768
0.714759
0.71475
0.714741
0.714732
0.714723
0.714714
0.714704
0.714695
0.714686
0.714676
0.714666
0.714657
0.714647
0.714637
0.714627
0.714617
0.714607
0.714597
0.714587
0.714577
0.714567
0.714557
0.714547
0.714537
0.714527
0.714518
0.714508
0.714498
0.714488
0.714478
0.714468
0.714458
0.714448
0.714439
0.714429
0.714419
0.714409
0.714399
0.714389
0.71438
0.71437
0.71436
0.71435
0.71434
0.71433
0.71432
0.714311
0.714301
0.714291
0.712487
0.712502
0.712502
0.712508
0.712509
0.712512
0.712513
0.712516
0.712519
0.712523
0.712527
0.712532
0.712538
0.712545
0.712552
0.71256
0.712568
0.712578
0.712588
0.712599
0.712612
0.712627
0.712643
0.712662
0.712683
0.712707
0.712735
0.712767
0.712803
0.712843
0.712888
0.712938
0.712992
0.713051
0.713115
0.713183
0.713254
0.713329
0.713406
0.713486
0.713566
0.713647
0.713727
0.713806
0.713883
0.713957
0.714027
0.714093
0.714154
0.714209
0.714259
0.714302
0.71434
0.714372
0.714398
0.71442
0.714436
0.714448
0.714457
0.714463
0.714467
0.714469
0.71447
0.714471
0.714471
0.714472
0.714474
0.714477
0.714481
0.714487
0.714493
0.714502
0.714511
0.714522
0.714534
0.714547
0.71456
0.714574
0.714588
0.714601
0.714614
0.714627
0.714638
0.714648
0.714657
0.714665
0.714672
0.714677
0.71468
0.714683
0.714684
0.714685
0.714685
0.714685
0.714685
0.714684
0.714684
0.714684
0.714686
0.714688
0.714691
0.714695
0.7147
0.714707
0.714715
0.714725
0.714735
0.714747
0.71476
0.714773
0.714787
0.714802
0.714816
0.714831
0.714845
0.714859
0.714872
0.714884
0.714895
0.714905
0.714913
0.71492
0.714926
0.714931
0.714934
0.714936
0.714936
0.714936
0.714934
0.714932
0.714928
0.714924
0.714919
0.714913
0.714906
0.7149
0.714892
0.714884
0.714876
0.714868
0.714859
0.71485
0.714841
0.714832
0.714823
0.714814
0.714805
0.714796
0.714787
0.714778
0.714769
0.71476
0.714751
0.714742
0.714732
0.714723
0.714714
0.714704
0.714695
0.714685
0.714676
0.714666
0.714656
0.714647
0.714637
0.714627
0.714617
0.714607
0.714597
0.714587
0.714577
0.714567
0.714557
0.714547
0.714537
0.714527
0.714518
0.714508
0.714498
0.714488
0.714478
0.714468
0.714458
0.714449
0.714439
0.714429
0.714419
0.714409
0.714399
0.714389
0.71438
0.71437
0.71436
0.71435
0.71434
0.71433
0.71432
0.714311
0.714301
0.714291
0.712487
0.712503
0.712501
0.712505
0.712505
0.712508
0.71251
0.712514
0.712517
0.712521
0.712526
0.712532
0.712538
0.712544
0.712552
0.71256
0.712569
0.712578
0.712589
0.712601
0.712614
0.712629
0.712646
0.712665
0.712687
0.712712
0.712741
0.712773
0.71281
0.712851
0.712896
0.712947
0.713001
0.71306
0.713124
0.713191
0.713261
0.713335
0.71341
0.713487
0.713564
0.713641
0.713718
0.713792
0.713863
0.713931
0.713995
0.714054
0.714108
0.714157
0.714199
0.714236
0.714267
0.714293
0.714314
0.71433
0.714342
0.714351
0.714357
0.714362
0.714365
0.714367
0.714369
0.714371
0.714374
0.714377
0.714382
0.714388
0.714395
0.714404
0.714415
0.714427
0.714441
0.714456
0.714472
0.714489
0.714508
0.714526
0.714546
0.714565
0.714583
0.714602
0.714619
0.714635
0.71465
0.714663
0.714675
0.714685
0.714693
0.7147
0.714705
0.714708
0.71471
0.714712
0.714712
0.714713
0.714713
0.714713
0.714713
0.714715
0.714717
0.71472
0.714724
0.714729
0.714736
0.714744
0.714752
0.714762
0.714773
0.714785
0.714797
0.714809
0.714822
0.714834
0.714846
0.714858
0.714869
0.714879
0.714888
0.714896
0.714903
0.714909
0.714914
0.714918
0.714921
0.714923
0.714923
0.714923
0.714922
0.714921
0.714918
0.714915
0.714911
0.714906
0.714901
0.714895
0.714889
0.714882
0.714875
0.714867
0.714859
0.714851
0.714842
0.714834
0.714825
0.714816
0.714807
0.714798
0.714789
0.71478
0.71477
0.714761
0.714752
0.714742
0.714733
0.714724
0.714714
0.714705
0.714695
0.714685
0.714676
0.714666
0.714656
0.714646
0.714636
0.714627
0.714617
0.714607
0.714597
0.714587
0.714577
0.714567
0.714557
0.714547
0.714537
0.714527
0.714518
0.714508
0.714498
0.714488
0.714478
0.714468
0.714458
0.714449
0.714439
0.714429
0.714419
0.714409
0.714399
0.714389
0.71438
0.71437
0.71436
0.71435
0.71434
0.71433
0.71432
0.714311
0.714301
0.714291
0.712331
0.71247
0.712487
0.712509
0.712512
0.712515
0.712517
0.71252
0.712523
0.712526
0.712531
0.712536
0.712542
0.712549
0.712556
0.712564
0.712574
0.712584
0.712595
0.712608
0.712622
0.712638
0.712656
0.712677
0.712701
0.712727
0.712758
0.712792
0.71283
0.712873
0.71292
0.712971
0.713026
0.713086
0.713149
0.713215
0.713285
0.713356
0.713429
0.713502
0.713575
0.713647
0.713718
0.713786
0.71385
0.71391
0.713966
0.714016
0.714062
0.714101
0.714135
0.714164
0.714187
0.714206
0.714221
0.714233
0.714241
0.714248
0.714253
0.714257
0.714261
0.714264
0.714268
0.714273
0.714278
0.714285
0.714293
0.714303
0.714314
0.714326
0.71434
0.714356
0.714374
0.714393
0.714413
0.714434
0.714457
0.71448
0.714504
0.714528
0.714552
0.714576
0.714599
0.714621
0.714642
0.714661
0.714678
0.714694
0.714708
0.714719
0.714729
0.714736
0.714742
0.714747
0.71475
0.714752
0.714753
0.714753
0.714754
0.714755
0.714756
0.714758
0.714761
0.714764
0.714769
0.714774
0.71478
0.714788
0.714796
0.714804
0.714813
0.714823
0.714832
0.714841
0.71485
0.714859
0.714867
0.714874
0.714881
0.714887
0.714892
0.714896
0.7149
0.714903
0.714905
0.714907
0.714908
0.714908
0.714908
0.714907
0.714906
0.714904
0.714901
0.714898
0.714894
0.71489
0.714885
0.71488
0.714873
0.714867
0.71486
0.714852
0.714844
0.714836
0.714827
0.714819
0.71481
0.7148
0.714791
0.714782
0.714772
0.714763
0.714753
0.714744
0.714734
0.714724
0.714714
0.714705
0.714695
0.714685
0.714675
0.714666
0.714656
0.714646
0.714636
0.714626
0.714616
0.714606
0.714597
0.714587
0.714577
0.714567
0.714557
0.714547
0.714537
0.714527
0.714518
0.714508
0.714498
0.714488
0.714478
0.714468
0.714458
0.714449
0.714439
0.714429
0.714419
0.714409
0.714399
0.714389
0.71438
0.71437
0.71436
0.71435
0.71434
0.71433
0.71432
0.714311
0.714301
0.714291
0.713063
0.713006
0.712944
0.712877
0.712804
0.712726
0.712638
0.712519
0.713069
0.713023
0.71296
0.712891
0.712817
0.712739
0.712648
0.712551
0.713073
0.713034
0.712976
0.712911
0.712841
0.71277
0.712699
0.712628
0.713084
0.71305
0.712997
0.712936
0.712872
0.712807
0.712744
0.712686
0.713096
0.713065
0.713015
0.712959
0.7129
0.712843
0.712789
0.712741
0.713111
0.713078
0.71303
0.712976
0.712922
0.712871
0.712823
0.712781
0.713127
0.713089
0.713039
0.712987
0.712936
0.712888
0.712845
0.712805
0.713134
0.713087
0.713038
0.712988
0.712939
0.712894
0.712851
0.712813
0.712457
0.712476
0.712497
0.712508
0.712514
0.712518
0.71252
0.712523
0.712527
0.712531
0.712536
0.712542
0.712548
0.712556
0.712564
0.712574
0.712584
0.712596
0.712609
0.712624
0.71264
0.712659
0.712679
0.712703
0.712729
0.712759
0.712792
0.712829
0.71287
0.712915
0.712964
0.713017
0.713074
0.713134
0.713197
0.713262
0.71333
0.713398
0.713467
0.713536
0.713603
0.713669
0.713732
0.713791
0.713846
0.713897
0.713942
0.713983
0.714018
0.714048
0.714073
0.714093
0.71411
0.714123
0.714133
0.714142
0.714149
0.714155
0.71416
0.714166
0.714172
0.714178
0.714185
0.714193
0.714202
0.714212
0.714224
0.714236
0.71425
0.714266
0.714283
0.714302
0.714322
0.714344
0.714367
0.714391
0.714417
0.714444
0.714471
0.714499
0.714528
0.714556
0.714584
0.714611
0.714636
0.714661
0.714684
0.714705
0.714724
0.71474
0.714755
0.714767
0.714777
0.714785
0.714791
0.714796
0.714799
0.714801
0.714803
0.714804
0.714805
0.714806
0.714807
0.714808
0.714811
0.714813
0.714817
0.714821
0.714825
0.71483
0.714835
0.714841
0.714846
0.714851
0.714857
0.714861
0.714866
0.71487
0.714874
0.714877
0.71488
0.714882
0.714884
0.714886
0.714888
0.71489
0.714891
0.714892
0.714893
0.714893
0.714893
0.714893
0.714892
0.71489
0.714888
0.714885
0.714881
0.714877
0.714872
0.714867
0.714861
0.714854
0.714846
0.714838
0.71483
0.714821
0.714812
0.714803
0.714794
0.714784
0.714774
0.714765
0.714755
0.714745
0.714735
0.714725
0.714715
0.714705
0.714695
0.714685
0.714675
0.714665
0.714655
0.714645
0.714636
0.714626
0.714616
0.714606
0.714596
0.714586
0.714577
0.714567
0.714557
0.714547
0.714537
0.714527
0.714518
0.714508
0.714498
0.714488
0.714478
0.714468
0.714458
0.714449
0.714439
0.714429
0.714419
0.714409
0.714399
0.714389
0.71438
0.71437
0.71436
0.71435
0.71434
0.71433
0.71432
0.714311
0.714301
0.714291
0.712478
0.712488
0.712501
0.712514
0.712522
0.712527
0.712531
0.712535
0.712539
0.712543
0.712549
0.712555
0.712563
0.712572
0.712582
0.712593
0.712605
0.71262
0.712635
0.712653
0.712673
0.712695
0.71272
0.712747
0.712778
0.712812
0.712849
0.71289
0.712934
0.712983
0.713034
0.713089
0.713147
0.713207
0.713269
0.713332
0.713397
0.713461
0.713525
0.713587
0.713647
0.713703
0.713756
0.713805
0.713849
0.713889
0.713923
0.713953
0.713978
0.713999
0.714016
0.714031
0.714043
0.714053
0.714062
0.71407
0.714079
0.714087
0.714095
0.714104
0.714113
0.714123
0.714133
0.714144
0.714155
0.714168
0.714181
0.714196
0.714212
0.714229
0.714248
0.714268
0.71429
0.714313
0.714338
0.714365
0.714392
0.714421
0.714451
0.714482
0.714513
0.714545
0.714576
0.714607
0.714637
0.714665
0.714692
0.714718
0.714741
0.714762
0.714781
0.714798
0.714812
0.714823
0.714833
0.71484
0.714846
0.71485
0.714852
0.714854
0.714855
0.714855
0.714855
0.714855
0.714855
0.714855
0.714856
0.714856
0.714857
0.714858
0.714859
0.71486
0.714861
0.714862
0.714863
0.714864
0.714865
0.714866
0.714866
0.714867
0.714868
0.714869
0.714869
0.714871
0.714872
0.714873
0.714875
0.714877
0.714878
0.71488
0.714881
0.714882
0.714883
0.714883
0.714882
0.714881
0.714879
0.714876
0.714872
0.714867
0.714862
0.714856
0.714849
0.714841
0.714833
0.714824
0.714815
0.714806
0.714796
0.714787
0.714777
0.714766
0.714756
0.714746
0.714736
0.714725
0.714715
0.714705
0.714695
0.714685
0.714675
0.714665
0.714655
0.714645
0.714635
0.714625
0.714616
0.714606
0.714596
0.714586
0.714576
0.714567
0.714557
0.714547
0.714537
0.714527
0.714518
0.714508
0.714498
0.714488
0.714478
0.714468
0.714458
0.714449
0.714439
0.714429
0.714419
0.714409
0.714399
0.714389
0.71438
0.71437
0.71436
0.71435
0.71434
0.71433
0.71432
0.714311
0.714301
0.714291
0.712576
0.712552
0.712546
0.712546
0.712547
0.712549
0.712552
0.712554
0.712558
0.712563
0.712569
0.712576
0.712585
0.712596
0.712608
0.712621
0.712637
0.712654
0.712674
0.712695
0.712719
0.712746
0.712775
0.712808
0.712843
0.712882
0.712924
0.712969
0.713018
0.713069
0.713123
0.713179
0.713237
0.713297
0.713357
0.713417
0.713477
0.713535
0.713591
0.713645
0.713695
0.713741
0.713783
0.71382
0.713853
0.713881
0.713906
0.713926
0.713944
0.71396
0.713973
0.713986
0.713997
0.714008
0.714019
0.714029
0.71404
0.714051
0.714062
0.714073
0.714085
0.714096
0.714108
0.714121
0.714134
0.714148
0.714162
0.714177
0.714194
0.714212
0.714231
0.714252
0.714274
0.714299
0.714324
0.714352
0.714381
0.714411
0.714443
0.714475
0.714508
0.714542
0.714575
0.714609
0.714641
0.714673
0.714703
0.714732
0.714759
0.714783
0.714805
0.714825
0.714842
0.714857
0.714869
0.714879
0.714887
0.714892
0.714896
0.714898
0.714899
0.714899
0.714898
0.714897
0.714895
0.714893
0.71489
0.714888
0.714885
0.714882
0.71488
0.714877
0.714874
0.714871
0.714869
0.714866
0.714864
0.714861
0.71486
0.714858
0.714857
0.714857
0.714857
0.714857
0.714859
0.71486
0.714862
0.714865
0.714867
0.71487
0.714872
0.714875
0.714876
0.714878
0.714878
0.714878
0.714877
0.714875
0.714872
0.714868
0.714863
0.714858
0.714851
0.714844
0.714836
0.714827
0.714818
0.714809
0.714799
0.714789
0.714778
0.714768
0.714758
0.714747
0.714736
0.714726
0.714716
0.714705
0.714695
0.714685
0.714675
0.714665
0.714655
0.714645
0.714635
0.714625
0.714615
0.714605
0.714596
0.714586
0.714576
0.714566
0.714557
0.714547
0.714537
0.714527
0.714518
0.714508
0.714498
0.714488
0.714478
0.714468
0.714459
0.714449
0.714439
0.714429
0.714419
0.714409
0.714399
0.714389
0.71438
0.71437
0.71436
0.71435
0.71434
0.71433
0.71432
0.714311
0.714301
0.714291
0.71264
0.712612
0.712597
0.71259
0.712586
0.712584
0.712584
0.712585
0.712587
0.712591
0.712597
0.712604
0.712614
0.712626
0.71264
0.712656
0.712674
0.712695
0.712718
0.712743
0.712772
0.712803
0.712837
0.712875
0.712915
0.712959
0.713005
0.713054
0.713106
0.71316
0.713215
0.713272
0.713329
0.713385
0.713442
0.713497
0.71355
0.7136
0.713647
0.71369
0.71373
0.713765
0.713796
0.713824
0.713849
0.713871
0.71389
0.713907
0.713922
0.713936
0.713949
0.713961
0.713974
0.713987
0.714
0.714013
0.714026
0.714038
0.714051
0.714063
0.714076
0.714088
0.714101
0.714114
0.714127
0.714141
0.714155
0.714171
0.714188
0.714206
0.714226
0.714247
0.71427
0.714294
0.71432
0.714348
0.714378
0.714409
0.714442
0.714475
0.71451
0.714545
0.71458
0.714615
0.714649
0.714683
0.714715
0.714746
0.714774
0.714801
0.714826
0.714848
0.714867
0.714884
0.714898
0.714909
0.714918
0.714925
0.714929
0.714932
0.714933
0.714933
0.714931
0.714928
0.714925
0.714921
0.714916
0.714911
0.714905
0.7149
0.714894
0.714888
0.714882
0.714877
0.714871
0.714866
0.714862
0.714857
0.714854
0.714851
0.714849
0.714848
0.714848
0.714848
0.71485
0.714852
0.714854
0.714857
0.71486
0.714864
0.714867
0.71487
0.714873
0.714875
0.714876
0.714877
0.714876
0.714875
0.714872
0.714869
0.714865
0.714859
0.714853
0.714846
0.714838
0.714829
0.71482
0.714811
0.714801
0.71479
0.71478
0.714769
0.714758
0.714748
0.714737
0.714726
0.714716
0.714705
0.714695
0.714685
0.714674
0.714664
0.714654
0.714644
0.714635
0.714625
0.714615
0.714605
0.714596
0.714586
0.714576
0.714566
0.714557
0.714547
0.714537
0.714527
0.714518
0.714508
0.714498
0.714488
0.714478
0.714468
0.714459
0.714449
0.714439
0.714429
0.714419
0.714409
0.714399
0.714389
0.71438
0.71437
0.71436
0.71435
0.71434
0.71433
0.71432
0.714311
0.714301
0.714291
0.712702
0.712673
0.712654
0.71264
0.712631
0.712624
0.71262
0.712618
0.712618
0.71262
0.712625
0.712633
0.712643
0.712656
0.712671
0.712689
0.71271
0.712733
0.712759
0.712789
0.712821
0.712856
0.712894
0.712936
0.71298
0.713027
0.713076
0.713128
0.713181
0.713235
0.71329
0.713345
0.713398
0.713451
0.713501
0.713549
0.713595
0.713638
0.713678
0.713714
0.713746
0.713774
0.713799
0.71382
0.713839
0.713857
0.713874
0.71389
0.713906
0.713923
0.713939
0.713954
0.713969
0.713983
0.713997
0.71401
0.714023
0.714036
0.714048
0.714061
0.714073
0.714086
0.714099
0.714112
0.714125
0.71414
0.714154
0.71417
0.714187
0.714206
0.714226
0.714247
0.71427
0.714295
0.714322
0.71435
0.71438
0.714412
0.714445
0.714479
0.714514
0.71455
0.714586
0.714621
0.714657
0.714691
0.714725
0.714757
0.714787
0.714815
0.71484
0.714863
0.714884
0.714902
0.714917
0.714929
0.714939
0.714946
0.714951
0.714954
0.714954
0.714954
0.714951
0.714947
0.714943
0.714937
0.714931
0.714924
0.714917
0.714909
0.714901
0.714894
0.714886
0.714879
0.714872
0.714865
0.71486
0.714855
0.71485
0.714847
0.714845
0.714843
0.714843
0.714843
0.714845
0.714847
0.71485
0.714853
0.714857
0.71486
0.714864
0.714868
0.714871
0.714873
0.714875
0.714876
0.714876
0.714875
0.714873
0.71487
0.714865
0.71486
0.714854
0.714847
0.714839
0.71483
0.714821
0.714812
0.714802
0.714791
0.714781
0.71477
0.714759
0.714748
0.714737
0.714727
0.714716
0.714705
0.714695
0.714685
0.714674
0.714664
0.714654
0.714644
0.714634
0.714625
0.714615
0.714605
0.714595
0.714586
0.714576
0.714566
0.714557
0.714547
0.714537
0.714527
0.714518
0.714508
0.714498
0.714488
0.714478
0.714468
0.714459
0.714449
0.714439
0.714429
0.714419
0.714409
0.714399
0.714389
0.71438
0.71437
0.71436
0.71435
0.71434
0.71433
0.71432
0.714311
0.714301
0.714291
0.712745
0.712717
0.712695
0.712677
0.712663
0.712653
0.712645
0.71264
0.712638
0.71264
0.712644
0.712652
0.712662
0.712676
0.712692
0.712712
0.712734
0.71276
0.712788
0.71282
0.712854
0.712892
0.712932
0.712976
0.713022
0.71307
0.71312
0.713172
0.713225
0.713278
0.713331
0.713383
0.713433
0.713482
0.713527
0.71357
0.713609
0.713646
0.713678
0.713708
0.713734
0.713759
0.713782
0.713806
0.713829
0.71385
0.713871
0.71389
0.713907
0.713923
0.713938
0.713953
0.713967
0.713981
0.713995
0.714008
0.714021
0.714034
0.714047
0.71406
0.714073
0.714086
0.714099
0.714112
0.714126
0.71414
0.714156
0.714172
0.714189
0.714208
0.714228
0.71425
0.714273
0.714299
0.714326
0.714354
0.714385
0.714417
0.71445
0.714485
0.71452
0.714556
0.714592
0.714629
0.714664
0.714699
0.714733
0.714765
0.714796
0.714824
0.71485
0.714874
0.714894
0.714913
0.714928
0.71494
0.71495
0.714957
0.714962
0.714964
0.714965
0.714964
0.714961
0.714956
0.714951
0.714944
0.714937
0.714929
0.714921
0.714912
0.714904
0.714895
0.714887
0.714879
0.714872
0.714865
0.714859
0.714853
0.714849
0.714846
0.714843
0.714842
0.714841
0.714842
0.714843
0.714846
0.714849
0.714852
0.714856
0.71486
0.714863
0.714867
0.71487
0.714873
0.714875
0.714876
0.714876
0.714875
0.714873
0.71487
0.714866
0.71486
0.714854
0.714847
0.714839
0.714831
0.714822
0.714812
0.714802
0.714791
0.714781
0.71477
0.714759
0.714748
0.714737
0.714727
0.714716
0.714705
0.714695
0.714685
0.714674
0.714664
0.714654
0.714644
0.714634
0.714625
0.714615
0.714605
0.714595
0.714586
0.714576
0.714566
0.714557
0.714547
0.714537
0.714527
0.714518
0.714508
0.714498
0.714488
0.714478
0.714468
0.714459
0.714449
0.714439
0.714429
0.714419
0.714409
0.714399
0.714389
0.71438
0.71437
0.71436
0.71435
0.71434
0.71433
0.71432
0.714311
0.714301
0.714291
0.712771
0.712742
0.712718
0.712697
0.712681
0.712667
0.712658
0.712651
0.712649
0.71265
0.712654
0.712661
0.712672
0.712686
0.712703
0.712724
0.712747
0.712774
0.712803
0.712836
0.712871
0.71291
0.712951
0.712995
0.713041
0.713089
0.713138
0.713189
0.71324
0.71329
0.71334
0.713387
0.713433
0.713476
0.713518
0.713558
0.713596
0.713634
0.713669
0.713702
0.713732
0.71376
0.713785
0.713808
0.713829
0.713849
0.713868
0.713886
0.713903
0.71392
0.713936
0.713951
0.713966
0.71398
0.713994
0.714008
0.714021
0.714034
0.714047
0.71406
0.714073
0.714086
0.714099
0.714112
0.714126
0.714141
0.714157
0.714173
0.714191
0.71421
0.71423
0.714253
0.714276
0.714302
0.714329
0.714358
0.714389
0.714421
0.714454
0.714489
0.714524
0.71456
0.714597
0.714633
0.714669
0.714704
0.714738
0.71477
0.7148
0.714829
0.714855
0.714878
0.714899
0.714917
0.714932
0.714944
0.714954
0.714961
0.714965
0.714968
0.714968
0.714966
0.714963
0.714958
0.714952
0.714946
0.714938
0.71493
0.714921
0.714913
0.714904
0.714895
0.714887
0.714879
0.714871
0.714865
0.714858
0.714853
0.714849
0.714846
0.714843
0.714842
0.714842
0.714842
0.714844
0.714846
0.714849
0.714852
0.714856
0.71486
0.714864
0.714867
0.71487
0.714873
0.714875
0.714876
0.714876
0.714875
0.714873
0.71487
0.714865
0.71486
0.714854
0.714847
0.714839
0.714831
0.714821
0.714812
0.714802
0.714791
0.714781
0.71477
0.714759
0.714748
0.714738
0.714727
0.714716
0.714705
0.714695
0.714685
0.714674
0.714664
0.714654
0.714644
0.714634
0.714625
0.714615
0.714605
0.714595
0.714586
0.714576
0.714566
0.714557
0.714547
0.714537
0.714527
0.714518
0.714508
0.714498
0.714488
0.714478
0.714468
0.714459
0.714449
0.714439
0.714429
0.714419
0.714409
0.714399
0.714389
0.71438
0.71437
0.71436
0.71435
0.71434
0.71433
0.71432
0.714311
0.714301
0.714291
0.712778
0.712747
0.71272
0.712698
0.712679
0.712665
0.712654
0.712647
0.712645
0.712645
0.71265
0.712657
0.712668
0.712682
0.7127
0.71272
0.712743
0.712769
0.712799
0.712831
0.712866
0.712903
0.712943
0.712986
0.713031
0.713078
0.713126
0.713175
0.713226
0.713276
0.713326
0.713375
0.713422
0.713468
0.713512
0.713554
0.713594
0.713631
0.713666
0.713697
0.713726
0.713753
0.713778
0.713802
0.713825
0.713846
0.713866
0.713885
0.713903
0.713919
0.713935
0.71395
0.713965
0.713979
0.713993
0.714007
0.71402
0.714033
0.714046
0.714059
0.714072
0.714085
0.714098
0.714112
0.714126
0.714141
0.714157
0.714174
0.714192
0.714211
0.714232
0.714255
0.714279
0.714305
0.714332
0.714362
0.714393
0.714425
0.714459
0.714494
0.71453
0.714566
0.714602
0.714639
0.714674
0.714709
0.714743
0.714775
0.714805
0.714834
0.714859
0.714882
0.714903
0.714921
0.714935
0.714947
0.714956
0.714963
0.714967
0.714969
0.714969
0.714967
0.714963
0.714958
0.714952
0.714945
0.714937
0.714929
0.71492
0.714911
0.714903
0.714894
0.714886
0.714878
0.714871
0.714864
0.714858
0.714853
0.714849
0.714846
0.714844
0.714843
0.714842
0.714843
0.714845
0.714847
0.71485
0.714853
0.714857
0.714861
0.714865
0.714868
0.714871
0.714874
0.714875
0.714876
0.714876
0.714875
0.714873
0.71487
0.714865
0.71486
0.714854
0.714847
0.714839
0.71483
0.714821
0.714812
0.714802
0.714791
0.714781
0.71477
0.714759
0.714748
0.714737
0.714727
0.714716
0.714705
0.714695
0.714685
0.714674
0.714664
0.714654
0.714644
0.714634
0.714625
0.714615
0.714605
0.714595
0.714586
0.714576
0.714566
0.714557
0.714547
0.714537
0.714527
0.714518
0.714508
0.714498
0.714488
0.714478
0.714468
0.714459
0.714449
0.714439
0.714429
0.714419
0.714409
0.714399
0.714389
0.71438
0.71437
0.71436
0.71435
0.71434
0.71433
0.71432
0.714311
0.714301
0.714291
)
;

boundaryField
{
    inlet
    {
        type            zeroGradient;
    }
    outlet
    {
        type            fixedValue;