/*--------------------------------*- C++ -*----------------------------------*\
| =========                 |                                                 |
| \\      /  F ield         | OpenFOAM: The Open Source CFD Toolbox           |
|  \\    /   O peration     | Version:  4.1                                   |
|   \\  /    A nd           | Web:      www.OpenFOAM.org                      |
|    \\/     M anipulation  |                                                 |
\*---------------------------------------------------------------------------*/
FoamFile
{
    version     2.0;
    format      ascii;
    class       volScalarField;
    location    "144";
    object      p;
}
// * * * * * * * * * * * * * * * * * * * * * * * * * * * * * * * * * * * * * //

dimensions      [1 -1 -2 0 0 0 0];

internalField   nonuniform List<scalar> 
3264
(
0.712692
0.71269
0.712688
0.712685
0.712681
0.712677
0.712673
0.712668
0.712663
0.712658
0.712653
0.712649
0.712646
0.712646
0.712647
0.712651
0.712659
0.712672
0.71269
0.712713
0.712743
0.71278
0.712824
0.712876
0.712936
0.713003
0.713079
0.713162
0.713252
0.713349
0.713451
0.713558
0.713667
0.71378
0.713893
0.714005
0.714115
0.714223
0.714325
0.714422
0.714513
0.714595
0.714669
0.714735
0.714791
0.714839
0.714878
0.714909
0.714933
0.71495
0.714961
0.714967
0.71497
0.714969
0.714966
0.714962
0.714957
0.714952
0.714946
0.714941
0.714937
0.714934
0.714932
0.714932
0.714935
0.71494
0.714948
0.71496
0.714975
0.714994
0.715017
0.715044
0.715074
0.715108
0.715145
0.715184
0.715224
0.715264
0.715304
0.715342
0.715378
0.71541
0.715438
0.715462
0.71548
0.715494
0.715503
0.715508
0.715509
0.715506
0.715501
0.715493
0.715483
0.715473
0.715461
0.715449
0.715436
0.715423
0.715411
0.715398
0.715386
0.715373
0.715361
0.715349
0.715337
0.715326
0.715314
0.715303
0.715292
0.715281
0.71527
0.715259
0.715248
0.715237
0.715226
0.715215
0.715204
0.715193
0.715182
0.715171
0.71516
0.715149
0.715138
0.715127
0.715116
0.715105
0.715094
0.715083
0.715072
0.715061
0.71505
0.715039
0.715028
0.715017
0.715006
0.714995
0.714984
0.714973
0.714962
0.714951
0.71494
0.714929
0.714918
0.714907
0.714896
0.714885
0.714874
0.714863
0.714852
0.714841
0.71483
0.714819
0.714808
0.714797
0.714786
0.714775
0.714764
0.714753
0.714742
0.714731
0.71472
0.714709
0.714698
0.714687
0.714676
0.714665
0.714654
0.714643
0.714632
0.714621
0.71461
0.714599
0.714588
0.714577
0.714566
0.714555
0.714544
0.714533
0.714522
0.714511
0.7145
0.714489
0.714478
0.714467
0.714456
0.714445
0.714434
0.714423
0.714412
0.714401
0.71439
0.714379
0.714368
0.714357
0.714346
0.714335
0.714324
0.714313
0.714302
0.714291
0.712694
0.712692
0.71269
0.712688
0.712685
0.712682
0.712678
0.712673
0.712668
0.712664
0.712659
0.712655
0.712652
0.712651
0.712651
0.712655
0.712662
0.712673
0.712689
0.712711
0.71274
0.712775
0.712818
0.712869
0.712927
0.712994
0.713069
0.713151
0.713241
0.713337
0.713438
0.713545
0.713654
0.713766
0.713879
0.713992
0.714103
0.71421
0.714313
0.714411
0.714502
0.714585
0.71466
0.714726
0.714784
0.714832
0.714872
0.714904
0.714929
0.714947
0.714959
0.714966
0.714969
0.71497
0.714967
0.714964
0.714959
0.714954
0.714948
0.714943
0.714939
0.714936
0.714934
0.714933
0.714935
0.71494
0.714947
0.714958
0.714972
0.71499
0.715013
0.715039
0.71507
0.715104
0.71514
0.715179
0.71522
0.71526
0.715301
0.71534
0.715376
0.715409
0.715438
0.715462
0.715481
0.715495
0.715504
0.715509
0.71551
0.715507
0.715501
0.715494
0.715484
0.715473
0.715461
0.715449
0.715436
0.715423
0.715411
0.715398
0.715385
0.715373
0.715361
0.715349
0.715337
0.715326
0.715314
0.715303
0.715292
0.715281
0.71527
0.715259
0.715248
0.715237
0.715226
0.715215
0.715204
0.715193
0.715182
0.715171
0.71516
0.715149
0.715138
0.715127
0.715116
0.715105
0.715094
0.715083
0.715072
0.715061
0.71505
0.715039
0.715028
0.715017
0.715006
0.714995
0.714984
0.714973
0.714962
0.714951
0.71494
0.714929
0.714918
0.714907
0.714896
0.714885
0.714874
0.714863
0.714852
0.714841
0.71483
0.714819
0.714808
0.714797
0.714786
0.714775
0.714764
0.714753
0.714742
0.714731
0.71472
0.714709
0.714698
0.714687
0.714676
0.714665
0.714654
0.714643
0.714632
0.714621
0.71461
0.714599
0.714588
0.714577
0.714566
0.714555
0.714544
0.714533
0.714522
0.714511
0.7145
0.714489
0.714478
0.714467
0.714456
0.714445
0.714434
0.714423
0.714412
0.714401
0.71439
0.714379
0.714368
0.714357
0.714346
0.714335
0.714324
0.714313
0.714302
0.714291
0.712697
0.712695
0.712692
0.71269
0.712687
0.712683
0.712679
0.712674
0.712669
0.712663
0.712658
0.712653
0.712649
0.712647
0.712647
0.712649
0.712655
0.712665
0.712681
0.712702
0.712729
0.712764
0.712806
0.712856
0.712914
0.71298
0.713055
0.713137
0.713226
0.713322
0.713423
0.713529
0.713639
0.713751
0.713864
0.713977
0.714087
0.714195
0.714298
0.714395
0.714486
0.71457
0.714645
0.714711
0.714769
0.714818
0.714858
0.71489
0.714916
0.714934
0.714947
0.714956
0.71496
0.714962
0.714961
0.714959
0.714955
0.714951
0.714946
0.714941
0.714937
0.714934
0.714932
0.714931
0.714933
0.714938
0.714945
0.714956
0.71497
0.714988
0.71501
0.715036
0.715067
0.7151
0.715137
0.715177
0.715217
0.715259
0.7153
0.715339
0.715376
0.71541
0.715439
0.715463
0.715483
0.715497
0.715506
0.715511
0.715511
0.715508
0.715502
0.715494
0.715484
0.715473
0.715461
0.715449
0.715436
0.715423
0.71541
0.715398
0.715385
0.715373
0.715361
0.715349
0.715337
0.715326
0.715314
0.715303
0.715292
0.715281
0.71527
0.715259
0.715248
0.715237
0.715226
0.715215
0.715204
0.715193
0.715182
0.715171
0.71516
0.715149
0.715138
0.715127
0.715116
0.715105
0.715094
0.715083
0.715072
0.715061
0.71505
0.715039
0.715028
0.715017
0.715006
0.714995
0.714984
0.714973
0.714962
0.714951
0.71494
0.714929
0.714918
0.714907
0.714896
0.714885
0.714874
0.714863
0.714852
0.714841
0.71483
0.714819
0.714808
0.714797
0.714786
0.714775
0.714764
0.714753
0.714742
0.714731
0.71472
0.714709
0.714698
0.714687
0.714676
0.714665
0.714654
0.714643
0.714632
0.714621
0.71461
0.714599
0.714588
0.714577
0.714566
0.714555
0.714544
0.714533
0.714522
0.714511
0.7145
0.714489
0.714478
0.714467
0.714456
0.714445
0.714434
0.714423
0.714412
0.714401
0.71439
0.714379
0.714368
0.714357
0.714346
0.714335
0.714324
0.714313
0.714302
0.714291
0.712693
0.712692
0.71269
0.712689
0.712686
0.712683
0.712678
0.712673
0.712668
0.712662
0.712656
0.71265
0.712645
0.712642
0.712641
0.712642
0.712647
0.712656
0.71267
0.71269
0.712716
0.71275
0.712791
0.71284
0.712898
0.712964
0.713038
0.713119
0.713208
0.713303
0.713404
0.713509
0.713618
0.713729
0.713841
0.713952
0.714061
0.714168
0.714269
0.714365
0.714454
0.714535
0.714608
0.714673
0.714729
0.714776
0.714815
0.714846
0.714871
0.714889
0.714903
0.714913
0.714919
0.714924
0.714927
0.714928
0.714929
0.71493
0.71493
0.71493
0.71493
0.714929
0.714929
0.71493
0.714933
0.714937
0.714945
0.714955
0.714969
0.714988
0.71501
0.715036
0.715067
0.7151
0.715137
0.715176
0.715217
0.715259
0.7153
0.71534
0.715377
0.715411
0.71544
0.715465
0.715484
0.715498
0.715507
0.715511
0.715511
0.715508
0.715502
0.715494
0.715484
0.715473
0.715461
0.715448
0.715435
0.715423
0.71541
0.715397
0.715385
0.715373
0.715361
0.715349
0.715337
0.715326
0.715314
0.715303
0.715292
0.715281
0.71527
0.715259
0.715248
0.715237
0.715226
0.715215
0.715204
0.715193
0.715182
0.715171
0.71516
0.715149
0.715138
0.715127
0.715116
0.715105
0.715094
0.715083
0.715072
0.715061
0.71505
0.715039
0.715028
0.715017
0.715006
0.714995
0.714984
0.714973
0.714962
0.714951
0.71494
0.714929
0.714918
0.714907
0.714896
0.714885
0.714874
0.714863
0.714852
0.714841
0.71483
0.714819
0.714808
0.714797
0.714786
0.714775
0.714764
0.714753
0.714742
0.714731
0.71472
0.714709
0.714698
0.714687
0.714676
0.714665
0.714654
0.714643
0.714632
0.714621
0.71461
0.714599
0.714588
0.714577
0.714566
0.714555
0.714544
0.714533
0.714522
0.714511
0.7145
0.714489
0.714478
0.714467
0.714456
0.714445
0.714434
0.714423
0.714412
0.714401
0.71439
0.714379
0.714368
0.714357
0.714346
0.714335
0.714324
0.714313
0.714302
0.714291
0.712692
0.712691
0.712688
0.712687
0.712683
0.71268
0.712675
0.71267
0.712664
0.712658
0.712652
0.712646
0.712641
0.712637
0.712635
0.712635
0.712639
0.712648
0.712661
0.712681
0.712707
0.71274
0.712781
0.71283
0.712887
0.712952
0.713025
0.713106
0.713194
0.713288
0.713388
0.713491
0.713598
0.713707
0.713816
0.713924
0.71403
0.714132
0.71423
0.714321
0.714405
0.714481
0.714549
0.714608
0.714658
0.7147
0.714735
0.714762
0.714783
0.7148
0.714813
0.714823
0.714831
0.714839
0.714846
0.714854
0.714862
0.714871
0.714879
0.714888
0.714897
0.714906
0.714915
0.714923
0.714932
0.714941
0.714952
0.714964
0.714979
0.714998
0.71502
0.715046
0.715075
0.715108
0.715145
0.715183
0.715223
0.715264
0.715305
0.715344
0.715381
0.715414
0.715443
0.715467
0.715485
0.715498
0.715507
0.71551
0.71551
0.715506
0.7155
0.715491
0.715482
0.71547
0.715459
0.715446
0.715434
0.715421
0.715409
0.715396
0.715384
0.715372
0.71536
0.715348
0.715337
0.715325
0.715314
0.715303
0.715292
0.715281
0.71527
0.715259
0.715248
0.715237
0.715226
0.715215
0.715204
0.715193
0.715182
0.715171
0.71516
0.715149
0.715138
0.715127
0.715116
0.715105
0.715094
0.715083
0.715072
0.715061
0.71505
0.715039
0.715028
0.715017
0.715006
0.714995
0.714984
0.714973
0.714962
0.714951
0.71494
0.714929
0.714918
0.714907
0.714896
0.714885
0.714874
0.714863
0.714852
0.714841
0.71483
0.714819
0.714808
0.714797
0.714786
0.714775
0.714764
0.714753
0.714742
0.714731
0.71472
0.714709
0.714698
0.714687
0.714676
0.714665
0.714654
0.714643
0.714632
0.714621
0.71461
0.714599
0.714588
0.714577
0.714566
0.714555
0.714544
0.714533
0.714522
0.714511
0.7145
0.714489
0.714478
0.714467
0.714456
0.714445
0.714434
0.714423
0.714412
0.714401
0.71439
0.714379
0.714368
0.714357
0.714346
0.714335
0.714324
0.714313
0.714302
0.714291
0.71266
0.712675
0.712675
0.71268
0.712679
0.712678
0.712675
0.71267
0.712665
0.712659
0.712652
0.712646
0.71264
0.712636
0.712633
0.712634
0.712637
0.712645
0.712659
0.712678
0.712704
0.712737
0.712778
0.712826
0.712883
0.712948
0.71302
0.7131
0.713187
0.713279
0.713377
0.713478
0.713581
0.713686
0.713791
0.713894
0.713994
0.71409
0.71418
0.714263
0.714339
0.714406
0.714464
0.714514
0.714556
0.714589
0.714615
0.714636
0.714652
0.714664
0.714675
0.714685
0.714695
0.714706
0.714719
0.714734
0.714751
0.71477
0.714791
0.714812
0.714834
0.714857
0.714878
0.7149
0.71492
0.71494
0.714959
0.714979
0.714999
0.715021
0.715045
0.715071
0.715101
0.715132
0.715167
0.715203
0.715242
0.71528
0.715319
0.715356
0.71539
0.715421
0.715448
0.71547
0.715487
0.715499
0.715506
0.715508
0.715507
0.715503
0.715496
0.715488
0.715478
0.715467
0.715456
0.715444
0.715432
0.715419
0.715407
0.715395
0.715383
0.715371
0.71536
0.715348
0.715337
0.715325
0.715314
0.715303
0.715292
0.715281
0.71527
0.715259
0.715248
0.715237
0.715226
0.715215
0.715204
0.715193
0.715182
0.715171
0.71516
0.715149
0.715138
0.715127
0.715116
0.715105
0.715094
0.715083
0.715072
0.715061
0.71505
0.715039
0.715028
0.715017
0.715006
0.714995
0.714984
0.714973
0.714962
0.714951
0.71494
0.714929
0.714918
0.714907
0.714896
0.714885
0.714874
0.714863
0.714852
0.714841
0.71483
0.714819
0.714808
0.714797
0.714786
0.714775
0.714764
0.714753
0.714742
0.714731
0.71472
0.714709
0.714698
0.714687
0.714676
0.714665
0.714654
0.714643
0.714632
0.714621
0.71461
0.714599
0.714588
0.714577
0.714566
0.714555
0.714544
0.714533
0.714522
0.714511
0.7145
0.714489
0.714478
0.714467
0.714456
0.714445
0.714434
0.714423
0.714412
0.714401
0.71439
0.714379
0.714368
0.714357
0.714346
0.714335
0.714324
0.714313
0.714302
0.714291
0.712661
0.712679
0.712678
0.712681
0.71268
0.712679
0.712676
0.712672
0.712667
0.712661
0.712655
0.712648
0.712643
0.712639
0.712636
0.712637
0.712641
0.71265
0.712664
0.712684
0.71271
0.712744
0.712786
0.712835
0.712892
0.712957
0.713029
0.713108
0.713193
0.713283
0.713378
0.713475
0.713575
0.713674
0.713772
0.713868
0.71396
0.714046
0.714126
0.714198
0.714262
0.714316
0.714362
0.714399
0.714429
0.714451
0.714467
0.714479
0.714488
0.714496
0.714504
0.714514
0.714527
0.714542
0.714562
0.714585
0.714613
0.714643
0.714676
0.714712
0.714749
0.714786
0.714824
0.71486
0.714896
0.71493
0.714963
0.714994
0.715024
0.715053
0.715083
0.715113
0.715143
0.715175
0.715208
0.715242
0.715277
0.715312
0.715346
0.715379
0.71541
0.715437
0.71546
0.715478
0.715492
0.715501
0.715506
0.715507
0.715504
0.715499
0.715492
0.715483
0.715473
0.715463
0.715452
0.71544
0.715429
0.715417
0.715405
0.715394
0.715382
0.71537
0.715359
0.715348
0.715336
0.715325
0.715314
0.715303
0.715292
0.715281
0.71527
0.715259
0.715248
0.715237
0.715226
0.715215
0.715204
0.715193
0.715182
0.715171
0.71516
0.715149
0.715138
0.715127
0.715116
0.715105
0.715094
0.715083
0.715072
0.715061
0.71505
0.715039
0.715028
0.715017
0.715006
0.714995
0.714984
0.714973
0.714962
0.714951
0.71494
0.714929
0.714918
0.714907
0.714896
0.714885
0.714874
0.714863
0.714852
0.714841
0.71483
0.714819
0.714808
0.714797
0.714786
0.714775
0.714764
0.714753
0.714742
0.714731
0.71472
0.714709
0.714698
0.714687
0.714676
0.714665
0.714654
0.714643
0.714632
0.714621
0.71461
0.714599
0.714588
0.714577
0.714566
0.714555
0.714544
0.714533
0.714522
0.714511
0.7145
0.714489
0.714478
0.714467
0.714456
0.714445
0.714434
0.714423
0.714412
0.714401
0.71439
0.714379
0.714368
0.714357
0.714346
0.714335
0.714324
0.714313
0.714302
0.714291
0.712504
0.712646
0.712665
0.712686
0.712688
0.712688
0.712685
0.712681
0.712675
0.712669
0.712663
0.712657
0.712652
0.712648
0.712647
0.712649
0.712655
0.712666
0.712681
0.712704
0.712732
0.712768
0.712811
0.712862
0.712921
0.712986
0.713058
0.713137
0.71322
0.713308
0.713399
0.713492
0.713585
0.713677
0.713767
0.713853
0.713934
0.714008
0.714074
0.714132
0.714181
0.71422
0.714251
0.714274
0.714289
0.714299
0.714306
0.71431
0.714314
0.714319
0.714327
0.714339
0.714356
0.714378
0.714405
0.714437
0.714475
0.714517
0.714562
0.714611
0.714661
0.714713
0.714765
0.714817
0.714867
0.714916
0.714963
0.715007
0.715049
0.715089
0.715127
0.715163
0.715198
0.715231
0.715265
0.715297
0.715328
0.715359
0.715388
0.715415
0.71544
0.715461
0.715478
0.715492
0.715501
0.715506
0.715507
0.715506
0.715502
0.715495
0.715488
0.715479
0.715469
0.715458
0.715448
0.715437
0.715425
0.715414
0.715403
0.715392
0.715381
0.715369
0.715358
0.715347
0.715336
0.715325
0.715314
0.715303
0.715292
0.715281
0.71527
0.715259
0.715248
0.715237
0.715226
0.715215
0.715204
0.715193
0.715182
0.715171
0.71516
0.715149
0.715138
0.715127
0.715116
0.715105
0.715094
0.715083
0.715072
0.715061
0.71505
0.715039
0.715028
0.715017
0.715006
0.714995
0.714984
0.714973
0.714962
0.714951
0.71494
0.714929
0.714918
0.714907
0.714896
0.714885
0.714874
0.714863
0.714852
0.714841
0.71483
0.714819
0.714808
0.714797
0.714786
0.714775
0.714764
0.714753
0.714742
0.714731
0.71472
0.714709
0.714698
0.714687
0.714676
0.714665
0.714654
0.714643
0.714632
0.714621
0.71461
0.714599
0.714588
0.714577
0.714566
0.714555
0.714544
0.714533
0.714522
0.714511
0.7145
0.714489
0.714478
0.714467
0.714456
0.714445
0.714434
0.714423
0.714412
0.714401
0.71439
0.714379
0.714368
0.714357
0.714346
0.714335
0.714324
0.714313
0.714302
0.714291
0.713251
0.713194
0.713131
0.713063
0.712989
0.71291
0.712822
0.712699
0.713257
0.713211
0.713147
0.713078
0.713004
0.712924
0.712832
0.712733
0.713262
0.713223
0.713165
0.713099
0.713029
0.712957
0.712885
0.712814
0.713273
0.713239
0.713187
0.713125
0.713061
0.712996
0.712933
0.712874
0.713287
0.713255
0.713206
0.71315
0.713091
0.713034
0.712981
0.712934
0.713303
0.71327
0.713222
0.713169
0.713115
0.713064
0.713018
0.712977
0.713319
0.713282
0.713232
0.713181
0.71313
0.713083
0.713041
0.713003
0.713327
0.71328
0.713231
0.713181
0.713134
0.713089
0.713048
0.713011
0.712632
0.712652
0.712674
0.712686
0.712691
0.712692
0.71269
0.712687
0.712683
0.712678
0.712674
0.71267
0.712668
0.712667
0.712669
0.712675
0.712685
0.712699
0.712719
0.712745
0.712778
0.712818
0.712865
0.712918
0.712979
0.713046
0.713118
0.713196
0.713278
0.713362
0.713449
0.713535
0.71362
0.713703
0.713781
0.713854
0.713921
0.71398
0.71403
0.714071
0.714103
0.714127
0.714143
0.714152
0.714156
0.714157
0.714156
0.714157
0.714159
0.714166
0.714177
0.714193
0.714216
0.714245
0.714279
0.71432
0.714366
0.714417
0.714472
0.714531
0.714592
0.714655
0.714719
0.714783
0.714846
0.714907
0.714966
0.715022
0.715075
0.715125
0.715171
0.715214
0.715254
0.715291
0.715325
0.715357
0.715386
0.715413
0.715437
0.715458
0.715476
0.71549
0.715501
0.715508
0.715512
0.715513
0.71551
0.715506
0.7155
0.715492
0.715484
0.715474
0.715464
0.715454
0.715444
0.715433
0.715422
0.715412
0.715401
0.71539
0.715379
0.715368
0.715357
0.715347
0.715336
0.715325
0.715314
0.715303
0.715292
0.715281
0.71527
0.715259
0.715248
0.715237
0.715226
0.715215
0.715204
0.715193
0.715182
0.715171
0.71516
0.715149
0.715138
0.715127
0.715116
0.715105
0.715094
0.715083
0.715072
0.715061
0.71505
0.715039
0.715028
0.715017
0.715006
0.714995
0.714984
0.714973
0.714962
0.714951
0.71494
0.714929
0.714918
0.714907
0.714896
0.714885
0.714874
0.714863
0.714852
0.714841
0.71483
0.714819
0.714808
0.714797
0.714786
0.714775
0.714764
0.714753
0.714742
0.714731
0.71472
0.714709
0.714698
0.714687
0.714676
0.714665
0.714654
0.714643
0.714632
0.714621
0.71461
0.714599
0.714588
0.714577
0.714566
0.714555
0.714544
0.714533
0.714522
0.714511
0.7145
0.714489
0.714478
0.714467
0.714456
0.714445
0.714434
0.714423
0.714412
0.714401
0.71439
0.714379
0.714368
0.714357
0.714346
0.714335
0.714324
0.714313
0.714302
0.714291
0.712657
0.712666
0.71268
0.712693
0.7127
0.712704
0.712705
0.712704
0.712703
0.712702
0.712701
0.712701
0.712703
0.712707
0.712714
0.712725
0.712741
0.712762
0.712788
0.71282
0.712859
0.712904
0.712955
0.713013
0.713076
0.713144
0.713216
0.713292
0.71337
0.713449
0.713528
0.713605
0.713679
0.713749
0.713813
0.71387
0.71392
0.713962
0.713995
0.714019
0.714035
0.714045
0.714049
0.71405
0.714048
0.714046
0.714046
0.714048
0.714054
0.714064
0.71408
0.714102
0.714129
0.714163
0.714203
0.714249
0.714301
0.714357
0.714418
0.714483
0.714552
0.714622
0.714693
0.714765
0.714837
0.714907
0.714974
0.715039
0.715101
0.715158
0.715212
0.715261
0.715305
0.715346
0.715382
0.715413
0.715441
0.715464
0.715484
0.715499
0.715511
0.715519
0.715524
0.715525
0.715524
0.71552
0.715514
0.715507
0.715499
0.71549
0.71548
0.71547
0.71546
0.71545
0.71544
0.71543
0.715419
0.715409
0.715399
0.715388
0.715378
0.715367
0.715357
0.715346
0.715335
0.715325
0.715314
0.715303
0.715292
0.715281
0.71527
0.715259
0.715248
0.715237
0.715226
0.715215
0.715204
0.715193
0.715182
0.715171
0.71516
0.715149
0.715138
0.715127
0.715116
0.715105
0.715094
0.715083
0.715072
0.715061
0.71505
0.715039
0.715028
0.715017
0.715006
0.714995
0.714984
0.714973
0.714962
0.714951
0.71494
0.714929
0.714918
0.714907
0.714896
0.714885
0.714874
0.714863
0.714852
0.714841
0.71483
0.714819
0.714808
0.714797
0.714786
0.714775
0.714764
0.714753
0.714742
0.714731
0.71472
0.714709
0.714698
0.714687
0.714676
0.714665
0.714654
0.714643
0.714632
0.714621
0.71461
0.714599
0.714588
0.714577
0.714566
0.714555
0.714544
0.714533
0.714522
0.714511
0.7145
0.714489
0.714478
0.714467
0.714456
0.714445
0.714434
0.714423
0.714412
0.714401
0.71439
0.714379
0.714368
0.714357
0.714346
0.714335
0.714324
0.714313
0.714302
0.714291
0.71276
0.712735
0.712729
0.71273
0.712732
0.712734
0.712735
0.712736
0.712737
0.712739
0.712743
0.712748
0.712756
0.712767
0.712781
0.7128
0.712823
0.712852
0.712886
0.712926
0.712972
0.713023
0.713079
0.71314
0.713205
0.713273
0.713343
0.713415
0.713486
0.713557
0.713626
0.71369
0.713749
0.713803
0.713849
0.713888
0.71392
0.713945
0.713963
0.713975
0.713983
0.713987
0.713988
0.713988
0.713987
0.713987
0.71399
0.713995
0.714005
0.714019
0.714038
0.714062
0.714092
0.714128
0.71417
0.714218
0.714272
0.714331
0.714395
0.714463
0.714535
0.71461
0.714686
0.714762
0.714839
0.714914
0.714988
0.715058
0.715125
0.715188
0.715246
0.715299
0.715347
0.71539
0.715427
0.715459
0.715485
0.715506
0.715522
0.715533
0.71554
0.715543
0.715543
0.715539
0.715534
0.715526
0.715518
0.715508
0.715498
0.715488
0.715477
0.715467
0.715457
0.715446
0.715436
0.715427
0.715417
0.715407
0.715397
0.715387
0.715377
0.715366
0.715356
0.715346
0.715335
0.715324
0.715314
0.715303
0.715292
0.715281
0.71527
0.715259
0.715248
0.715237
0.715226
0.715215
0.715204
0.715193
0.715182
0.715171
0.71516
0.715149
0.715138
0.715127
0.715116
0.715105
0.715094
0.715083
0.715072
0.715061
0.71505
0.715039
0.715028
0.715017
0.715006
0.714995
0.714984
0.714973
0.714962
0.714951
0.71494
0.714929
0.714918
0.714907
0.714896
0.714885
0.714874
0.714863
0.714852
0.714841
0.71483
0.714819
0.714808
0.714797
0.714786
0.714775
0.714764
0.714753
0.714742
0.714731
0.71472
0.714709
0.714698
0.714687
0.714676
0.714665
0.714654
0.714643
0.714632
0.714621
0.71461
0.714599
0.714588
0.714577
0.714566
0.714555
0.714544
0.714533
0.714522
0.714511
0.7145
0.714489
0.714478
0.714467
0.714456
0.714445
0.714434
0.714423
0.714412
0.714401
0.71439
0.714379
0.714368
0.714357
0.714346
0.714335
0.714324
0.714313
0.714302
0.714291
0.712828
0.712801
0.712787
0.712781
0.712779
0.712778
0.712778
0.71278
0.712783
0.712789
0.712796
0.712807
0.712821
0.712838
0.71286
0.712887
0.712918
0.712955
0.712997
0.713044
0.713097
0.713154
0.713214
0.713278
0.713343
0.713408
0.713473
0.713537
0.713599
0.713658
0.713712
0.71376
0.713802
0.713838
0.713868
0.713894
0.713915
0.713932
0.713943
0.71395
0.713953
0.713955
0.713957
0.71396
0.713964
0.713969
0.713975
0.713984
0.713994
0.714009
0.714028
0.714053
0.714083
0.714119
0.714162
0.714211
0.714265
0.714326
0.714391
0.714462
0.714535
0.714612
0.714691
0.71477
0.71485
0.714928
0.715005
0.715078
0.715148
0.715214
0.715275
0.71533
0.71538
0.715423
0.715461
0.715492
0.715517
0.715536
0.715549
0.715557
0.715561
0.71556
0.715557
0.71555
0.715542
0.715532
0.715521
0.715509
0.715498
0.715486
0.715475
0.715464
0.715454
0.715444
0.715434
0.715424
0.715414
0.715405
0.715395
0.715386
0.715376
0.715366
0.715356
0.715345
0.715335
0.715324
0.715314
0.715303
0.715292
0.715281
0.71527
0.715259
0.715248
0.715237
0.715226
0.715215
0.715204
0.715193
0.715182
0.715171
0.71516
0.715149
0.715138
0.715127
0.715116
0.715105
0.715094
0.715083
0.715072
0.715061
0.71505
0.715039
0.715028
0.715017
0.715006
0.714995
0.714984
0.714973
0.714962
0.714951
0.71494
0.714929
0.714918
0.714907
0.714896
0.714885
0.714874
0.714863
0.714852
0.714841
0.71483
0.714819
0.714808
0.714797
0.714786
0.714775
0.714764
0.714753
0.714742
0.714731
0.71472
0.714709
0.714698
0.714687
0.714676
0.714665
0.714654
0.714643
0.714632
0.714621
0.71461
0.714599
0.714588
0.714577
0.714566
0.714555
0.714544
0.714533
0.714522
0.714511
0.7145
0.714489
0.714478
0.714467
0.714456
0.714445
0.714434
0.714423
0.714412
0.714401
0.71439
0.714379
0.714368
0.714357
0.714346
0.714335
0.714324
0.714313
0.714302
0.714291
0.712895
0.712868
0.71285
0.712839
0.712832
0.712828
0.712827
0.712828
0.712832
0.71284
0.712851
0.712866
0.712885
0.712908
0.712937
0.71297
0.713009
0.713052
0.713101
0.713154
0.713211
0.713271
0.713333
0.713395
0.713456
0.713514
0.71357
0.713623
0.713674
0.713722
0.713765
0.713802
0.713832
0.713856
0.713874
0.713886
0.713896
0.713906
0.713917
0.713929
0.713941
0.71395
0.713957
0.713962
0.713966
0.71397
0.713976
0.713984
0.713995
0.71401
0.714029
0.714055
0.714086
0.714123
0.714166
0.714215
0.714271
0.714332
0.714399
0.71447
0.714544
0.714622
0.714702
0.714783
0.714864
0.714943
0.715021
0.715096
0.715168
0.715235
0.715296
0.715352
0.715402
0.715446
0.715483
0.715513
0.715537
0.715554
0.715566
0.715572
0.715574
0.715571
0.715566
0.715557
0.715547
0.715535
0.715523
0.71551
0.715497
0.715485
0.715474
0.715462
0.715452
0.715442
0.715432
0.715422
0.715413
0.715404
0.715394
0.715385
0.715375
0.715365
0.715355
0.715345
0.715335
0.715324
0.715314
0.715303
0.715292
0.715281
0.71527
0.715259
0.715248
0.715237
0.715226
0.715215
0.715204
0.715193
0.715182
0.715171
0.71516
0.715149
0.715138
0.715127
0.715116
0.715105
0.715094
0.715083
0.715072
0.715061
0.71505
0.715039
0.715028
0.715017
0.715006
0.714995
0.714984
0.714973
0.714962
0.714951
0.71494
0.714929
0.714918
0.714907
0.714896
0.714885
0.714874
0.714863
0.714852
0.714841
0.71483
0.714819
0.714808
0.714797
0.714786
0.714775
0.714764
0.714753
0.714742
0.714731
0.71472
0.714709
0.714698
0.714687
0.714676
0.714665
0.714654
0.714643
0.714632
0.714621
0.71461
0.714599
0.714588
0.714577
0.714566
0.714555
0.714544
0.714533
0.714522
0.714511
0.7145
0.714489
0.714478
0.714467
0.714456
0.714445
0.714434
0.714423
0.714412
0.714401
0.71439
0.714379
0.714368
0.714357
0.714346
0.714335
0.714324
0.714313
0.714302
0.714291
0.712943
0.712916
0.712896
0.712882
0.712872
0.712865
0.712862
0.712863
0.712868
0.712877
0.712891
0.712909
0.712932
0.71296
0.712992
0.71303
0.713072
0.713119
0.71317
0.713226
0.713284
0.713345
0.713405
0.713465
0.713522
0.713575
0.713624
0.713668
0.713708
0.713742
0.713768
0.713787
0.713804
0.713824
0.713846
0.713869
0.713891
0.713909
0.713924
0.713934
0.713943
0.713949
0.713954
0.713959
0.713964
0.71397
0.713977
0.713987
0.714
0.714016
0.714037
0.714063
0.714095
0.714133
0.714177
0.714227
0.714283
0.714345
0.714412
0.714483
0.714558
0.714637
0.714717
0.714798
0.714879
0.714959
0.715038
0.715113
0.715184
0.715251
0.715312
0.715368
0.715417
0.71546
0.715496
0.715526
0.715548
0.715565
0.715575
0.71558
0.71558
0.715577
0.71557
0.71556
0.715549
0.715536
0.715523
0.71551
0.715497
0.715484
0.715473
0.715461
0.715451
0.715441
0.715431
0.715422
0.715412
0.715403
0.715394
0.715384
0.715375
0.715365
0.715355
0.715345
0.715334
0.715324
0.715313
0.715303
0.715292
0.715281
0.71527
0.715259
0.715248
0.715237
0.715226
0.715215
0.715204
0.715193
0.715182
0.715171
0.71516
0.715149
0.715138
0.715127
0.715116
0.715105
0.715094
0.715083
0.715072
0.715061
0.71505
0.715039
0.715028
0.715017
0.715006
0.714995
0.714984
0.714973
0.714962
0.714951
0.71494
0.714929
0.714918
0.714907
0.714896
0.714885
0.714874
0.714863
0.714852
0.714841
0.71483
0.714819
0.714808
0.714797
0.714786
0.714775
0.714764
0.714753
0.714742
0.714731
0.71472
0.714709
0.714698
0.714687
0.714676
0.714665
0.714654
0.714643
0.714632
0.714621
0.71461
0.714599
0.714588
0.714577
0.714566
0.714555
0.714544
0.714533
0.714522
0.714511
0.7145
0.714489
0.714478
0.714467
0.714456
0.714445
0.714434
0.714423
0.714412
0.714401
0.71439
0.714379
0.714368
0.714357
0.714346
0.714335
0.714324
0.714313
0.714302
0.714291
0.712971
0.712945
0.712923
0.712906
0.712894
0.712886
0.712882
0.712883
0.712888
0.712899
0.712914
0.712934
0.712959
0.712989
0.713023
0.713063
0.713107
0.713155
0.713207
0.713263
0.71332
0.713378
0.713434
0.713485
0.713529
0.713568
0.713604
0.713641
0.713679
0.713717
0.713753
0.713785
0.713812
0.713836
0.713857
0.713874
0.713889
0.713903
0.713915
0.713927
0.713937
0.713945
0.713952
0.713958
0.713965
0.713972
0.71398
0.71399
0.714004
0.714021
0.714043
0.71407
0.714103
0.714142
0.714186
0.714237
0.714293
0.714355
0.714422
0.714494
0.714569
0.714648
0.714728
0.714809
0.71489
0.71497
0.715048
0.715123
0.715194
0.71526
0.715321
0.715376
0.715424
0.715466
0.715502
0.71553
0.715552
0.715567
0.715577
0.715581
0.715581
0.715577
0.715569
0.71556
0.715548
0.715536
0.715523
0.71551
0.715497
0.715484
0.715473
0.715461
0.715451
0.715441
0.715431
0.715421
0.715412
0.715403
0.715393
0.715384
0.715374
0.715365
0.715355
0.715345
0.715334
0.715324
0.715313
0.715303
0.715292
0.715281
0.71527
0.715259
0.715248
0.715237
0.715226
0.715215
0.715204
0.715193
0.715182
0.715171
0.71516
0.715149
0.715138
0.715127
0.715116
0.715105
0.715094
0.715083
0.715072
0.715061
0.71505
0.715039
0.715028
0.715017
0.715006
0.714995
0.714984
0.714973
0.714962
0.714951
0.71494
0.714929
0.714918
0.714907
0.714896
0.714885
0.714874
0.714863
0.714852
0.714841
0.71483
0.714819
0.714808
0.714797
0.714786
0.714775
0.714764
0.714753
0.714742
0.714731
0.71472
0.714709
0.714698
0.714687
0.714676
0.714665
0.714654
0.714643
0.714632
0.714621
0.71461
0.714599
0.714588
0.714577
0.714566
0.714555
0.714544
0.714533
0.714522
0.714511
0.7145
0.714489
0.714478
0.714467
0.714456
0.714445
0.714434
0.714423
0.714412
0.714401
0.71439
0.714379
0.714368
0.714357
0.714346
0.714335
0.714324
0.714313
0.714302
0.714291
0.712979
0.71295
0.712927
0.712908
0.712894
0.712885
0.71288
0.712881
0.712887
0.712897
0.712912
0.712932
0.712956
0.712985
0.713019
0.713056
0.713097
0.713143
0.713191
0.713243
0.713297
0.713353
0.713408
0.713461
0.713511
0.713558
0.713602
0.713644
0.713684
0.71372
0.713751
0.713778
0.713802
0.713825
0.713847
0.713867
0.713885
0.7139
0.713914
0.713925
0.713934
0.713942
0.713949
0.713955
0.713962
0.713969
0.713979
0.71399
0.714005
0.714024
0.714047
0.714075
0.714109
0.714148
0.714193
0.714245
0.714302
0.714365
0.714432
0.714504
0.71458
0.714658
0.714738
0.714819
0.7149
0.71498
0.715057
0.715132
0.715202
0.715268
0.715328
0.715382
0.71543
0.71547
0.715505
0.715532
0.715553
0.715567
0.715576
0.71558
0.71558
0.715575
0.715568
0.715558
0.715547
0.715535
0.715522
0.715509
0.715496
0.715484
0.715472
0.715461
0.715451
0.715441
0.715431
0.715421
0.715412
0.715403
0.715393
0.715384
0.715374
0.715365
0.715355
0.715345
0.715334
0.715324
0.715313
0.715303
0.715292
0.715281
0.71527
0.715259
0.715248
0.715237
0.715226
0.715215
0.715204
0.715193
0.715182
0.715171
0.71516
0.715149
0.715138
0.715127
0.715116
0.715105
0.715094
0.715083
0.715072
0.715061
0.71505
0.715039
0.715028
0.715017
0.715006
0.714995
0.714984
0.714973
0.714962
0.714951
0.71494
0.714929
0.714918
0.714907
0.714896
0.714885
0.714874
0.714863
0.714852
0.714841
0.71483
0.714819
0.714808
0.714797
0.714786
0.714775
0.714764
0.714753
0.714742
0.714731
0.71472
0.714709
0.714698
0.714687
0.714676
0.714665
0.714654
0.714643
0.714632
0.714621
0.71461
0.714599
0.714588
0.714577
0.714566
0.714555
0.714544
0.714533
0.714522
0.714511
0.7145
0.714489
0.714478
0.714467
0.714456
0.714445
0.714434
0.714423
0.714412
0.714401
0.71439
0.714379
0.714368
0.714357
0.714346
0.714335
0.714324
0.714313
0.714302
0.714291
)
;

boundaryField
{
    inlet
    {
        type            zeroGradient;
    }
    outlet
    {
        type            fixedValue;