/*--------------------------------*- C++ -*----------------------------------*\
| =========                 |                                                 |
| \\      /  F ield         | OpenFOAM: The Open Source CFD Toolbox           |
|  \\    /   O peration     | Version:  4.1                                   |
|   \\  /    A nd           | Web:      www.OpenFOAM.org                      |
|    \\/     M anipulation  |                                                 |
\*---------------------------------------------------------------------------*/
FoamFile
{
    version     2.0;
    format      ascii;
    class       volScalarField;
    location    "3030";
    object      p;
}
// * * * * * * * * * * * * * * * * * * * * * * * * * * * * * * * * * * * * * //

dimensions      [1 -1 -2 0 0 0 0];

internalField   nonuniform List<scalar> 
1275
(
0.712256
0.712208
0.712201
0.712158
0.712146
0.712102
0.712086
0.712036
0.71202
0.711952
0.712268
0.712216
0.712211
0.712165
0.712155
0.712111
0.712099
0.712052
0.712044
0.711998
0.712286
0.712231
0.712226
0.71218
0.71217
0.712127
0.712114
0.712072
0.71206
0.712021
0.712305
0.71225
0.712246
0.712198
0.71219
0.712148
0.712138
0.712099
0.712091
0.712058
0.712325
0.712269
0.712265
0.712218
0.712211
0.71217
0.71216
0.712124
0.712114
0.712083
0.71234
0.712286
0.712282
0.712236
0.712229
0.71219
0.71218
0.712147
0.712137
0.712109
0.712349
0.712296
0.712292
0.712249
0.712241
0.712204
0.712193
0.712162
0.71215
0.712123
0.712351
0.712303
0.712297
0.712257
0.712248
0.712213
0.712201
0.712171
0.712158
0.712132
0.712345
0.712303
0.712297
0.712258
0.712248
0.712214
0.712202
0.712172
0.712159
0.712133
0.712076
0.712082
0.712088
0.712094
0.712101
0.712107
0.712114
0.712122
0.712129
0.712137
0.712146
0.712154
0.712163
0.712173
0.712183
0.712193
0.712204
0.712215
0.712227
0.71224
0.712253
0.712267
0.712282
0.712297
0.712314
0.712331
0.71235
0.71237
0.71239
0.712413
0.712436
0.712461
0.712487
0.712515
0.712545
0.712576
0.712608
0.712642
0.712677
0.712713
0.71275
0.712788
0.712825
0.712863
0.7129
0.712937
0.712972
0.713006
0.713038
0.713068
0.713096
0.713121
0.713144
0.713163
0.71318
0.713195
0.713207
0.713217
0.713225
0.713231
0.713236
0.713239
0.713242
0.713244
0.713245
0.713246
0.713247
0.713247
0.713248
0.713248
0.713249
0.71325
0.713252
0.713253
0.713255
0.713257
0.71326
0.713262
0.711928
0.711979
0.711972
0.711994
0.711989
0.711998
0.711994
0.711998
0.711995
0.711997
0.711995
0.711996
0.711995
0.711995
0.711995
0.711995
0.711995
0.711996
0.711996
0.711997
0.711998
0.711999
0.712001
0.712002
0.712004
0.712006
0.712008
0.71201
0.712012
0.712015
0.712017
0.71202
0.712024
0.712027
0.71203
0.712034
0.712038
0.712042
0.712047
0.712051
0.712056
0.712061
0.712066
0.712072
0.712077
0.712085
0.71209
0.712097
0.712104
0.712112
0.712119
0.712127
0.712135
0.712144
0.712153
0.712163
0.712173
0.712184
0.712195
0.712206
0.712218
0.712231
0.712244
0.712258
0.712273
0.712288
0.712305
0.712322
0.71234
0.712359
0.712378
0.712399
0.712421
0.712444
0.712468
0.712494
0.71252
0.712548
0.712576
0.712606
0.712637
0.712668
0.712701
0.712733
0.712767
0.7128
0.712833
0.712866
0.712898
0.712929
0.712959
0.712988
0.713014
0.713039
0.713061
0.713082
0.7131
0.713116
0.71313
0.713142
0.713152
0.713161
0.713168
0.713174
0.713179
0.713183
0.713186
0.713189
0.713192
0.713194
0.713197
0.713199
0.713202
0.713204
0.713207
0.71321
0.713213
0.713217
0.71322
0.713224
0.713228
0.713232
0.713237
0.712002
0.712006
0.712
0.712005
0.711998
0.712001
0.711997
0.711998
0.711995
0.711996
0.711994
0.711994
0.711994
0.711994
0.711994
0.711994
0.711995
0.711996
0.711996
0.711997
0.711999
0.712
0.712002
0.712003
0.712005
0.712007
0.71201
0.712012
0.712015
0.712018
0.712021
0.712024
0.712028
0.712032
0.712036
0.71204
0.712044
0.712049
0.712054
0.712059
0.712065
0.712071
0.712077
0.712083
0.71209
0.712097
0.712104
0.712112
0.71212
0.712129
0.712138
0.712147
0.712157
0.712167
0.712178
0.712189
0.712201
0.712214
0.712227
0.71224
0.712255
0.71227
0.712285
0.712302
0.712319
0.712337
0.712355
0.712375
0.712395
0.712417
0.712439
0.712462
0.712486
0.71251
0.712536
0.712562
0.712589
0.712617
0.712646
0.712675
0.712704
0.712734
0.712764
0.712793
0.712823
0.712851
0.712879
0.712907
0.712933
0.712957
0.712981
0.713002
0.713022
0.713041
0.713057
0.713072
0.713085
0.713097
0.713107
0.713116
0.713123
0.71313
0.713136
0.713141
0.713146
0.71315
0.713154
0.713158
0.713162
0.713166
0.71317
0.713174
0.713178
0.713182
0.713186
0.713191
0.713195
0.7132
0.713204
0.713209
0.713214
0.713219
0.713224
0.71201
0.71201
0.712005
0.71201
0.712005
0.712008
0.712004
0.712005
0.712002
0.712002
0.712
0.712
0.711998
0.711998
0.711997
0.711998
0.711998
0.711998
0.711999
0.712
0.712001
0.712002
0.712004
0.712006
0.712008
0.71201
0.712013
0.712016
0.712019
0.712022
0.712025
0.712029
0.712033
0.712038
0.712042
0.712047
0.712052
0.712058
0.712063
0.71207
0.712076
0.712083
0.71209
0.712097
0.712105
0.712113
0.712122
0.712131
0.71214
0.71215
0.712161
0.712172
0.712183
0.712195
0.712208
0.712221
0.712235
0.712249
0.712265
0.71228
0.712297
0.712314
0.712332
0.712351
0.71237
0.71239
0.712411
0.712433
0.712455
0.712479
0.712502
0.712527
0.712552
0.712578
0.712604
0.71263
0.712657
0.712684
0.712711
0.712739
0.712766
0.712793
0.712819
0.712845
0.71287
0.712894
0.712917
0.712939
0.71296
0.712979
0.712997
0.713014
0.713029
0.713043
0.713055
0.713066
0.713076
0.713085
0.713093
0.7131
0.713107
0.713113
0.713119
0.713125
0.71313
0.713136
0.71314
0.713145
0.71315
0.713155
0.713159
0.713164
0.713169
0.713174
0.713178
0.713183
0.713188
0.713193
0.713198
0.713204
0.713209
0.713214
0.71322
0.712055
0.712042
0.712037
0.712031
0.712025
0.712021
0.712016
0.712013
0.712008
0.712006
0.712003
0.712002
0.712
0.711999
0.711998
0.711998
0.711998
0.711999
0.711999
0.712
0.712002
0.712004
0.712005
0.712008
0.71201
0.712013
0.712016
0.712019
0.712023
0.712027
0.712031
0.712035
0.71204
0.712045
0.71205
0.712056
0.712062
0.712068
0.712074
0.712081
0.712089
0.712096
0.712104
0.712113
0.712122
0.712131
0.712141
0.712152
0.712162
0.712174
0.712186
0.712199
0.712212
0.712226
0.71224
0.712255
0.712271
0.712287
0.712304
0.712322
0.71234
0.71236
0.71238
0.7124
0.712422
0.712443
0.712466
0.712489
0.712513
0.712537
0.712562
0.712587
0.712612
0.712638
0.712664
0.71269
0.712715
0.712741
0.712766
0.712791
0.712816
0.712839
0.712862
0.712884
0.712905
0.712925
0.712944
0.712962
0.712978
0.712993
0.713007
0.71302
0.713032
0.713044
0.713054
0.713063
0.713072
0.71308
0.713088
0.713095
0.713101
0.713107
0.713113
0.713119
0.713124
0.71313
0.713135
0.713141
0.713146
0.713151
0.713156
0.713162
0.713167
0.713172
0.713177
0.713182
0.713187
0.713192
0.713197
0.713202
0.713208
0.713213
0.713219
0.712075
0.712058
0.712051
0.712041
0.712035
0.712029
0.712023
0.712019
0.712014
0.712011
0.712007
0.712005
0.712003
0.712001
0.712
0.712
0.712
0.712
0.712
0.712002
0.712003
0.712005
0.712007
0.712009
0.712012
0.712015
0.712019
0.712022
0.712026
0.712031
0.712035
0.71204
0.712045
0.712051
0.712057
0.712063
0.71207
0.712077
0.712084
0.712092
0.7121
0.712108
0.712117
0.712127
0.712137
0.712147
0.712158
0.71217
0.712182
0.712195
0.712208
0.712222
0.712236
0.712251
0.712267
0.712284
0.712301
0.712319
0.712337
0.712356
0.712376
0.712397
0.712418
0.71244
0.712462
0.712485
0.712509
0.712533
0.712557
0.712582
0.712606
0.712631
0.712656
0.712681
0.712706
0.712731
0.712755
0.712779
0.712802
0.712824
0.712846
0.712867
0.712887
0.712906
0.712924
0.712941
0.712957
0.712972
0.712987
0.713
0.713012
0.713024
0.713034
0.713044
0.713053
0.713061
0.713069
0.713077
0.713084
0.713091
0.713098
0.713105
0.713111
0.713117
0.713123
0.713129
0.713135
0.71314
0.713146
0.713151
0.713156
0.713161
0.713166
0.713171
0.713176
0.713181
0.713186
0.713192
0.713197
0.713202
0.713207
0.713213
0.713218
0.712101
0.712081
0.712073
0.712059
0.712051
0.71204
0.712034
0.712026
0.712021
0.712015
0.712011
0.712007
0.712005
0.712003
0.712001
0.712
0.712
0.712
0.712001
0.712002
0.712004
0.712006
0.712008
0.712011
0.712014
0.712017
0.712021
0.712025
0.712029
0.712034
0.712039
0.712045
0.71205
0.712056
0.712063
0.712069
0.712077
0.712084
0.712092
0.7121
0.712109
0.712118
0.712128
0.712138
0.712149
0.71216
0.712172
0.712185
0.712197
0.712211
0.712225
0.71224
0.712255
0.712272
0.712288
0.712306
0.712324
0.712343
0.712362
0.712382
0.712403
0.712424
0.712446
0.712468
0.712491
0.712515
0.712538
0.712562
0.712586
0.712611
0.712635
0.712659
0.712683
0.712707
0.712731
0.712754
0.712777
0.712799
0.71282
0.712841
0.712861
0.71288
0.712898
0.712916
0.712932
0.712947
0.712962
0.712975
0.712988
0.713
0.713011
0.713022
0.713032
0.713042
0.713051
0.71306
0.713068
0.713077
0.713084
0.713091
0.713098
0.713105
0.713111
0.713117
0.713123
0.713128
0.713134
0.71314
0.713145
0.71315
0.713156
0.713161
0.713166
0.713171
0.713176
0.713182
0.713187
0.713192
0.713197
0.713202
0.713208
0.713213
0.713219
0.712112
0.712091
0.712081
0.712065
0.712056
0.712044
0.712037
0.712028
0.712022
0.712016
0.712012
0.712007
0.712005
0.712002
0.712001
0.711999
0.711999
0.711999
0.712
0.712001
0.712003
0.712005
0.712008
0.712011
0.712014
0.712018
0.712022
0.712026
0.71203
0.712035
0.712041
0.712046
0.712052
0.712059
0.712065
0.712072
0.71208
0.712088
0.712096
0.712105
0.712114
0.712123
0.712134
0.712144
0.712155
0.712167
0.712179
0.712192
0.712205
0.712219
0.712234
0.712249
0.712265
0.712281
0.712298
0.712316
0.712335
0.712354
0.712373
0.712394
0.712414
0.712436
0.712458
0.71248
0.712503
0.712526
0.71255
0.712573
0.712597
0.712621
0.712645
0.712669
0.712692
0.712715
0.712738
0.71276
0.712782
0.712803
0.712824
0.712844
0.712862
0.712881
0.712898
0.712914
0.71293
0.712945
0.712959
0.712973
0.712986
0.712998
0.71301
0.713021
0.713032
0.713041
0.71305
0.713059
0.713067
0.713075
0.713083
0.71309
0.713097
0.713103
0.71311
0.713116
0.713122
0.713128
0.713134
0.713139
0.713145
0.71315
0.713155
0.713161
0.713166
0.713171
0.713176
0.713181
0.713186
0.713192
0.713197
0.713202
0.713208
0.713213
0.713219
0.71212
0.712099
0.712088
0.712071
0.712062
0.712048
0.71204
0.712031
0.712024
0.712017
0.712013
0.712008
0.712005
0.712002
0.712001
0.712
0.712
0.712
0.712001
0.712002
0.712004
0.712006
0.712008
0.712011
0.712015
0.712018
0.712022
0.712027
0.712031
0.712036
0.712042
0.712048
0.712054
0.71206
0.712067
0.712074
0.712082
0.71209
0.712098
0.712107
0.712116
0.712126
0.712136
0.712147
0.712158
0.71217
0.712182
0.712195
0.712209
0.712223
0.712238
0.712253
0.712269
0.712285
0.712303
0.712321
0.712339
0.712358
0.712378
0.712398
0.712419
0.71244
0.712462
0.712485
0.712507
0.71253
0.712553
0.712577
0.7126
0.712624
0.712647
0.71267
0.712693
0.712716
0.712738
0.71276
0.712782
0.712803
0.712823
0.712843
0.712861
0.71288
0.712897
0.712914
0.71293
0.712945
0.712959
0.712973
0.712985
0.712997
0.713009
0.71302
0.71303
0.71304
0.713049
0.713058
0.713067
0.713075
0.713082
0.71309
0.713097
0.713103
0.71311
0.713116
0.713122
0.713128
0.713133
0.713139
0.713145
0.71315
0.713155
0.71316
0.713166
0.713171
0.713176
0.713181
0.713186
0.713192
0.713197
0.713202
0.713208
0.713213
0.713219
0.71212
0.712099
0.712087
0.71207
0.71206
0.712047
0.712039
0.712029
0.712022
0.712015
0.712011
0.712006
0.712003
0.712
0.711999
0.711997
0.711997
0.711997
0.711998
0.712
0.712001
0.712004
0.712006
0.712009
0.712013
0.712016
0.712021
0.712025
0.71203
0.712035
0.71204
0.712046
0.712052
0.712059
0.712065
0.712073
0.71208
0.712088
0.712097
0.712105
0.712115
0.712124
0.712135
0.712145
0.712156
0.712168
0.712181
0.712193
0.712207
0.712221
0.712235
0.712251
0.712267
0.712283
0.7123
0.712318
0.712336
0.712355
0.712375
0.712395
0.712416
0.712437
0.712459
0.712481
0.712503
0.712526
0.712549
0.712573
0.712596
0.712619
0.712643
0.712666
0.712689
0.712712
0.712735
0.712757
0.712778
0.712799
0.71282
0.71284
0.712859
0.712877
0.712894
0.712911
0.712927
0.712942
0.712957
0.71297
0.712983
0.712996
0.713008
0.713019
0.713029
0.713039
0.713049
0.713057
0.713066
0.713074
0.713082
0.713089
0.713096
0.713103
0.713109
0.713116
0.713122
0.713127
0.713133
0.713139
0.713144
0.71315
0.713155
0.71316
0.713165
0.713171
0.713176
0.713181
0.713186
0.713191
0.713197
0.713202
0.713207
0.713213
0.713219
)
;

boundaryField
{
    inlet
    {
        type            zeroGradient;
    }
    outlet
    {
        type            fixedValue;
        value           nonuniform 0();
    }
    walls
    {
        type            zeroGradient;
    }
    symwall
    {
        type            empty;
    }
    procBoundary2to0
    {
        type            processor;
        value           nonuniform List<scalar> 
133
(
0.712073
0.712077
0.712083
0.712089
0.712095
0.712101
0.712107
0.712114
0.712121
0.712128
0.712136
0.712143
0.712151
0.71216
0.712168
0.712178
0.712187
0.712197
0.712208
0.712219
0.71223
0.712242
0.712255
0.712269
0.712283
0.712299
0.712315
0.712333
0.712351
0.712371
0.712393
0.712416
0.712441
0.712467
0.712496
0.712526
0.712558
0.712592
0.712628
0.712666
0.712705
0.712746
0.712788
0.71283
0.712873
0.712916
0.712958
0.713
0.713039
0.713077
0.713113
0.713145
0.713175
0.713202
0.713226
0.713247
0.713264
0.713279
0.713291
0.7133
0.713307
0.713312
0.713315
0.713317
0.713317
0.713317
0.713316
0.713314
0.713313
0.713311
0.713309
0.713308
0.713306
0.713305
0.713304
0.713304
0.713304
0.712247
0.712205
0.712198
0.712157
0.712144
0.712101
0.712086
0.712034
0.712024
0.711952
0.711969
0.711996
0.711989
0.711995
0.711989
0.711992
0.711989
0.71199
0.711989
0.71199
0.711989
0.71199
0.71199
0.711991
0.711991
0.711992
0.711992
0.711993
0.711994
0.711995
0.711996
0.711997
0.711999
0.712
0.712002
0.712004
0.712006
0.712008
0.71201
0.712013
0.712015
0.712018
0.712021
0.712024
0.712027
0.712031
0.712035
0.712038
0.712042
0.712047
0.712051
0.712056
0.712061
0.712066
0.712071
0.712071
)
;
    }
    procBoundary2to1
    {
        type            processor;
        value           uniform 0.713305;
    }
    procBoundary2to3
    {
        type            processor;
        value           nonuniform List<scalar> 10(0.713266 0.713242 0.71323 0.713225 0.713224 0.713224 0.713224 0.713225 0.713225 0.713224);
    }
}


// ************************************************************************* //
