/*--------------------------------*- C++ -*----------------------------------*\
| =========                 |                                                 |
| \\      /  F ield         | OpenFOAM: The Open Source CFD Toolbox           |
|  \\    /   O peration     | Version:  4.1                                   |
|   \\  /    A nd           | Web:      www.OpenFOAM.org                      |
|    \\/     M anipulation  |                                                 |
\*---------------------------------------------------------------------------*/
FoamFile
{
    version     2.0;
    format      ascii;
    class       volVectorField;
    location    "0.0369";
    object      U;
}
// * * * * * * * * * * * * * * * * * * * * * * * * * * * * * * * * * * * * * //

dimensions      [0 1 -1 0 0 0 0];

internalField   nonuniform List<vector> 
441
(
(-9.64399e-05 7.5575e-05 0)
(-0.000488514 0.000285676 0)
(-0.00110435 0.000505927 0)
(-0.00189725 0.000665647 0)
(-0.00279209 0.000746877 0)
(-0.00370708 0.000750735 0)
(-0.00456618 0.000686386 0)
(-0.00530489 0.000566321 0)
(-0.00587242 0.000404067 0)
(-0.00623215 0.00021319 0)
(-0.00636136 7.08848e-06 0)
(-0.00625107 -0.000200783 0)
(-0.0059063 -0.000396529 0)
(-0.0053468 -0.000565527 0)
(-0.00460796 -0.000692479 0)
(-0.00374144 -0.000762059 0)
(-0.00281453 -0.000760405 0)
(-0.00190718 -0.000677883 0)
(-0.00110501 -0.000514101 0)
(-0.000485419 -0.000288882 0)
(-9.49036e-05 -7.52313e-05 0)
(-0.000355014 0.000439968 0)
(-0.0015793 0.00138384 0)
(-0.00331962 0.00224649 0)
(-0.00545169 0.0028525 0)
(-0.0077964 0.00314622 0)
(-0.0101601 0.00313311 0)
(-0.0123613 0.00284884 0)
(-0.0142447 0.00234259 0)
(-0.0156871 0.00166802 0)
(-0.0165994 0.000879183 0)
(-0.0169261 2.95561e-05 0)
(-0.0166458 -0.000827151 0)
(-0.0157708 -0.00163548 0)
(-0.0143496 -0.00233709 0)
(-0.0124682 -0.00287105 0)
(-0.0102516 -0.00317654 0)
(-0.00786085 -0.00319887 0)
(-0.00548628 -0.00290042 0)
(-0.00333031 -0.00227854 0)
(-0.00157776 -0.00139625 0)
(-0.000353181 -0.000439051 0)
(-0.000646334 0.00106729 0)
(-0.00271027 0.00308213 0)
(-0.00549074 0.00478019 0)
(-0.00878924 0.00592884 0)
(-0.0123474 0.00645455 0)
(-0.0158921 0.0063781 0)
(-0.0191685 0.00577167 0)
(-0.0219585 0.00473167 0)
(-0.0240891 0.00336287 0)
(-0.025435 0.00177078 0)
(-0.0259183 5.98206e-05 0)
(-0.0255082 -0.00166514 0)
(-0.0242222 -0.00329587 0)
(-0.0221276 -0.00471852 0)
(-0.0193448 -0.00581419 0)
(-0.0160483 -0.006464 0)
(-0.0124643 -0.00656049 0)
(-0.00885998 -0.00602715 0)
(-0.00552155 -0.00484797 0)
(-0.00271679 -0.0031105 0)
(-0.000646026 -0.00106737 0)
(-0.000930324 0.00196006 0)
(-0.0038076 0.00538605 0)
(-0.00757124 0.00810818 0)
(-0.0119426 0.0098813 0)
(-0.0165875 0.0106413 0)
(-0.0211654 0.0104423 0)
(-0.025365 0.00940651 0)
(-0.028923 0.00768886 0)
(-0.031632 0.00545524 0)
(-0.0333427 0.00287149 0)
(-0.033962 0.00010101 0)
(-0.0334525 -0.0026924 0)
(-0.0318331 -0.00533962 0)
(-0.0291821 -0.0076623 0)
(-0.0256411 -0.00947323 0)
(-0.0214182 -0.0105836 0)
(-0.0167865 -0.0108198 0)
(-0.0120737 -0.0100512 0)
(-0.00763893 -0.00823001 0)
(-0.00383107 -0.00544172 0)
(-0.000933741 -0.00196418 0)
(-0.00120636 0.00311547 0)
(-0.00488039 0.00829702 0)
(-0.00960279 0.0122365 0)
(-0.015008 0.0147114 0)
(-0.0206821 0.0156975 0)
(-0.0262207 0.015306 0)
(-0.031264 0.0137271 0)
(-0.0355144 0.0111882 0)
(-0.0387414 0.00792605 0)
(-0.0407807 0.00417413 0)
(-0.0415296 0.000160159 0)
(-0.0409454 -0.00388856 0)
(-0.0390453 -0.00773704 0)
(-0.035911 -0.0111359 0)
(-0.031695 -0.0138204 0)
(-0.0266267 -0.0155192 0)
(-0.0210152 -0.015976 0)
(-0.0152414 -0.0149852 0)
(-0.00973607 -0.0124418 0)
(-0.00493592 -0.0083995 0)
(-0.00121723 -0.00312971 0)
(-0.00148412 0.0045369 0)
(-0.00596562 0.0118276 0)
(-0.0116565 0.0171832 0)
(-0.0180957 0.0204342 0)
(-0.0247842 0.0216289 0)
(-0.031253 0.0209641 0)
(-0.0370994 0.018721 0)
(-0.0419999 0.0152153 0)
(-0.0457105 0.0107654 0)
(-0.0480594 0.00567796 0)
(-0.0489397 0.000247773 0)
(-0.0483041 -0.00523305 0)
(-0.0461651 -0.0104619 0)
(-0.0426004 -0.0151142 0)
(-0.037763 -0.0188394 0)
(-0.0318931 -0.0212697 0)
(-0.0253266 -0.0220455 0)
(-0.0184936 -0.0208594 0)
(-0.0118989 -0.0175175 0)
(-0.00607666 -0.0120091 0)
(-0.00150827 -0.0045726 0)
(-0.00177418 0.00623843 0)
(-0.00710226 0.0160082 0)
(-0.0137991 0.0229826 0)
(-0.0212962 0.0270769 0)
(-0.0290024 0.0284491 0)
(-0.0363846 0.0274164 0)
(-0.043003 0.0243781 0)
(-0.0485178 0.0197573 0)
(-0.0526815 0.0139645 0)
(-0.0553242 0.00738397 0)
(-0.0563401 0.000377159 0)
(-0.0556788 -0.0067015 0)
(-0.0533443 -0.0134838 0)
(-0.0494023 -0.0195687 0)
(-0.0439952 -0.024513 0)
(-0.0373612 -0.0278371 0)
(-0.0298521 -0.0290536 0)
(-0.0219413 -0.0277198 0)
(-0.0142103 -0.023513 0)
(-0.0073017 -0.0163189 0)
(-0.00181993 -0.00631486 0)
(-0.00208424 0.00824407 0)
(-0.00831778 0.0208841 0)
(-0.0160714 0.0296782 0)
(-0.0246529 0.0346666 0)
(-0.0333722 0.0361635 0)
(-0.0416349 0.0346484 0)
(-0.0489738 0.0306719 0)
(-0.0550462 0.0247857 0)
(-0.0596151 0.0175031 0)
(-0.0625239 0.00928766 0)
(-0.0636756 0.000563231 0)
(-0.0630188 -0.00826061 0)
(-0.0605455 -0.0167569 0)
(-0.0563 -0.0244512 0)
(-0.0503998 -0.030803 0)
(-0.0430641 -0.0352059 0)
(-0.0346445 -0.037016 0)
(-0.0256464 -0.0356137 0)
(-0.0167266 -0.0304973 0)
(-0.00864825 -0.0213973 0)
(-0.0021625 -0.00839136 0)
(-0.00241667 0.0105845 0)
(-0.00961891 0.026506 0)
(-0.0184717 0.0373075 0)
(-0.0281386 0.0432101 0)
(-0.0378254 0.0447446 0)
(-0.0468849 0.0426062 0)
(-0.054839 0.0375355 0)
(-0.0613624 0.0302362 0)
(-0.0662475 0.021334 0)
(-0.0693672 0.0113698 0)
(-0.0706433 0.000820423 0)
(-0.0700274 -0.00986259 0)
(-0.0674959 -0.0202068 0)
(-0.063061 -0.0296736 0)
(-0.0567975 -0.0376253 0)
(-0.0488824 -0.0433148 0)
(-0.0396419 -0.045911 0)
(-0.029593 -0.0445668 0)
(-0.0194585 -0.0385354 0)
(-0.010132 -0.0273222 0)
(-0.00254093 -0.0108466 0)
(-0.0027663 0.013292 0)
(-0.0109831 0.0329153 0)
(-0.0209385 0.0458787 0)
(-0.0316289 0.0526642 0)
(-0.0421556 0.0541001 0)
(-0.0518362 0.0511636 0)
(-0.0602087 0.0448313 0)
(-0.0669941 0.0359834 0)
(-0.0720407 0.0253642 0)
(-0.0752709 0.0135849 0)
(-0.0766393 0.00115936 0)
(-0.0761063 -0.0114399 0)
(-0.0736306 -0.0237164 0)
(-0.0691805 -0.0350848 0)
(-0.0627665 -0.044818 0)
(-0.054493 -0.0520202 0)
(-0.0446246 -0.0556409 0)
(-0.0336547 -0.0545467 0)
(-0.02235 -0.0476609 0)
(-0.0117366 -0.0341643 0)
(-0.00295215 -0.0137291 0)
(-0.00311759 0.016394 0)
(-0.0123479 0.040125 0)
(-0.02333 0.0553401 0)
(-0.0348706 0.0628972 0)
(-0.0459765 0.0640304 0)
(-0.0559622 0.0600824 0)
(-0.0644231 0.0523166 0)
(-0.0711657 0.0418129 0)
(-0.0761275 0.0294346 0)
(-0.0793056 0.0158487 0)
(-0.0807036 0.00158206 0)
(-0.0802994 -0.0129014 0)
(-0.078033 -0.0271122 0)
(-0.0738183 -0.0404464 0)
(-0.0675784 -0.0521073 0)
(-0.059308 -0.0610515 0)
(-0.049161 -0.0659827 0)
(-0.0375532 -0.0654156 0)
(-0.0252508 -0.0578362 0)
(-0.0134002 -0.0419631 0)
(-0.00338162 -0.0170841 0)
(-0.00344011 0.019905 0)
(-0.0135948 0.0480943 0)
(-0.0253934 0.0655393 0)
(-0.0374369 0.0736393 0)
(-0.0486666 0.0741793 0)
(-0.0584482 0.068967 0)
(-0.0664923 0.0596066 0)
(-0.0727415 0.0473932 0)
(-0.0772605 0.0333 0)
(-0.0801475 0.0180253 0)
(-0.081473 0.00207569 0)
(-0.0812417 -0.0141315 0)
(-0.0793784 -0.0301546 0)
(-0.0757356 -0.0454121 0)
(-0.0701282 -0.0590721 0)
(-0.0624018 -0.0699629 0)
(-0.0525389 -0.0765287 0)
(-0.0408007 -0.076868 0)
(-0.0278778 -0.0689003 0)
(-0.0149947 -0.0506933 0)
(-0.00379787 -0.020943 0)
(-0.00368078 0.0238155 0)
(-0.0145218 0.0566947 0)
(-0.0267162 0.0761701 0)
(-0.0386606 0.0844219 0)
(-0.0492935 0.083976 0)
(-0.0581159 0.0772188 0)
(-0.06503 0.0661411 0)
(-0.0701718 0.0522539 0)
(-0.07377 0.0366152 0)
(-0.0760467 0.0199176 0)
(-0.0771526 0.0026057 0)
(-0.0771299 -0.0149943 0)
(-0.0758948 -0.0325372 0)
(-0.0732403 -0.0495161 0)
(-0.0688626 -0.0651177 0)
(-0.0624255 -0.0780861 0)
(-0.0536748 -0.0866203 0)
(-0.0426183 -0.0883544 0)
(-0.0297533 -0.0804984 0)
(-0.0162922 -0.0602192 0)
(-0.00414334 -0.0253088 0)
(-0.00374878 0.0280778 0)
(-0.0147917 0.0656637 0)
(-0.0266384 0.0867019 0)
(-0.0375244 0.0945035 0)
(-0.0465006 0.0925754 0)
(-0.053324 0.0839966 0)
(-0.0581788 0.0711659 0)
(-0.0614466 0.0557806 0)
(-0.0635443 0.0389353 0)
(-0.0648255 0.0212667 0)
(-0.0655248 0.00311001 0)
(-0.0657278 -0.0153456 0)
(-0.0653547 -0.0339009 0)
(-0.0641543 -0.0521836 0)
(-0.0617152 -0.0694711 0)
(-0.0575085 -0.0845005 0)
(-0.0509925 -0.0952854 0)
(-0.0418111 -0.0989924 0)
(-0.0301043 -0.0919894 0)
(-0.016905 -0.0702294 0)
(-0.00431764 -0.0301353 0)
(-0.00348445 0.0325805 0)
(-0.013826 0.0745332 0)
(-0.024088 0.0962822 0)
(-0.0324705 0.102783 0)
(-0.0383303 0.0988053 0)
(-0.0418331 0.0882024 0)
(-0.0435276 0.0737456 0)
(-0.0440657 0.0572412 0)
(-0.0440433 0.0397425 0)
(-0.0439243 0.021768 0)
(-0.0440107 0.00349772 0)
(-0.0444289 -0.0150532 0)
(-0.0451193 -0.033872 0)
(-0.0458213 -0.0527768 0)
(-0.0460597 -0.0712189 0)
(-0.0451491 -0.0880418 0)
(-0.0422552 -0.1012 0)
(-0.0365716 -0.107475 0)
(-0.0276834 -0.102327 0)
(-0.0161704 -0.0801416 0)
(-0.00414466 -0.0352939 0)
(-0.00259013 0.0371016 0)
(-0.0105777 0.0825102 0)
(-0.0172555 0.103598 0)
(-0.0210653 0.107707 0)
(-0.0219483 0.101146 0)
(-0.0206227 0.0885211 0)
(-0.0180271 0.0728378 0)
(-0.0150394 0.0558676 0)
(-0.0123649 0.0385146 0)
(-0.0105126 0.0211137 0)
(-0.00980604 0.00365773 0)
(-0.0103957 -0.0140273 0)
(-0.0122593 -0.0321294 0)
(-0.01518 -0.0506919 0)
(-0.0187065 -0.0694158 0)
(-0.0221047 -0.0873894 0)
(-0.0243392 -0.10271 0)
(-0.0241616 -0.112 0)
(-0.020438 -0.109907 0)
(-0.0129151 -0.0889542 0)
(-0.00330249 -0.0405139 0)
(-0.000457767 0.041195 0)
(-0.00301556 0.0882479 0)
(-0.00294442 0.106676 0)
(0.000586247 0.107201 0)
(0.00677158 0.0977952 0)
(0.014332 0.0835669 0)
(0.0220696 0.0674667 0)
(0.0290489 0.051017 0)
(0.0346088 0.0348512 0)
(0.0383127 0.0190721 0)
(0.0398917 0.0034836 0)
(0.0392045 -0.012254 0)
(0.0362248 -0.028502 0)
(0.0310618 -0.0455185 0)
(0.0240185 -0.0632926 0)
(0.0156851 -0.0812832 0)
(0.00705466 -0.0979917 0)
(-0.000405501 -0.110279 0)
(-0.00488597 -0.112396 0)
(-0.00493924 -0.0949925 0)
(-0.00115178 -0.0452555 0)
(0.00432474 0.0439528 0)
(0.01311 0.0894567 0)
(0.0247346 0.102666 0)
(0.0388133 0.0987432 0)
(0.0537984 0.0869376 0)
(0.0682616 0.0722244 0)
(0.081168 0.0570453 0)
(0.0918575 0.0424334 0)
(0.0999457 0.0286625 0)
(0.105219 0.0156036 0)
(0.107552 0.00291917 0)
(0.106856 -0.00982479 0)
(0.10306 -0.0230826 0)
(0.0961138 -0.0372547 0)
(0.0860465 -0.0525793 0)
(0.0730606 -0.0689358 0)
(0.0576998 -0.0854597 0)
(0.0410761 -0.0997867 0)
(0.0250801 -0.106643 0)
(0.0121865 -0.0955288 0)
(0.00375871 -0.048449 0)
(0.0158891 0.0431481 0)
(0.0473749 0.0818598 0)
(0.0768604 0.0876064 0)
(0.103763 0.0797766 0)
(0.127442 0.0673986 0)
(0.147561 0.0542705 0)
(0.164022 0.0418626 0)
(0.176869 0.03059 0)
(0.186221 0.0203923 0)
(0.192198 0.0109933 0)
(0.194877 0.00201956 0)
(0.194256 -0.00694376 0)
(0.190236 -0.0163222 0)
(0.182614 -0.0265254 0)
(0.171093 -0.0379028 0)
(0.155315 -0.0506465 0)
(0.134941 -0.064557 0)
(0.109819 -0.0784597 0)
(0.0803659 -0.0887669 0)
(0.0480898 -0.0859075 0)
(0.0156085 -0.0476492 0)
(0.0496031 0.0349005 0)
(0.122913 0.0596677 0)
(0.174256 0.0580929 0)
(0.210841 0.0496343 0)
(0.238208 0.0401943 0)
(0.259041 0.0314152 0)
(0.274863 0.0237077 0)
(0.286594 0.0170342 0)
(0.294841 0.0111969 0)
(0.300002 0.00594183 0)
(0.302306 0.000997221 0)
(0.301825 -0.00391245 0)
(0.298471 -0.00906248 0)
(0.291979 -0.0147255 0)
(0.281862 -0.0211647 0)
(0.267333 -0.0286147 0)
(0.247144 -0.0372227 0)
(0.219265 -0.0468531 0)
(0.18047 -0.0564032 0)
(0.125319 -0.0605404 0)
(0.0497227 -0.0385711 0)
(0.182893 0.0046946 0)
(0.29691 0.00841436 0)
(0.351068 0.0120426 0)
(0.378746 0.0118614 0)
(0.395848 0.0100817 0)
(0.407378 0.00800327 0)
(0.415503 0.0060541 0)
(0.421234 0.00433346 0)
(0.425124 0.00282273 0)
(0.427493 0.00146483 0)
(0.428518 0.000191307 0)
(0.428265 -0.00106786 0)
(0.426698 -0.00237966 0)
(0.423666 -0.00380271 0)
(0.418858 -0.00537521 0)
(0.411691 -0.00708547 0)
(0.401024 -0.00879829 0)
(0.384334 -0.010092 0)
(0.355814 -0.00992936 0)
(0.298547 -0.00717927 0)
(0.181168 -0.00733629 0)
)
;

boundaryField
{
    movingWall
    {
        type            fixedValue;
        value           uniform (0.5 0 0);
    }
    fixedWalls
    {
        type            noSlip;
    }
    frontAndBack
    {
        type            empty;
    }
}


// ************************************************************************* //
