/*--------------------------------*- C++ -*----------------------------------*\
| =========                 |                                                 |
| \\      /  F ield         | OpenFOAM: The Open Source CFD Toolbox           |
|  \\    /   O peration     | Version:  4.1                                   |
|   \\  /    A nd           | Web:      www.OpenFOAM.org                      |
|    \\/     M anipulation  |                                                 |
\*---------------------------------------------------------------------------*/
FoamFile
{
    version     2.0;
    format      ascii;
    class       volVectorField;
    location    "897";
    object      U;
}
// * * * * * * * * * * * * * * * * * * * * * * * * * * * * * * * * * * * * * //

dimensions      [0 1 -1 0 0 0 0];

internalField   nonuniform List<vector> 
3264
(
(-2.66648e-06 -4.7577e-07 0)
(-0.0001332 3.0569e-05 0)
(-0.000389823 4.86696e-05 0)
(-0.00067707 5.10074e-05 0)
(-0.000978964 5.27301e-05 0)
(-0.00128487 5.21308e-05 0)
(-0.00158943 5.34228e-05 0)
(-0.00189401 5.40541e-05 0)
(-0.00219397 5.51409e-05 0)
(-0.00249 5.57439e-05 0)
(-0.00277951 5.62721e-05 0)
(-0.00306266 5.64799e-05 0)
(-0.00333833 5.65284e-05 0)
(-0.00360656 5.63779e-05 0)
(-0.00386697 5.60999e-05 0)
(-0.00411961 5.57046e-05 0)
(-0.00436441 5.52283e-05 0)
(-0.00460144 5.4687e-05 0)
(-0.00483074 5.41005e-05 0)
(-0.00505239 5.34805e-05 0)
(-0.00526645 5.28375e-05 0)
(-0.00547299 5.2178e-05 0)
(-0.00567205 5.15065e-05 0)
(-0.00586364 5.08249e-05 0)
(-0.00604777 5.01332e-05 0)
(-0.00622439 4.9429e-05 0)
(-0.00639343 4.87084e-05 0)
(-0.00655476 4.79651e-05 0)
(-0.00670825 4.7191e-05 0)
(-0.00685366 4.63761e-05 0)
(-0.00699075 4.55082e-05 0)
(-0.00711921 4.45733e-05 0)
(-0.00723866 4.35556e-05 0)
(-0.00734868 4.24373e-05 0)
(-0.00744879 4.11994e-05 0)
(-0.00753846 3.98213e-05 0)
(-0.00761709 3.82818e-05 0)
(-0.00768404 3.65592e-05 0)
(-0.00773862 3.46317e-05 0)
(-0.00778012 3.24786e-05 0)
(-0.00780779 3.008e-05 0)
(-0.00782084 2.74186e-05 0)
(-0.0078185 2.44794e-05 0)
(-0.00779999 2.12512e-05 0)
(-0.00776455 1.77268e-05 0)
(-0.00771146 1.39038e-05 0)
(-0.00764004 9.78518e-06 0)
(-0.00754966 5.37961e-06 0)
(-0.0074398 7.01775e-07 0)
(-0.00731 -4.2275e-06 0)
(-0.00715992 -9.38126e-06 0)
(-0.00698935 -1.47266e-05 0)
(-0.00679821 -2.02251e-05 0)
(-0.00658654 -2.58332e-05 0)
(-0.00635454 -3.1503e-05 0)
(-0.00610258 -3.71832e-05 0)
(-0.00583117 -4.28195e-05 0)
(-0.00554098 -4.83561e-05 0)
(-0.00523285 -5.37367e-05 0)
(-0.00490775 -5.89054e-05 0)
(-0.00456681 -6.38079e-05 0)
(-0.0042113 -6.83925e-05 0)
(-0.0038426 -7.26113e-05 0)
(-0.00346221 -7.6421e-05 0)
(-0.00307172 -7.97838e-05 0)
(-0.00267281 -8.26682e-05 0)
(-0.0022672 -8.50496e-05 0)
(-0.00185667 -8.69105e-05 0)
(-0.00144302 -8.8241e-05 0)
(-0.00102804 -8.90391e-05 0)
(-0.000613495 -8.93101e-05 0)
(-0.000201135 -8.90667e-05 0)
(0.000207367 -8.83288e-05 0)
(0.000610403 -8.71226e-05 0)
(0.00100646 -8.54798e-05 0)
(0.00139414 -8.34372e-05 0)
(0.00177213 -8.10359e-05 0)
(0.0021393 -7.83197e-05 0)
(0.0024946 -7.53347e-05 0)
(0.00283715 -7.21282e-05 0)
(0.00316623 -6.87476e-05 0)
(0.00348123 -6.52396e-05 0)
(0.00378171 -6.16494e-05 0)
(0.00406736 -5.80198e-05 0)
(0.00433802 -5.43909e-05 0)
(0.00459364 -5.0799e-05 0)
(0.00483431 -4.7277e-05 0)
(0.00506021 -4.38533e-05 0)
(0.00527164 -4.05525e-05 0)
(0.00546897 -3.73947e-05 0)
(0.00565265 -3.43959e-05 0)
(0.00582321 -3.1568e-05 0)
(0.00598121 -2.89195e-05 0)
(0.00612728 -2.6455e-05 0)
(0.00626205 -2.41763e-05 0)
(0.0063862 -2.20824e-05 0)
(0.0065004 -2.017e-05 0)
(0.00660532 -1.84338e-05 0)
(0.00670165 -1.68667e-05 0)
(0.00679005 -1.54607e-05 0)
(0.00687116 -1.42065e-05 0)
(0.00694562 -1.30946e-05 0)
(0.00701401 -1.21146e-05 0)
(0.00707692 -1.12563e-05 0)
(0.00713489 -1.05095e-05 0)
(0.00718841 -9.86395e-06 0)
(0.00723798 -9.30988e-06 0)
(0.00728402 -8.83788e-06 0)
(0.00732696 -8.43901e-06 0)
(0.00736715 -8.10484e-06 0)
(0.00740495 -7.8275e-06 0)
(0.00744066 -7.59967e-06 0)
(0.00747458 -7.41463e-06 0)
(0.00750693 -7.26621e-06 0)
(0.00753797 -7.14879e-06 0)
(0.00756787 -7.05729e-06 0)
(0.00759683 -6.98715e-06 0)
(0.00762499 -6.93425e-06 0)
(0.00765248 -6.89498e-06 0)
(0.00767943 -6.8661e-06 0)
(0.00770593 -6.8448e-06 0)
(0.00773206 -6.82862e-06 0)
(0.00775788 -6.81542e-06 0)
(0.00778347 -6.80337e-06 0)
(0.00780885 -6.79094e-06 0)
(0.00783406 -6.77682e-06 0)
(0.00785913 -6.75994e-06 0)
(0.00788408 -6.73945e-06 0)
(0.00790891 -6.71465e-06 0)
(0.00793363 -6.68503e-06 0)
(0.00795824 -6.6502e-06 0)
(0.00798273 -6.60993e-06 0)
(0.0080071 -6.56407e-06 0)
(0.00803134 -6.51257e-06 0)
(0.00805543 -6.45548e-06 0)
(0.00807935 -6.3929e-06 0)
(0.0081031 -6.32501e-06 0)
(0.00812665 -6.25202e-06 0)
(0.00814999 -6.17419e-06 0)
(0.0081731 -6.09181e-06 0)
(0.00819596 -6.0052e-06 0)
(0.00821855 -5.91468e-06 0)
(0.00824085 -5.82061e-06 0)
(0.00826286 -5.72332e-06 0)
(0.00828455 -5.62318e-06 0)
(0.00830592 -5.52054e-06 0)
(0.00832693 -5.41574e-06 0)
(0.00834759 -5.30912e-06 0)
(0.00836789 -5.20102e-06 0)
(0.0083878 -5.09174e-06 0)
(0.00840733 -4.98159e-06 0)
(0.00842646 -4.87086e-06 0)
(0.00844519 -4.75983e-06 0)
(0.00846351 -4.64874e-06 0)
(0.00848141 -4.53783e-06 0)
(0.0084989 -4.42733e-06 0)
(0.00851597 -4.31745e-06 0)
(0.00853261 -4.20836e-06 0)
(0.00854883 -4.10024e-06 0)
(0.00856463 -3.99324e-06 0)
(0.00858001 -3.8875e-06 0)
(0.00859496 -3.78315e-06 0)
(0.0086095 -3.68028e-06 0)
(0.00862362 -3.579e-06 0)
(0.00863732 -3.47939e-06 0)
(0.00865062 -3.3815e-06 0)
(0.00866352 -3.2854e-06 0)
(0.00867601 -3.19113e-06 0)
(0.00868811 -3.09873e-06 0)
(0.00869982 -3.0082e-06 0)
(0.00871115 -2.91957e-06 0)
(0.00872211 -2.83283e-06 0)
(0.00873269 -2.74797e-06 0)
(0.00874291 -2.66498e-06 0)
(0.00875278 -2.58382e-06 0)
(0.00876229 -2.50445e-06 0)
(0.00877147 -2.42681e-06 0)
(0.0087803 -2.35082e-06 0)
(0.00878881 -2.2764e-06 0)
(0.008797 -2.20341e-06 0)
(0.00880486 -2.13168e-06 0)
(0.00881242 -2.06102e-06 0)
(0.00881967 -1.99113e-06 0)
(0.00882662 -1.92163e-06 0)
(0.00883327 -1.85199e-06 0)
(0.00883963 -1.78148e-06 0)
(0.00884568 -1.70908e-06 0)
(0.00885144 -1.63338e-06 0)
(0.00885688 -1.55221e-06 0)
(0.008862 -1.46327e-06 0)
(0.00886677 -1.36045e-06 0)
(0.00887114 -1.244e-06 0)
(0.00887509 -1.08862e-06 0)
(0.00887845 -9.25742e-07 0)
(0.00888134 -6.40129e-07 0)
(0.0088829 -4.03654e-07 0)
(0.0088847 1.27457e-07 0)
(0.00888207 7.22536e-07 0)
(0.00888365 1.04251e-06 0)
(0.00887204 4.37663e-06 0)
(-8.33557e-05 0.000136425 0)
(-0.000582893 0.000379261 0)
(-0.0013113 0.000518318 0)
(-0.00208586 0.000562391 0)
(-0.00286548 0.000583329 0)
(-0.00363326 0.000585002 0)
(-0.00437586 0.000584893 0)
(-0.00509615 0.000578134 0)
(-0.00578691 0.00056912 0)
(-0.00645032 0.000556836 0)
(-0.00708365 0.000543067 0)
(-0.00768829 0.000527995 0)
(-0.00826387 0.000512337 0)
(-0.00881147 0.000496319 0)
(-0.00933155 0.000480218 0)
(-0.00982504 0.000464154 0)
(-0.0102926 0.000448222 0)
(-0.0107349 0.000432462 0)
(-0.0111527 0.000416892 0)
(-0.0115464 0.000401502 0)
(-0.0119165 0.000386271 0)
(-0.0122633 0.000371161 0)
(-0.0125872 0.000356127 0)
(-0.0128884 0.000341113 0)
(-0.0131668 0.000326055 0)
(-0.0134225 0.000310882 0)
(-0.0136554 0.000295516 0)
(-0.0138652 0.000279873 0)
(-0.0140516 0.000263864 0)
(-0.0142143 0.000247393 0)
(-0.0143527 0.000230363 0)
(-0.0144662 0.000212672 0)
(-0.0145542 0.000194218 0)
(-0.014616 0.0001749 0)
(-0.0146506 0.000154619 0)
(-0.0146573 0.000133281 0)
(-0.0146351 0.0001108 0)
(-0.0145832 8.70982e-05 0)
(-0.0145004 6.21124e-05 0)
(-0.0143859 3.57938e-05 0)
(-0.0142387 8.11143e-06 0)
(-0.0140579 -2.09455e-05 0)
(-0.0138427 -5.13654e-05 0)
(-0.0135922 -8.31128e-05 0)
(-0.0133059 -0.000116127 0)
(-0.0129831 -0.00015032 0)
(-0.0126234 -0.00018558 0)
(-0.0122265 -0.000221766 0)
(-0.0117924 -0.000258712 0)
(-0.0113211 -0.00029623 0)
(-0.0108129 -0.000334108 0)
(-0.0102683 -0.000372116 0)
(-0.00968792 -0.000410005 0)
(-0.00907275 -0.000447514 0)
(-0.0084239 -0.000484373 0)
(-0.00774271 -0.000520306 0)
(-0.00703077 -0.000555033 0)
(-0.00628984 -0.000588279 0)
(-0.0055219 -0.000619775 0)
(-0.00472912 -0.000649264 0)
(-0.00391382 -0.000676502 0)
(-0.00307851 -0.000701266 0)
(-0.0022258 -0.000723354 0)
(-0.00135846 -0.000742591 0)
(-0.000479311 -0.000758828 0)
(0.000408726 -0.00077195 0)
(0.0013027 -0.000781872 0)
(0.00219962 -0.000788545 0)
(0.00309654 -0.000791954 0)
(0.0039905 -0.000792118 0)
(0.00487862 -0.000789092 0)
(0.0057581 -0.000782962 0)
(0.00662625 -0.000773848 0)
(0.00748049 -0.000761898 0)
(0.0083184 -0.000747288 0)
(0.00913773 -0.000730217 0)
(0.00993641 -0.000710903 0)
(0.0107126 -0.000689582 0)
(0.0114645 -0.000666502 0)
(0.0121908 -0.00064192 0)
(0.0128901 -0.000616096 0)
(0.0135616 -0.000589292 0)
(0.0142044 -0.000561766 0)
(0.0148178 -0.000533767 0)
(0.0154017 -0.000505536 0)
(0.0159557 -0.000477301 0)
(0.01648 -0.000449274 0)
(0.0169748 -0.000421647 0)
(0.0174404 -0.000394597 0)
(0.0178775 -0.000368279 0)
(0.0182866 -0.000342826 0)
(0.0186687 -0.000318352 0)
(0.0190246 -0.000294951 0)
(0.0193554 -0.000272694 0)
(0.0196622 -0.000251637 0)
(0.019946 -0.000231815 0)
(0.0202081 -0.000213248 0)
(0.0204497 -0.00019594 0)
(0.020672 -0.000179883 0)
(0.0208763 -0.000165055 0)
(0.0210638 -0.000151426 0)
(0.0212357 -0.000138957 0)
(0.0213932 -0.0001276 0)
(0.0215375 -0.000117305 0)
(0.0216696 -0.000108015 0)
(0.0217906 -9.96707e-05 0)
(0.0219016 -9.22116e-05 0)
(0.0220035 -8.55757e-05 0)
(0.0220972 -7.97014e-05 0)
(0.0221835 -7.45276e-05 0)
(0.0222633 -6.99947e-05 0)
(0.0223373 -6.60449e-05 0)
(0.0224061 -6.26225e-05 0)
(0.0224704 -5.96746e-05 0)
(0.0225308 -5.7151e-05 0)
(0.0225877 -5.50044e-05 0)
(0.0226416 -5.31906e-05 0)
(0.022693 -5.16683e-05 0)
(0.0227423 -5.03996e-05 0)
(0.0227896 -4.93494e-05 0)
(0.0228355 -4.84855e-05 0)
(0.02288 -4.77789e-05 0)
(0.0229234 -4.72029e-05 0)
(0.022966 -4.67338e-05 0)
(0.0230078 -4.63501e-05 0)
(0.0230491 -4.60329e-05 0)
(0.0230899 -4.57654e-05 0)
(0.0231303 -4.55326e-05 0)
(0.0231704 -4.53218e-05 0)
(0.0232102 -4.51218e-05 0)
(0.0232499 -4.4923e-05 0)
(0.0232893 -4.47173e-05 0)
(0.0233286 -4.44981e-05 0)
(0.0233677 -4.42597e-05 0)
(0.0234066 -4.39978e-05 0)
(0.0234454 -4.37089e-05 0)
(0.023484 -4.33904e-05 0)
(0.0235223 -4.30404e-05 0)
(0.0235605 -4.2658e-05 0)
(0.0235983 -4.22425e-05 0)
(0.0236359 -4.17939e-05 0)
(0.0236731 -4.13127e-05 0)
(0.02371 -4.07997e-05 0)
(0.0237465 -4.0256e-05 0)
(0.0237826 -3.9683e-05 0)
(0.0238182 -3.90823e-05 0)
(0.0238533 -3.84557e-05 0)
(0.023888 -3.7805e-05 0)
(0.023922 -3.71323e-05 0)
(0.0239555 -3.64397e-05 0)
(0.0239884 -3.57291e-05 0)
(0.0240207 -3.50027e-05 0)
(0.0240524 -3.42626e-05 0)
(0.0240834 -3.35108e-05 0)
(0.0241137 -3.27493e-05 0)
(0.0241433 -3.19801e-05 0)
(0.0241722 -3.1205e-05 0)
(0.0242004 -3.04258e-05 0)
(0.0242278 -2.96442e-05 0)
(0.0242545 -2.88619e-05 0)
(0.0242805 -2.80803e-05 0)
(0.0243057 -2.7301e-05 0)
(0.0243302 -2.65252e-05 0)
(0.0243539 -2.57542e-05 0)
(0.0243769 -2.49891e-05 0)
(0.0243991 -2.42309e-05 0)
(0.0244206 -2.34807e-05 0)
(0.0244413 -2.27394e-05 0)
(0.0244613 -2.20075e-05 0)
(0.0244805 -2.1286e-05 0)
(0.024499 -2.05752e-05 0)
(0.0245169 -1.98759e-05 0)
(0.024534 -1.91883e-05 0)
(0.0245504 -1.85129e-05 0)
(0.0245661 -1.78499e-05 0)
(0.0245811 -1.71994e-05 0)
(0.0245955 -1.65615e-05 0)
(0.0246092 -1.59361e-05 0)
(0.0246223 -1.5323e-05 0)
(0.0246347 -1.4722e-05 0)
(0.0246466 -1.41323e-05 0)
(0.0246578 -1.35532e-05 0)
(0.0246684 -1.29836e-05 0)
(0.0246785 -1.24217e-05 0)
(0.0246879 -1.18654e-05 0)
(0.0246968 -1.13112e-05 0)
(0.0247051 -1.07549e-05 0)
(0.0247129 -1.01899e-05 0)
(0.02472 -9.60754e-06 0)
(0.0247266 -8.99508e-06 0)
(0.0247326 -8.33284e-06 0)
(0.0247379 -7.60365e-06 0)
(0.0247425 -6.73912e-06 0)
(0.0247463 -5.78716e-06 0)
(0.0247491 -4.40643e-06 0)
(0.0247508 -3.1187e-06 0)
(0.0247513 -5.98343e-07 0)
(0.0247485 1.73503e-06 0)
(0.0247472 4.46389e-06 0)
(0.0247338 1.39366e-05 0)
(-0.000178821 0.000644953 0)
(-0.00104289 0.00125395 0)
(-0.00216749 0.0015328 0)
(-0.00330451 0.00157417 0)
(-0.00439252 0.00156925 0)
(-0.00542087 0.00152586 0)
(-0.00637389 0.00148212 0)
(-0.00726265 0.00142962 0)
(-0.00808373 0.00137619 0)
(-0.00884529 0.00132017 0)
(-0.00954867 0.00126408 0)
(-0.010199 0.00120809 0)
(-0.0107987 0.00115301 0)
(-0.0113512 0.00109903 0)
(-0.0118587 0.00104635 0)
(-0.0123235 0.000994975 0)
(-0.0127475 0.000944866 0)
(-0.0131323 0.000895928 0)
(-0.0134793 0.000848033 0)
(-0.0137894 0.000801031 0)
(-0.0140638 0.00075476 0)
(-0.014303 0.000709044 0)
(-0.0145077 0.000663705 0)
(-0.0146782 0.000618556 0)
(-0.0148148 0.000573408 0)
(-0.0149177 0.000528067 0)
(-0.0149867 0.00048234 0)
(-0.0150219 0.000436028 0)
(-0.0150229 0.000388936 0)
(-0.0149894 0.00034087 0)
(-0.0149211 0.00029164 0)
(-0.0148175 0.000241063 0)
(-0.0146781 0.000188965 0)
(-0.0145022 0.000135185 0)
(-0.0142894 7.95801e-05 0)
(-0.014039 2.20249e-05 0)
(-0.0137503 -3.75805e-05 0)
(-0.0134228 -9.93089e-05 0)
(-0.0130559 -0.000163202 0)
(-0.0126491 -0.000229267 0)
(-0.012202 -0.000297473 0)
(-0.0117142 -0.00036775 0)
(-0.0111855 -0.000439986 0)
(-0.0106158 -0.000514026 0)
(-0.010005 -0.000589672 0)
(-0.00935331 -0.000666682 0)
(-0.00866108 -0.000744773 0)
(-0.00792879 -0.00082362 0)
(-0.00715712 -0.000902863 0)
(-0.00634694 -0.000982107 0)
(-0.00549932 -0.00106093 0)
(-0.00461551 -0.00113887 0)
(-0.003697 -0.00121548 0)
(-0.00274543 -0.00129026 0)
(-0.00176267 -0.00136272 0)
(-0.000750773 -0.00143238 0)
(0.000288036 -0.00149874 0)
(0.00135136 -0.00156134 0)
(0.00243663 -0.00161971 0)
(0.00354114 -0.00167343 0)
(0.00466208 -0.0017221 0)
(0.00579649 -0.00176536 0)
(0.00694134 -0.00180289 0)
(0.00809354 -0.00183441 0)
(0.00924995 -0.00185972 0)
(0.0104074 -0.00187864 0)
(0.0115627 -0.00189106 0)
(0.0127127 -0.00189695 0)
(0.0138543 -0.00189632 0)
(0.0149846 -0.00188924 0)
(0.0161005 -0.00187584 0)
(0.0171992 -0.00185632 0)
(0.0182782 -0.00183092 0)
(0.0193348 -0.00179994 0)
(0.0203667 -0.00176372 0)
(0.0213718 -0.00172266 0)
(0.0223481 -0.00167717 0)
(0.0232939 -0.0016277 0)
(0.0242077 -0.00157472 0)
(0.0250881 -0.00151873 0)
(0.0259342 -0.00146021 0)
(0.026745 -0.00139968 0)
(0.02752 -0.00133762 0)
(0.0282588 -0.00127452 0)
(0.0289612 -0.00121084 0)
(0.0296272 -0.00114704 0)
(0.0302571 -0.00108353 0)
(0.0308512 -0.0010207 0)
(0.0314102 -0.00095892 0)
(0.0319346 -0.000898502 0)
(0.0324255 -0.000839737 0)
(0.0328837 -0.000782874 0)
(0.0333104 -0.000728127 0)
(0.0337066 -0.00067567 0)
(0.0340737 -0.000625644 0)
(0.034413 -0.000578153 0)
(0.0347258 -0.000533272 0)
(0.0350135 -0.000491042 0)
(0.0352775 -0.000451478 0)
(0.0355192 -0.000414569 0)
(0.03574 -0.000380283 0)
(0.0359412 -0.000348567 0)
(0.0361243 -0.000319349 0)
(0.0362906 -0.000292547 0)
(0.0364413 -0.000268062 0)
(0.0365778 -0.00024579 0)
(0.0367012 -0.000225617 0)
(0.0368126 -0.000207424 0)
(0.0369132 -0.000191089 0)
(0.037004 -0.00017649 0)
(0.037086 -0.000163502 0)
(0.03716 -0.000152004 0)
(0.037227 -0.000141875 0)
(0.0372877 -0.000132999 0)
(0.0373428 -0.000125262 0)
(0.037393 -0.000118557 0)
(0.0374391 -0.000112781 0)
(0.0374814 -0.000107836 0)
(0.0375205 -0.000103629 0)
(0.0375569 -0.000100076 0)
(0.037591 -9.70955e-05 0)
(0.0376232 -9.46138e-05 0)
(0.0376538 -9.25623e-05 0)
(0.037683 -9.08783e-05 0)
(0.0377112 -8.95044e-05 0)
(0.0377385 -8.83887e-05 0)
(0.0377652 -8.74841e-05 0)
(0.0377914 -8.67487e-05 0)
(0.0378172 -8.61446e-05 0)
(0.0378428 -8.56387e-05 0)
(0.0378681 -8.52014e-05 0)
(0.0378934 -8.48072e-05 0)
(0.0379186 -8.44337e-05 0)
(0.0379439 -8.40619e-05 0)
(0.0379691 -8.36756e-05 0)
(0.0379944 -8.32612e-05 0)
(0.0380197 -8.28076e-05 0)
(0.038045 -8.23058e-05 0)
(0.0380703 -8.17487e-05 0)
(0.0380956 -8.1131e-05 0)
(0.0381209 -8.04489e-05 0)
(0.0381461 -7.97002e-05 0)
(0.0381713 -7.88835e-05 0)
(0.0381963 -7.79988e-05 0)
(0.0382211 -7.70468e-05 0)
(0.0382458 -7.6029e-05 0)
(0.0382702 -7.49476e-05 0)
(0.0382943 -7.38052e-05 0)
(0.0383182 -7.26051e-05 0)
(0.0383416 -7.13507e-05 0)
(0.0383648 -7.00457e-05 0)
(0.0383875 -6.86942e-05 0)
(0.0384097 -6.73001e-05 0)
(0.0384315 -6.58678e-05 0)
(0.0384528 -6.44013e-05 0)
(0.0384735 -6.29049e-05 0)
(0.0384938 -6.13826e-05 0)
(0.0385134 -5.98387e-05 0)
(0.0385325 -5.82769e-05 0)
(0.0385509 -5.67011e-05 0)
(0.0385687 -5.51151e-05 0)
(0.0385859 -5.35223e-05 0)
(0.0386024 -5.19261e-05 0)
(0.0386183 -5.03297e-05 0)
(0.0386335 -4.87361e-05 0)
(0.0386481 -4.7148e-05 0)
(0.0386619 -4.55683e-05 0)
(0.0386751 -4.39992e-05 0)
(0.0386876 -4.24431e-05 0)
(0.0386994 -4.09019e-05 0)
(0.0387105 -3.93777e-05 0)
(0.038721 -3.78721e-05 0)
(0.0387308 -3.63865e-05 0)
(0.0387399 -3.49224e-05 0)
(0.0387483 -3.34808e-05 0)
(0.0387561 -3.20627e-05 0)
(0.0387633 -3.06688e-05 0)
(0.0387698 -2.92996e-05 0)
(0.0387757 -2.79552e-05 0)
(0.0387809 -2.66356e-05 0)
(0.0387856 -2.53404e-05 0)
(0.0387896 -2.40686e-05 0)
(0.0387931 -2.28186e-05 0)
(0.038796 -2.15883e-05 0)
(0.0387983 -2.03742e-05 0)
(0.0388 -1.91715e-05 0)
(0.0388012 -1.79733e-05 0)
(0.0388018 -1.677e-05 0)
(0.0388019 -1.5548e-05 0)
(0.0388014 -1.42869e-05 0)
(0.0388004 -1.29607e-05 0)
(0.0387988 -1.15267e-05 0)
(0.0387965 -9.92732e-06 0)
(0.0387936 -8.10587e-06 0)
(0.0387898 -5.83333e-06 0)
(0.0387853 -3.30846e-06 0)
(0.0387795 5.67656e-07 0)
(0.0387722 4.6384e-06 0)
(0.0387644 9.84517e-06 0)
(0.0387481 2.33978e-05 0)
(-0.000305505 0.0012614 0)
(-0.00151606 0.0023147 0)
(-0.00286963 0.00272266 0)
(-0.00413636 0.00273243 0)
(-0.00523494 0.00266007 0)
(-0.00621451 0.00253044 0)
(-0.00706123 0.00240108 0)
(-0.00780873 0.00226555 0)
(-0.00845854 0.00213481 0)
(-0.00902742 0.00200739 0)
(-0.00952062 0.00188557 0)
(-0.00994717 0.00176893 0)
(-0.0103119 0.00165757 0)
(-0.0106203 0.00155104 0)
(-0.0108759 0.00144894 0)
(-0.0110821 0.00135077 0)
(-0.0112415 0.00125605 0)
(-0.0113564 0.00116432 0)
(-0.0114286 0.00107513 0)
(-0.0114594 0.00098804 0)
(-0.01145 0.000902659 0)
(-0.0114015 0.000818595 0)
(-0.0113144 0.000735481 0)
(-0.0111894 0.000652965 0)
(-0.0110267 0.000570711 0)
(-0.0108267 0.000488394 0)
(-0.0105895 0.000405702 0)
(-0.010315 0.00032234 0)
(-0.0100033 0.000238022 0)
(-0.00965413 0.000152482 0)
(-0.00926738 6.54701e-05 0)
(-0.0088428 -2.32432e-05 0)
(-0.00838015 -0.000113863 0)
(-0.00787918 -0.000206568 0)
(-0.00733966 -0.000301506 0)
(-0.00676134 -0.000398789 0)
(-0.00614406 -0.00049849 0)
(-0.00548767 -0.000600642 0)
(-0.00479213 -0.000705229 0)
(-0.00405745 -0.000812189 0)
(-0.00328374 -0.000921405 0)
(-0.00247123 -0.00103271 0)
(-0.00162027 -0.00114588 0)
(-0.00073133 -0.00126063 0)
(0.000194959 -0.00137663 0)
(0.00115783 -0.00149349 0)
(0.00215634 -0.00161077 0)
(0.0031894 -0.00172799 0)
(0.00425575 -0.00184461 0)
(0.00535393 -0.00196006 0)
(0.00648234 -0.00207374 0)
(0.00763918 -0.00218502 0)
(0.0088225 -0.00229324 0)
(0.0100302 -0.00239775 0)
(0.0112599 -0.00249788 0)
(0.0125093 -0.00259296 0)
(0.0137757 -0.00268235 0)
(0.0150565 -0.00276542 0)
(0.0163488 -0.00284156 0)
(0.0176496 -0.00291023 0)
(0.018956 -0.00297092 0)
(0.0202649 -0.00302316 0)
(0.0215732 -0.00306656 0)
(0.0228776 -0.00310079 0)
(0.0241751 -0.0031256 0)
(0.0254625 -0.00314082 0)
(0.0267368 -0.00314635 0)
(0.0279949 -0.00314219 0)
(0.0292338 -0.0031284 0)
(0.0304508 -0.00310516 0)
(0.0316432 -0.0030727 0)
(0.0328084 -0.00303134 0)
(0.0339442 -0.00298149 0)
(0.0350483 -0.00292362 0)
(0.0361187 -0.00285826 0)
(0.0371539 -0.002786 0)
(0.0381521 -0.00270747 0)
(0.0391123 -0.00262336 0)
(0.0400332 -0.00253437 0)
(0.0409142 -0.00244123 0)
(0.0417546 -0.00234466 0)
(0.0425541 -0.00224541 0)
(0.0433126 -0.00214419 0)
(0.0440302 -0.00204172 0)
(0.0447072 -0.00193868 0)
(0.045344 -0.00183571 0)
(0.0459414 -0.00173343 0)
(0.0465001 -0.0016324 0)
(0.0470211 -0.00153314 0)
(0.0475054 -0.00143612 0)
(0.0479544 -0.00134176 0)
(0.0483691 -0.0012504 0)
(0.0487511 -0.00116238 0)
(0.0491018 -0.00107793 0)
(0.0494225 -0.000997266 0)
(0.0497148 -0.00092054 0)
(0.0499802 -0.000847861 0)
(0.0502203 -0.000779294 0)
(0.0504365 -0.000714865 0)
(0.0506303 -0.000654563 0)
(0.0508033 -0.000598344 0)
(0.0509568 -0.000546136 0)
(0.0510923 -0.00049784 0)
(0.0512111 -0.000453338 0)
(0.0513147 -0.000412493 0)
(0.0514041 -0.000375151 0)
(0.0514808 -0.000341151 0)
(0.0515457 -0.000310319 0)
(0.0516 -0.000282477 0)
(0.0516447 -0.000257444 0)
(0.0516809 -0.000235036 0)
(0.0517094 -0.00021507 0)
(0.051731 -0.000197366 0)
(0.0517466 -0.000181747 0)
(0.051757 -0.00016804 0)
(0.0517627 -0.00015608 0)
(0.0517644 -0.000145706 0)
(0.0517627 -0.000136765 0)
(0.0517581 -0.000129114 0)
(0.0517511 -0.000122614 0)
(0.0517421 -0.000117139 0)
(0.0517314 -0.000112567 0)
(0.0517195 -0.000108787 0)
(0.0517066 -0.000105696 0)
(0.051693 -0.000103197 0)
(0.051679 -0.000101205 0)
(0.0516646 -9.96393e-05 0)
(0.0516502 -9.84272e-05 0)
(0.0516359 -9.75036e-05 0)
(0.0516217 -9.68098e-05 0)
(0.0516078 -9.62934e-05 0)
(0.0515942 -9.59078e-05 0)
(0.0515811 -9.56122e-05 0)
(0.0515684 -9.53707e-05 0)
(0.0515563 -9.51521e-05 0)
(0.0515447 -9.49298e-05 0)
(0.0515337 -9.46811e-05 0)
(0.0515232 -9.43869e-05 0)
(0.0515132 -9.40316e-05 0)
(0.0515038 -9.36027e-05 0)
(0.0514948 -9.30901e-05 0)
(0.0514864 -9.24864e-05 0)
(0.0514783 -9.17863e-05 0)
(0.0514708 -9.09863e-05 0)
(0.0514635 -9.00849e-05 0)
(0.0514567 -8.90816e-05 0)
(0.0514501 -8.79776e-05 0)
(0.0514438 -8.67749e-05 0)
(0.0514377 -8.54766e-05 0)
(0.0514318 -8.40864e-05 0)
(0.0514261 -8.26088e-05 0)
(0.0514205 -8.10486e-05 0)
(0.0514149 -7.94111e-05 0)
(0.0514094 -7.7702e-05 0)
(0.0514039 -7.5927e-05 0)
(0.0513983 -7.4092e-05 0)
(0.0513927 -7.22029e-05 0)
(0.051387 -7.02658e-05 0)
(0.0513812 -6.82866e-05 0)
(0.0513752 -6.62709e-05 0)
(0.0513691 -6.42246e-05 0)
(0.0513627 -6.21531e-05 0)
(0.0513562 -6.00618e-05 0)
(0.0513494 -5.79557e-05 0)
(0.0513424 -5.58398e-05 0)
(0.0513351 -5.37187e-05 0)
(0.0513275 -5.15967e-05 0)
(0.0513196 -4.94782e-05 0)
(0.0513114 -4.73668e-05 0)
(0.051303 -4.52664e-05 0)
(0.0512942 -4.31801e-05 0)
(0.051285 -4.11113e-05 0)
(0.0512756 -3.90626e-05 0)
(0.0512658 -3.70366e-05 0)
(0.0512557 -3.50357e-05 0)
(0.0512452 -3.30619e-05 0)
(0.0512344 -3.11167e-05 0)
(0.0512233 -2.92017e-05 0)
(0.0512118 -2.73178e-05 0)
(0.0512 -2.54656e-05 0)
(0.0511879 -2.36452e-05 0)
(0.0511755 -2.18562e-05 0)
(0.0511627 -2.00973e-05 0)
(0.0511496 -1.83665e-05 0)
(0.0511362 -1.66604e-05 0)
(0.0511225 -1.49737e-05 0)
(0.0511085 -1.32992e-05 0)
(0.0510942 -1.16263e-05 0)
(0.0510796 -9.93943e-06 0)
(0.0510647 -8.21742e-06 0)
(0.0510495 -6.42824e-06 0)
(0.051034 -4.52898e-06 0)
(0.0510182 -2.45247e-06 0)
(0.0510021 -1.14105e-07 0)
(0.0509857 2.64842e-06 0)
(0.0509689 5.91659e-06 0)
(0.0509516 1.03257e-05 0)
(0.0509338 1.54607e-05 0)
(0.0509155 2.23686e-05 0)
(0.0508918 3.78538e-05 0)
(-0.000404947 0.00246844 0)
(-0.00171873 0.00379477 0)
(-0.00298668 0.0041394 0)
(-0.00404956 0.00388793 0)
(-0.00482661 0.00361453 0)
(-0.00542872 0.0033117 0)
(-0.00585286 0.00304738 0)
(-0.00615863 0.00280049 0)
(-0.0063553 0.00257609 0)
(-0.00646906 0.00236792 0)
(-0.00650847 0.00217481 0)
(-0.00648555 0.00199428 0)
(-0.00640619 0.0018247 0)
(-0.00627656 0.0016645 0)
(-0.00610047 0.00151233 0)
(-0.00588139 0.00136703 0)
(-0.00562177 0.00122754 0)
(-0.00532368 0.00109296 0)
(-0.00498866 0.000962454 0)
(-0.00461798 0.000835299 0)
(-0.00421258 0.000710833 0)
(-0.00377321 0.000588455 0)
(-0.0033004 0.000467617 0)
(-0.00279454 0.000347811 0)
(-0.00225589 0.00022857 0)
(-0.0016846 0.000109459 0)
(-0.00108075 -9.92464e-06 0)
(-0.000444332 -0.000129953 0)
(0.000224696 -0.000250967 0)
(0.000926416 -0.00037328 0)
(0.00166093 -0.000497169 0)
(0.00242833 -0.00062288 0)
(0.00322871 -0.00075062 0)
(0.00406214 -0.000880555 0)
(0.00492865 -0.00101281 0)
(0.00582821 -0.00114745 0)
(0.00676073 -0.00128452 0)
(0.00772606 -0.00142397 0)
(0.00872394 -0.00156572 0)
(0.00975401 -0.00170962 0)
(0.0108158 -0.00185546 0)
(0.0119088 -0.00200296 0)
(0.0130323 -0.0021518 0)
(0.0141853 -0.00230155 0)
(0.015367 -0.00245177 0)
(0.0165762 -0.00260192 0)
(0.0178116 -0.00275142 0)
(0.0190718 -0.00289963 0)
(0.0203553 -0.00304587 0)
(0.0216601 -0.0031894 0)
(0.0229845 -0.00332948 0)
(0.0243264 -0.0034653 0)
(0.0256836 -0.00359606 0)
(0.0270536 -0.00372095 0)
(0.0284342 -0.00383914 0)
(0.0298225 -0.00394984 0)
(0.031216 -0.00405224 0)
(0.0326117 -0.00414561 0)
(0.0340068 -0.00422923 0)
(0.0353983 -0.00430244 0)
(0.0367831 -0.00436465 0)
(0.0381583 -0.00441532 0)
(0.0395207 -0.00445403 0)
(0.0408672 -0.0044804 0)
(0.0421949 -0.0044942 0)
(0.0435008 -0.00449526 0)
(0.044782 -0.00448353 0)
(0.0460357 -0.00445907 0)
(0.0472594 -0.00442204 0)
(0.0484506 -0.00437274 0)
(0.0496069 -0.00431153 0)
(0.0507262 -0.0042389 0)
(0.0518067 -0.00415545 0)
(0.0528467 -0.00406183 0)
(0.0538447 -0.0039588 0)
(0.0547996 -0.00384718 0)
(0.0557104 -0.00372785 0)
(0.0565765 -0.00360173 0)
(0.0573973 -0.00346978 0)
(0.0581728 -0.00333298 0)
(0.0589029 -0.0031923 0)
(0.0595879 -0.00304873 0)
(0.0602283 -0.00290322 0)
(0.0608248 -0.00275671 0)
(0.0613783 -0.00261008 0)
(0.0618898 -0.00246419 0)
(0.0623604 -0.00231983 0)
(0.0627916 -0.00217771 0)
(0.0631846 -0.00203851 0)
(0.063541 -0.00190281 0)
(0.0638624 -0.00177114 0)
(0.0641505 -0.00164395 0)
(0.0644068 -0.00152161 0)
(0.0646332 -0.00140444 0)
(0.0648313 -0.00129268 0)
(0.0650027 -0.0011865 0)
(0.0651494 -0.00108603 0)
(0.0652727 -0.000991324 0)
(0.0653745 -0.000902393 0)
(0.0654563 -0.000819204 0)
(0.0655196 -0.000741679 0)
(0.065566 -0.000669706 0)
(0.0655968 -0.00060314 0)
(0.0656134 -0.00054181 0)
(0.0656171 -0.000485522 0)
(0.0656092 -0.000434064 0)
(0.0655908 -0.00038721 0)
(0.065563 -0.000344725 0)
(0.0655269 -0.000306364 0)
(0.0654834 -0.000271881 0)
(0.0654335 -0.000241026 0)
(0.0653779 -0.000213553 0)
(0.0653174 -0.000189217 0)
(0.0652528 -0.000167779 0)
(0.0651848 -0.000149005 0)
(0.0651139 -0.00013267 0)
(0.0650406 -0.000118558 0)
(0.0649655 -0.000106462 0)
(0.0648891 -9.61858e-05 0)
(0.0648117 -8.75421e-05 0)
(0.0647337 -8.0356e-05 0)
(0.0646554 -7.44633e-05 0)
(0.0645772 -6.97106e-05 0)
(0.0644992 -6.59555e-05 0)
(0.0644217 -6.30664e-05 0)
(0.0643448 -6.09219e-05 0)
(0.0642689 -5.94112e-05 0)
(0.0641939 -5.84328e-05 0)
(0.06412 -5.78948e-05 0)
(0.0640472 -5.77143e-05 0)
(0.0639758 -5.78165e-05 0)
(0.0639057 -5.81349e-05 0)
(0.0638369 -5.86103e-05 0)
(0.0637695 -5.91906e-05 0)
(0.0637036 -5.98301e-05 0)
(0.063639 -6.0489e-05 0)
(0.0635759 -6.11334e-05 0)
(0.0635142 -6.17341e-05 0)
(0.0634538 -6.22669e-05 0)
(0.0633949 -6.27115e-05 0)
(0.0633372 -6.30517e-05 0)
(0.0632808 -6.32745e-05 0)
(0.0632257 -6.33703e-05 0)
(0.0631718 -6.3332e-05 0)
(0.063119 -6.31551e-05 0)
(0.0630674 -6.28371e-05 0)
(0.0630168 -6.23775e-05 0)
(0.0629673 -6.17773e-05 0)
(0.0629188 -6.10391e-05 0)
(0.0628712 -6.01663e-05 0)
(0.0628245 -5.91638e-05 0)
(0.0627786 -5.80369e-05 0)
(0.0627336 -5.67917e-05 0)
(0.0626893 -5.54348e-05 0)
(0.0626457 -5.39733e-05 0)
(0.0626028 -5.24144e-05 0)
(0.0625605 -5.07656e-05 0)
(0.0625188 -4.90344e-05 0)
(0.0624777 -4.72285e-05 0)
(0.0624371 -4.53554e-05 0)
(0.062397 -4.34224e-05 0)
(0.0623574 -4.14369e-05 0)
(0.0623182 -3.9406e-05 0)
(0.0622794 -3.73366e-05 0)
(0.062241 -3.52352e-05 0)
(0.0622029 -3.31083e-05 0)
(0.0621652 -3.0962e-05 0)
(0.0621278 -2.88019e-05 0)
(0.0620907 -2.66337e-05 0)
(0.0620538 -2.44625e-05 0)
(0.0620172 -2.2293e-05 0)
(0.0619809 -2.01299e-05 0)
(0.0619448 -1.79774e-05 0)
(0.0619088 -1.58393e-05 0)
(0.0618731 -1.37191e-05 0)
(0.0618376 -1.16199e-05 0)
(0.0618022 -9.54475e-06 0)
(0.061767 -7.49589e-06 0)
(0.061732 -5.47534e-06 0)
(0.0616971 -3.48465e-06 0)
(0.0616624 -1.5248e-06 0)
(0.0616278 4.03849e-07 0)
(0.0615934 2.30171e-06 0)
(0.061559 4.17018e-06 0)
(0.0615249 6.01188e-06 0)
(0.0614908 7.83111e-06 0)
(0.0614568 9.63439e-06 0)
(0.061423 1.14314e-05 0)
(0.0613893 1.32358e-05 0)
(0.0613558 1.50678e-05 0)
(0.0613223 1.69557e-05 0)
(0.0612891 1.89401e-05 0)
(0.0612559 2.10826e-05 0)
(0.061223 2.34624e-05 0)
(0.0611903 2.62213e-05 0)
(0.0611578 2.95061e-05 0)
(0.0611257 3.37254e-05 0)
(0.0610941 3.88698e-05 0)
(0.0610628 4.63252e-05 0)
(0.0610299 6.07113e-05 0)
(-0.000693428 0.00309341 0)
(-0.00209159 0.0047213 0)
(-0.00255532 0.00495019 0)
(-0.00279461 0.00450312 0)
(-0.0026315 0.00403068 0)
(-0.00238508 0.00356398 0)
(-0.00199358 0.00316001 0)
(-0.00154145 0.00280206 0)
(-0.00101997 0.0024857 0)
(-0.000454711 0.00220231 0)
(0.000152362 0.00194537 0)
(0.000791909 0.00171009 0)
(0.0014613 0.00149219 0)
(0.0021566 0.00128869 0)
(0.00287604 0.00109693 0)
(0.00361783 0.000914918 0)
(0.004381 0.000740916 0)
(0.00516474 0.000573522 0)
(0.0059686 0.000411521 0)
(0.00679228 0.000253878 0)
(0.00763566 9.96873e-05 0)
(0.00849873 -5.18455e-05 0)
(0.00938157 -0.000201429 0)
(0.0102844 -0.000349694 0)
(0.0112073 -0.000497213 0)
(0.0121506 -0.000644497 0)
(0.0131146 -0.00079201 0)
(0.0140994 -0.000940168 0)
(0.0151055 -0.00108934 0)
(0.0161331 -0.00123986 0)
(0.0171823 -0.00139199 0)
(0.0182534 -0.00154599 0)
(0.0193466 -0.00170202 0)
(0.0204618 -0.00186023 0)
(0.0215992 -0.0020207 0)
(0.0227586 -0.00218344 0)
(0.0239399 -0.00234842 0)
(0.0251429 -0.00251554 0)
(0.0263672 -0.00268462 0)
(0.0276124 -0.00285543 0)
(0.0288777 -0.00302767 0)
(0.0301627 -0.00320096 0)
(0.0314663 -0.00337484 0)
(0.0327875 -0.0035488 0)
(0.0341254 -0.00372225 0)
(0.0354785 -0.00389454 0)
(0.0368454 -0.00406495 0)
(0.0382246 -0.0042327 0)
(0.0396143 -0.00439698 0)
(0.0410127 -0.00455691 0)
(0.0424177 -0.0047116 0)
(0.0438272 -0.0048601 0)
(0.0452389 -0.00500148 0)
(0.0466503 -0.00513477 0)
(0.048059 -0.00525904 0)
(0.0494623 -0.00537334 0)
(0.0508575 -0.00547678 0)
(0.0522418 -0.00556851 0)
(0.0536124 -0.0056477 0)
(0.0549663 -0.00571364 0)
(0.0563008 -0.00576566 0)
(0.0576129 -0.0058032 0)
(0.0588998 -0.0058258 0)
(0.0601588 -0.0058331 0)
(0.0613871 -0.00582488 0)
(0.0625821 -0.00580103 0)
(0.0637415 -0.00576158 0)
(0.0648629 -0.00570668 0)
(0.0659442 -0.00563665 0)
(0.0669836 -0.0055519 0)
(0.0679793 -0.00545299 0)
(0.06893 -0.00534062 0)
(0.0698344 -0.00521557 0)
(0.0706917 -0.00507876 0)
(0.0715012 -0.00493117 0)
(0.0722624 -0.00477387 0)
(0.0729753 -0.00460802 0)
(0.07364 -0.00443479 0)
(0.0742567 -0.00425539 0)
(0.0748263 -0.00407107 0)
(0.0753493 -0.00388304 0)
(0.075827 -0.00369252 0)
(0.0762603 -0.00350069 0)