/*--------------------------------*- C++ -*----------------------------------*\
| =========                 |                                                 |
| \\      /  F ield         | OpenFOAM: The Open Source CFD Toolbox           |
|  \\    /   O peration     | Version:  4.1                                   |
|   \\  /    A nd           | Web:      www.OpenFOAM.org                      |
|    \\/     M anipulation  |                                                 |
\*---------------------------------------------------------------------------*/
FoamFile
{
    version     2.0;
    format      ascii;
    class       volScalarField;
    location    "2130";
    object      p;
}
// * * * * * * * * * * * * * * * * * * * * * * * * * * * * * * * * * * * * * //

dimensions      [1 -1 -2 0 0 0 0];

internalField   nonuniform List<scalar> 
1275
(
0.712264
0.712216
0.712209
0.712166
0.712153
0.71211
0.712094
0.712043
0.712028
0.711959
0.712276
0.712224
0.712218
0.712173
0.712162
0.712118
0.712106
0.71206
0.712052
0.712005
0.712293
0.712239
0.712234
0.712187
0.712178
0.712134
0.712122
0.712079
0.712067
0.712029
0.712313
0.712257
0.712253
0.712206
0.712198
0.712155
0.712146
0.712107
0.712099
0.712065
0.712333
0.712277
0.712273
0.712226
0.712218
0.712177
0.712168
0.712131
0.712121
0.712091
0.712348
0.712293
0.71229
0.712244
0.712237
0.712198
0.712188
0.712155
0.712145
0.712117
0.712357
0.712304
0.7123
0.712257
0.712249
0.712212
0.712201
0.71217
0.712158
0.712131
0.71236
0.712311
0.712306
0.712265
0.712256
0.712221
0.712209
0.712179
0.712167
0.71214
0.712353
0.712311
0.712305
0.712266
0.712256
0.712222
0.71221
0.71218
0.712167
0.712141
0.712085
0.712091
0.712098
0.712104
0.712111
0.712118
0.712126
0.712133
0.712142
0.71215
0.712159
0.712169
0.712179
0.712189
0.7122
0.712212
0.712224
0.712237
0.712251
0.712266
0.712282
0.712299
0.712316
0.712336
0.712356
0.712378
0.712401
0.712426
0.712452
0.712481
0.712511
0.712542
0.712576
0.712611
0.712648
0.712686
0.712725
0.712764
0.712804
0.712844
0.712883
0.712922
0.712959
0.712994
0.713027
0.713057
0.713085
0.713109
0.713131
0.713149
0.713165
0.713178
0.713188
0.713195
0.713201
0.713205
0.713208
0.71321
0.71321
0.713211
0.71321
0.71321
0.71321
0.713209
0.713209
0.713209
0.713209
0.713209
0.71321
0.713211
0.713213
0.713215
0.713217
0.71322
0.713222
0.713226
0.713229
0.713233
0.711935
0.711987
0.71198
0.712002
0.711996
0.712005
0.712001
0.712005
0.712002
0.712004
0.712002
0.712003
0.712002
0.712002
0.712002
0.712003
0.712003
0.712003
0.712004
0.712005
0.712006
0.712007
0.712008
0.71201
0.712011
0.712013
0.712015
0.712018
0.71202
0.712023
0.712026
0.712029
0.712032
0.712035
0.712039
0.712043
0.712047
0.712052
0.712056
0.712061
0.712066
0.712072
0.712077
0.712084
0.712089
0.712097
0.712103
0.71211
0.712118
0.712126
0.712134
0.712143
0.712152
0.712162
0.712172
0.712183
0.712195
0.712207
0.712219
0.712233
0.712247
0.712262
0.712277
0.712294
0.712311
0.71233
0.712349
0.71237
0.712391
0.712414
0.712438
0.712464
0.712491
0.712519
0.712548
0.712578
0.71261
0.712643
0.712676
0.71271
0.712745
0.71278
0.712815
0.712849
0.712882
0.712914
0.712945
0.712974
0.713001
0.713025
0.713047
0.713067
0.713084
0.713099
0.713111
0.713122
0.71313
0.713137
0.713143
0.713147
0.713151
0.713153
0.713155
0.713157
0.713159
0.71316
0.713162
0.713164
0.713166
0.713168
0.71317
0.713173
0.713176
0.713179
0.713182
0.713185
0.713189
0.713193
0.713197
0.713201
0.713205
0.71321
0.713215
0.712009
0.712013
0.712007
0.712012
0.712006
0.712009
0.712004
0.712005
0.712002
0.712003
0.712001
0.712002
0.712001
0.712002
0.712001
0.712002
0.712002
0.712003
0.712004
0.712005
0.712007
0.712008
0.71201
0.712012
0.712014
0.712016
0.712018
0.712021
0.712024
0.712027
0.712031
0.712034
0.712038
0.712042
0.712046
0.712051
0.712056
0.712061
0.712066
0.712072
0.712078
0.712084
0.712091
0.712098
0.712106
0.712113
0.712122
0.712131
0.71214
0.71215
0.71216
0.71217
0.712182
0.712194
0.712206
0.712219
0.712233
0.712248
0.712263
0.712279
0.712296
0.712313
0.712332
0.712351
0.712371
0.712392
0.712414
0.712437
0.712461
0.712486
0.712512
0.712539
0.712567
0.712595
0.712624
0.712654
0.712684
0.712715
0.712746
0.712776
0.712807
0.712836
0.712865
0.712893
0.712919
0.712944
0.712967
0.712989
0.713008
0.713026
0.713042
0.713056
0.713068
0.713078
0.713086
0.713094
0.7131
0.713105
0.71311
0.713114
0.713118
0.713121
0.713125
0.713128
0.713131
0.713135
0.713138
0.713142
0.713145
0.713149
0.713152
0.713156
0.71316
0.713164
0.713168
0.713173
0.713177
0.713182
0.713186
0.713191
0.713196
0.713202
0.713207
0.712018
0.712018
0.712012
0.712017
0.712013
0.712016
0.712012
0.712013
0.71201
0.71201
0.712008
0.712008
0.712006
0.712006
0.712006
0.712006
0.712006
0.712007
0.712007
0.712008
0.71201
0.712011
0.712013
0.712015
0.712017
0.71202
0.712023
0.712026
0.712029
0.712033
0.712037
0.712041
0.712046
0.71205
0.712055
0.712061
0.712067
0.712073
0.712079
0.712086
0.712093
0.712101
0.712109
0.712118
0.712126
0.712136
0.712146
0.712156
0.712167
0.712179
0.712191
0.712204
0.712217
0.712231
0.712246
0.712262
0.712278
0.712295
0.712313
0.712331
0.712351
0.712371
0.712392
0.712414
0.712436
0.71246
0.712484
0.712508
0.712534
0.71256
0.712587
0.712614
0.712641
0.712669
0.712697
0.712724
0.712752
0.712779
0.712806
0.712833
0.712858
0.712882
0.712906
0.712928
0.712948
0.712967
0.712985
0.713001
0.713015
0.713027
0.713038
0.713048
0.713057
0.713065
0.713072
0.713078
0.713084
0.71309
0.713095
0.7131
0.713104
0.713109
0.713113
0.713117
0.713121
0.713125
0.713129
0.713133
0.713137
0.713142
0.713146
0.713151
0.713155
0.713159
0.713164
0.713169
0.713173
0.713178
0.713183
0.713188
0.713193
0.713199
0.713204
0.712063
0.71205
0.712045
0.712039
0.712033
0.712029
0.712024
0.712021
0.712016
0.712014
0.712011
0.71201
0.712008
0.712008
0.712007
0.712007
0.712007
0.712008
0.712009
0.71201
0.712012
0.712014
0.712016
0.712018
0.712021
0.712024
0.712028
0.712031
0.712035
0.71204
0.712044
0.712049
0.712055
0.71206
0.712066
0.712073
0.712079
0.712087
0.712094
0.712102
0.712111
0.71212
0.712129
0.712139
0.71215
0.712161
0.712172
0.712184
0.712197
0.712211
0.712225
0.71224
0.712255
0.712272
0.712289
0.712306
0.712325
0.712344
0.712364
0.712385
0.712406
0.712429
0.712451
0.712475
0.712499
0.712524
0.712549
0.712574
0.7126
0.712626
0.712652
0.712679
0.712705
0.712731
0.712757
0.712782
0.712807
0.712831
0.712854
0.712876
0.712896
0.712916
0.712934
0.712951
0.712967
0.712981
0.712995
0.713007
0.713018
0.713028
0.713037
0.713046
0.713054
0.713061
0.713067
0.713073
0.713079
0.713084
0.713089
0.713094
0.713099
0.713104
0.713109
0.713113
0.713118
0.713123
0.713127
0.713132
0.713136
0.713141
0.713145
0.71315
0.713154
0.713159
0.713163
0.713168
0.713172
0.713177
0.713182
0.713187
0.713193
0.713198
0.713203
0.712083
0.712066
0.712059
0.712049
0.712043
0.712037
0.712032
0.712027
0.712023
0.712019
0.712016
0.712014
0.712012
0.71201
0.71201
0.712009
0.712009
0.71201
0.712011
0.712012
0.712014
0.712016
0.712018
0.712021
0.712024
0.712028
0.712032
0.712036
0.712041
0.712046
0.712051
0.712057
0.712063
0.712069
0.712076
0.712083
0.712091
0.712099
0.712108
0.712117
0.712126
0.712136
0.712147
0.712158
0.71217
0.712182
0.712195
0.712209
0.712223
0.712238
0.712254
0.712271
0.712288
0.712306
0.712324
0.712344
0.712364
0.712385
0.712406
0.712428
0.712451
0.712474
0.712498
0.712523
0.712547
0.712572
0.712598
0.712623
0.712649
0.712674
0.712699
0.712724
0.712749
0.712772
0.712796
0.712818
0.71284
0.71286
0.71288
0.712898
0.712916
0.712932
0.712948
0.712962
0.712976
0.712988
0.712999
0.71301
0.713019
0.713028
0.713035
0.713043
0.71305
0.713057
0.713063
0.71307
0.713076
0.713082
0.713088
0.713093
0.713099
0.713104
0.713109
0.713113
0.713118
0.713122
0.713127
0.713131
0.713136
0.71314
0.713145
0.713149
0.713154
0.713158
0.713163
0.713168
0.713173
0.713177
0.713182
0.713187
0.713193
0.713198
0.713204
0.712109
0.712089
0.712081
0.712067
0.712059
0.712049
0.712042
0.712035
0.712029
0.712024
0.71202
0.712017
0.712014
0.712012
0.712011
0.71201
0.71201
0.712011
0.712012
0.712013
0.712015
0.712018
0.712021
0.712024
0.712027
0.712031
0.712036
0.71204
0.712045
0.712051
0.712057
0.712063
0.71207
0.712077
0.712084
0.712092
0.7121
0.712109
0.712119
0.712129
0.712139
0.71215
0.712162
0.712174
0.712186
0.7122
0.712214
0.712229
0.712244
0.71226
0.712277
0.712295
0.712313
0.712332
0.712351
0.712372
0.712393
0.712414
0.712437
0.71246
0.712483
0.712507
0.712531
0.712555
0.71258
0.712605
0.712629
0.712654
0.712678
0.712702
0.712726
0.712749
0.712772
0.712794
0.712816
0.712836
0.712856
0.712874
0.712892
0.712909
0.712924
0.712939
0.712952
0.712965
0.712976
0.712987
0.712997
0.713007
0.713017
0.713026
0.713034
0.713042
0.71305
0.713057
0.713064
0.71307
0.713076
0.713082
0.713087
0.713093
0.713098
0.713103
0.713108
0.713113
0.713117
0.713122
0.713127
0.713131
0.713136
0.713141
0.713145
0.71315
0.713154
0.713159
0.713163
0.713168
0.713173
0.713178
0.713183
0.713188
0.713193
0.713198
0.713204
0.712121
0.712099
0.71209
0.712073
0.712065
0.712053
0.712046
0.712037
0.712031
0.712025
0.712021
0.712017
0.712014
0.712012
0.712011
0.71201
0.71201
0.71201
0.712012
0.712013
0.712015
0.712018
0.712021
0.712024
0.712028
0.712032
0.712037
0.712042
0.712047
0.712053
0.712059
0.712066
0.712073
0.71208
0.712088
0.712096
0.712105
0.712115
0.712124
0.712135
0.712146
0.712157
0.712169
0.712182
0.712195
0.712209
0.712223
0.712238
0.712254
0.712271
0.712288
0.712306
0.712325
0.712344
0.712364
0.712385
0.712406
0.712428
0.71245
0.712473
0.712496
0.71252
0.712544
0.712568
0.712592
0.712616
0.71264
0.712664
0.712688
0.712712
0.712734
0.712757
0.712778
0.712799
0.712819
0.712839
0.712857
0.712874
0.712891
0.712907
0.712922
0.712936
0.712949
0.712962
0.712975
0.712986
0.712997
0.713007
0.713016
0.713025
0.713033
0.713041
0.713048
0.713055
0.713062
0.713069
0.713075
0.713081
0.713087
0.713092
0.713098
0.713103
0.713108
0.713113
0.713117
0.713122
0.713127
0.713131
0.713136
0.71314
0.713145
0.713149
0.713154
0.713158
0.713163
0.713168
0.713173
0.713178
0.713183
0.713188
0.713193
0.713199
0.713204
0.712129
0.712107
0.712096
0.71208
0.71207
0.712057
0.712049
0.712039
0.712033
0.712027
0.712022
0.712018
0.712015
0.712012
0.712011
0.71201
0.71201
0.712011
0.712012
0.712014
0.712016
0.712018
0.712022
0.712025
0.712029
0.712033
0.712038
0.712043
0.712049
0.712055
0.712061
0.712068
0.712075
0.712082
0.71209
0.712099
0.712108
0.712117
0.712127
0.712138
0.712149
0.71216
0.712172
0.712185
0.712199
0.712213
0.712227
0.712243
0.712259
0.712275
0.712293
0.712311
0.71233
0.712349
0.712369
0.71239
0.712411
0.712433
0.712455
0.712478
0.712501
0.712524
0.712548
0.712571
0.712595
0.712619
0.712643
0.712666
0.712689
0.712712
0.712734
0.712756
0.712777
0.712798
0.712818
0.712837
0.712856
0.712874
0.71289
0.712906
0.712922
0.712936
0.712949
0.712962
0.712974
0.712985
0.712995
0.713005
0.713015
0.713024
0.713032
0.71304
0.713048
0.713055
0.713062
0.713069
0.713075
0.713081
0.713086
0.713092
0.713097
0.713102
0.713107
0.713112
0.713117
0.713122
0.713126
0.713131
0.713136
0.71314
0.713145
0.713149
0.713154
0.713159
0.713163
0.713168
0.713173
0.713178
0.713183
0.713188
0.713193
0.713199
0.713204
0.712129
0.712107
0.712096
0.712079
0.712069
0.712056
0.712047
0.712038
0.712031
0.712024
0.71202
0.712015
0.712013
0.71201
0.712009
0.712008
0.712008
0.712009
0.71201
0.712012
0.712014
0.712016
0.71202
0.712023
0.712027
0.712031
0.712036
0.712041
0.712047
0.712053
0.712059
0.712066
0.712073
0.712081
0.712089
0.712097
0.712106
0.712116
0.712125
0.712136
0.712147
0.712158
0.712171
0.712183
0.712197
0.712211
0.712225
0.71224
0.712256
0.712273
0.71229
0.712308
0.712327
0.712346
0.712366
0.712386
0.712407
0.712429
0.712451
0.712473
0.712496
0.71252
0.712543
0.712567
0.712591
0.712615
0.712638
0.712662
0.712685
0.712708
0.712731
0.712753
0.712774
0.712795
0.712815
0.712834
0.712853
0.712871
0.712887
0.712903
0.712919
0.712933
0.712947
0.71296
0.712972
0.712984
0.712994
0.713005
0.713014
0.713023
0.713032
0.71304
0.713047
0.713054
0.713061
0.713068
0.713074
0.71308
0.713086
0.713091
0.713097
0.713102
0.713107
0.713112
0.713117
0.713121
0.713126
0.713131
0.713135
0.71314
0.713144
0.713149
0.713154
0.713158
0.713163
0.713168
0.713172
0.713177
0.713182
0.713188
0.713193
0.713198
0.713204
)
;

boundaryField
{
    inlet
    {
        type            zeroGradient;
    }
    outlet
    {
        type            fixedValue;
        value           nonuniform 0();
    }
    walls
    {
        type            zeroGradient;
    }
    symwall
    {
        type            empty;
    }
    procBoundary2to0
    {
        type            processor;
        value           nonuniform List<scalar> 
133
(
0.71208
0.712085
0.712091
0.712096
0.712103
0.712109
0.712116
0.712122
0.71213
0.712137
0.712145
0.712153
0.712162
0.712171
0.71218
0.71219
0.712201
0.712212
0.712224
0.712236
0.71225
0.712264
0.71228
0.712296
0.712314
0.712333
0.712354
0.712377
0.712401
0.712428
0.712456
0.712487
0.71252
0.712556
0.712594
0.712633
0.712675
0.712718
0.712763
0.712808
0.712854
0.7129
0.712944
0.712988
0.71303
0.713069
0.713105
0.713139
0.713169
0.713195
0.713218
0.713237
0.713252
0.713265
0.713274
0.713281
0.713285
0.713287
0.713288
0.713287
0.713285
0.713283
0.71328
0.713277
0.713274
0.713271
0.713268
0.713265
0.713263
0.713261
0.71326
0.713259
0.713259
0.713259
0.713259
0.71326
0.713261
0.712255
0.712212
0.712205
0.712164
0.712151
0.712108
0.712093
0.712042
0.712032
0.711959
0.711976
0.712003
0.711996
0.712002
0.711996
0.711999
0.711996
0.711998
0.711996
0.711997
0.711996
0.711997
0.711997
0.711998
0.711998
0.711999
0.711999
0.712
0.712001
0.712002
0.712003
0.712005
0.712006
0.712008
0.712009
0.712011
0.712013
0.712015
0.712018
0.71202
0.712023
0.712026
0.712029
0.712032
0.712035
0.712039
0.712042
0.712046
0.71205
0.712055
0.712059
0.712064
0.712069
0.712074
0.71208
0.71208
)
;
    }
    procBoundary2to1
    {
        type            processor;
        value           uniform 0.713264;
    }
    procBoundary2to3
    {
        type            processor;
        value           nonuniform List<scalar> 10(0.713237 0.71322 0.713212 0.71321 0.713209 0.713209 0.71321 0.71321 0.71321 0.71321);
    }
}


// ************************************************************************* //
