/*--------------------------------*- C++ -*----------------------------------*\
| =========                 |                                                 |
| \\      /  F ield         | OpenFOAM: The Open Source CFD Toolbox           |
|  \\    /   O peration     | Version:  4.1                                   |
|   \\  /    A nd           | Web:      www.OpenFOAM.org                      |
|    \\/     M anipulation  |                                                 |
\*---------------------------------------------------------------------------*/
FoamFile
{
    version     2.0;
    format      ascii;
    class       volVectorField;
    location    "5490";
    object      U;
}
// * * * * * * * * * * * * * * * * * * * * * * * * * * * * * * * * * * * * * //

dimensions      [0 1 -1 0 0 0 0];

internalField   nonuniform List<vector> 
1275
(
(0.0902598 -0.00065529 0)
(0.0901635 -0.000660597 0)
(0.090032 -0.000655123 0)
(0.0899565 -0.000662134 0)
(0.0897985 -0.000652232 0)
(0.0889268 -0.00262507 0)
(0.0882716 -0.00216496 0)
(0.0877028 -0.00173418 0)
(0.0872162 -0.00132517 0)
(0.0868094 -0.000940396 0)
(0.0864781 -0.00057626 0)
(0.0862189 -0.000232852 0)
(0.0860273 9.21346e-05 0)
(0.0858997 0.000399343 0)
(0.0858314 0.00069051 0)
(0.0858187 0.000966486 0)
(0.0858573 0.00122866 0)
(0.0859434 0.00147791 0)
(0.0860731 0.00171537 0)
(0.0862428 0.00194183 0)
(0.0864488 0.00215823 0)
(0.0866879 0.00236527 0)
(0.0869568 0.0025637 0)
(0.0872525 0.0027541 0)
(0.087572 0.00293708 0)
(0.0879126 0.0031131 0)
(0.0882718 0.00328262 0)
(0.0886469 0.00344599 0)
(0.0890357 0.00360355 0)
(0.089436 0.00375553 0)
(0.0898457 0.00390216 0)
(0.0902627 0.00404358 0)
(0.0906851 0.00417989 0)
(0.0911112 0.00431116 0)
(0.0915393 0.00443739 0)
(0.0919676 0.00455855 0)
(0.0923946 0.00467457 0)
(0.0928188 0.00478535 0)
(0.0932388 0.00489076 0)
(0.0936533 0.00499062 0)
(0.0940609 0.00508474 0)
(0.0944603 0.00517291 0)
(0.0948505 0.00525491 0)
(0.0952304 0.00533048 0)
(0.0955989 0.00539937 0)
(0.095955 0.00546133 0)
(0.0962979 0.00551611 0)
(0.0966267 0.00556344 0)
(0.0969407 0.00560309 0)
(0.0972392 0.00563483 0)
(0.0975216 0.00565846 0)
(0.0977875 0.00567378 0)
(0.0980363 0.00568064 0)
(0.0982678 0.00567892 0)
(0.0984816 0.0056685 0)
(0.0986777 0.00564935 0)
(0.0988558 0.00562144 0)
(0.0990159 0.00558479 0)
(0.0991582 0.00553946 0)
(0.0992827 0.00548558 0)
(0.0993897 0.00542329 0)
(0.0994794 0.00535278 0)
(0.0995521 0.00527429 0)
(0.0996084 0.0051881 0)
(0.0996486 0.00509452 0)
(0.0996733 0.00499391 0)
(0.099683 0.00488665 0)
(0.0996783 0.00477316 0)
(0.0996598 0.00465388 0)
(0.0996283 0.00452927 0)
(0.0995844 0.00439981 0)
(0.0995287 0.004266 0)
(0.0994621 0.00412835 0)
(0.0993851 0.00398737 0)
(0.0992986 0.00384357 0)
(0.0992032 0.00369748 0)
(0.0990995 0.0035496 0)
(0.0989884 0.00340043 0)
(0.0988704 0.00325046 0)
(0.0987461 0.00310016 0)
(0.0986162 0.00295 0)
(0.0984813 0.00280042 0)
(0.0983419 0.00265183 0)
(0.0981985 0.00250462 0)
(0.0980516 0.00235918 0)
(0.0979016 0.00221584 0)
(0.0977491 0.00207494 0)
(0.0975943 0.00193675 0)
(0.0974377 0.00180156 0)
(0.0972796 0.0016696 0)
(0.0971202 0.0015411 0)
(0.0969599 0.00141624 0)
(0.0967988 0.0012952 0)
(0.0966373 0.00117811 0)
(0.0964755 0.00106508 0)
(0.0963136 0.000956233 0)
(0.0961516 0.000851626 0)
(0.0959899 0.000751317 0)
(0.0958284 0.00065534 0)
(0.0956672 0.000563714 0)
(0.0955065 0.000476437 0)
(0.0953463 0.000393494 0)
(0.0951867 0.000314851 0)
(0.0950278 0.000240469 0)
(0.0948694 0.000170282 0)
(0.0947118 0.000104234 0)
(0.0945549 4.22248e-05 0)
(0.0943988 -1.58019e-05 0)
(0.0942433 -6.99917e-05 0)
(0.0940887 -0.000120378 0)
(0.0939348 -0.000167176 0)
(0.0937819 -0.00021035 0)
(0.0936294 -0.000250244 0)
(0.0934782 -0.000286665 0)
(0.0933271 -0.000320196 0)
(0.0931779 -0.000350325 0)
(0.0930278 -0.000378094 0)
(0.0928812 -0.000402369 0)
(0.0927313 -0.000425044 0)
(0.0925885 -0.000443843 0)
(0.0924367 -0.000462175 0)
(0.0923012 -0.000475788 0)
(0.0921422 -0.000490602 0)
(0.0920224 -0.00049926 0)
(0.0918432 -0.00051133 0)
(0.0917592 -0.000515469 0)
(0.0915295 -0.000524788 0)
(0.0914339 -0.000525503 0)
(0.091319 -0.000532735 0)
(0.0911504 -0.000529215 0)
(0.0910588 -0.000534875 0)
(0.0908562 -0.000528929 0)
(0.0679745 -0.00187929 0)
(0.0673276 -0.00152219 0)
(0.0667847 -0.00118814 0)
(0.0663451 -0.000873088 0)
(0.0660012 -0.00057716 0)
(0.0657482 -0.000297508 0)
(0.0655801 -3.36093e-05 0)
(0.0654914 0.000216631 0)
(0.0654767 0.000453968 0)
(0.0655306 0.000679984 0)
(0.0656482 0.000895465 0)
(0.0658246 0.00110163 0)
(0.0660553 0.00129919 0)
(0.0663359 0.00148909 0)
(0.0666624 0.00167196 0)
(0.067031 0.00184853 0)
(0.067438 0.0020193 0)
(0.06788 0.00218485 0)
(0.0683539 0.00234557 0)
(0.0688568 0.00250188 0)
(0.0693857 0.00265409 0)
(0.0699382 0.00280251 0)
(0.0705117 0.00294733 0)
(0.0711038 0.00308877 0)
(0.0717123 0.00322693 0)
(0.0723352 0.00336192 0)
(0.0729704 0.00349379 0)
(0.073616 0.00362253 0)
(0.0742702 0.00374813 0)
(0.0749312 0.0038705 0)
(0.0755973 0.00398954 0)
(0.0762669 0.00410512 0)
(0.0769384 0.00421706 0)
(0.0776102 0.00432517 0)
(0.0782809 0.00442921 0)
(0.078949 0.00452893 0)
(0.0796131 0.00462407 0)
(0.0802719 0.00471433 0)
(0.080924 0.0047994 0)
(0.0815682 0.00487899 0)
(0.0822033 0.00495276 0)
(0.0828279 0.0050204 0)
(0.0834411 0.00508159 0)
(0.0840418 0.00513601 0)
(0.0846289 0.00518338 0)
(0.0852014 0.00522339 0)
(0.0857585 0.0052558 0)
(0.0862994 0.00528037 0)
(0.0868232 0.00529688 0)
(0.0873292 0.00530516 0)
(0.087817 0.00530508 0)
(0.0882858 0.00529652 0)
(0.0887353 0.00527943 0)
(0.0891651 0.00525379 0)
(0.0895749 0.00521964 0)
(0.0899643 0.00517704 0)
(0.0903334 0.00512612 0)
(0.090682 0.00506703 0)
(0.0910101 0.00499999 0)
(0.0913178 0.00492525 0)
(0.0916052 0.0048431 0)
(0.0918726 0.00475388 0)
(0.0921201 0.00465795 0)
(0.0923482 0.0045557 0)
(0.0925572 0.00444756 0)
(0.0927475 0.00433399 0)
(0.0929196 0.00421544 0)
(0.093074 0.00409242 0)
(0.0932111 0.00396542 0)
(0.0933316 0.00383494 0)
(0.093436 0.00370149 0)
(0.093525 0.00356558 0)
(0.093599 0.00342773 0)
(0.0936588 0.00328842 0)
(0.0937049 0.00314814 0)
(0.0937379 0.00300737 0)
(0.0937585 0.00286656 0)
(0.0937672 0.00272616 0)
(0.0937646 0.00258658 0)
(0.0937513 0.00244821 0)
(0.0937279 0.00231143 0)
(0.0936949 0.00217658 0)
(0.0936527 0.00204399 0)
(0.0936021 0.00191395 0)
(0.0935434 0.00178672 0)
(0.093477 0.00166256 0)
(0.0934036 0.00154167 0)
(0.0933234 0.00142425 0)
(0.093237 0.00131046 0)
(0.0931447 0.00120045 0)
(0.0930468 0.00109432 0)
(0.0929439 0.000992185 0)
(0.0928361 0.000894104 0)
(0.0927239 0.000800132 0)
(0.0926076 0.000710304 0)
(0.0924874 0.000624633 0)
(0.0923637 0.000543116 0)
(0.0922366 0.000465735 0)
(0.0921066 0.000392457 0)
(0.0919738 0.000323235 0)
(0.0918384 0.00025801 0)
(0.0917008 0.000196709 0)
(0.091561 0.000139257 0)
(0.0914194 8.55532e-05 0)
(0.0912761 3.55175e-05 0)
(0.0911313 -1.09847e-05 0)
(0.0909851 -5.40171e-05 0)
(0.090838 -9.37727e-05 0)
(0.0906896 -0.000130253 0)
(0.0905407 -0.000163769 0)
(0.0903906 -0.000194162 0)
(0.0902408 -0.000222002 0)
(0.0900894 -0.00024675 0)
(0.0899394 -0.000269559 0)
(0.089787 -0.000289011 0)
(0.0896376 -0.000307594 0)
(0.089484 -0.000321871 0)
(0.0893367 -0.000337367 0)
(0.0891813 -0.000346116 0)
(0.0890373 -0.000360223 0)
(0.0888797 -0.000362656 0)
(0.0887396 -0.000376458 0)
(0.0885783 -0.000375992 0)
(0.0884508 -0.000383515 0)
(0.0882726 -0.000383218 0)
(0.0881755 -0.000387365 0)
(0.087958 -0.000386014 0)
(0.0458079 -0.00121141 0)
(0.045333 -0.000973555 0)
(0.0449635 -0.000750487 0)
(0.0446933 -0.00054047 0)
(0.0445146 -0.00034242 0)
(0.0444213 -0.000154181 0)
(0.0444068 2.48728e-05 0)
(0.0444655 0.000196401 0)
(0.0445919 0.000360956 0)
(0.044781 0.000519729 0)
(0.0450281 0.000673211 0)
(0.0453289 0.000822251 0)
(0.0456795 0.000967264 0)
(0.0460762 0.00110886 0)
(0.0465156 0.00124737 0)
(0.0469944 0.00138324 0)
(0.0475099 0.00151674 0)
(0.0480592 0.00164816 0)
(0.0486398 0.00177771 0)
(0.0492494 0.00190561 0)
(0.0498857 0.00203198 0)
(0.0505466 0.00215696 0)
(0.0512302 0.00228062 0)
(0.0519346 0.00240303 0)
(0.0526579 0.00252419 0)
(0.0533986 0.00264412 0)
(0.0541549 0.00276276 0)
(0.0549253 0.00288004 0)
(0.0557082 0.00299588 0)
(0.0565022 0.00311014 0)
(0.0573056 0.00322267 0)
(0.0581172 0.00333329 0)
(0.0589355 0.00344179 0)
(0.0597591 0.00354793 0)
(0.0605865 0.00365147 0)
(0.0614164 0.00375212 0)
(0.0622475 0.00384959 0)
(0.0630784 0.00394355 0)
(0.0639076 0.00403368 0)
(0.0647339 0.00411965 0)
(0.065556 0.00420109 0)
(0.0663725 0.00427765 0)
(0.0671822 0.00434898 0)
(0.0679837 0.00441474 0)
(0.0687758 0.00447457 0)
(0.0695574 0.00452814 0)
(0.0703272 0.00457514 0)
(0.0710842 0.00461528 0)
(0.0718272 0.00464829 0)
(0.0725551 0.00467393 0)
(0.0732671 0.00469198 0)
(0.0739622 0.00470228 0)
(0.0746395 0.00470469 0)
(0.0752983 0.00469912 0)
(0.0759378 0.00468553 0)
(0.0765573 0.0046639 0)
(0.0771564 0.00463427 0)
(0.0777345 0.00459675 0)
(0.0782911 0.00455145 0)
(0.078826 0.00449855 0)
(0.0793388 0.00443827 0)
(0.0798294 0.00437088 0)
(0.0802977 0.00429666 0)
(0.0807435 0.00421596 0)
(0.081167 0.00412914 0)
(0.0815681 0.0040366 0)
(0.0819471 0.00393876 0)
(0.0823041 0.00383605 0)
(0.0826395 0.00372893 0)
(0.0829534 0.00361788 0)
(0.0832463 0.00350337 0)
(0.0835185 0.00338589 0)
(0.0837706 0.00326591 0)
(0.0840028 0.00314392 0)
(0.0842158 0.00302039 0)
(0.08441 0.00289579 0)
(0.0845861 0.00277056 0)
(0.0847444 0.00264514 0)
(0.0848857 0.00251994 0)
(0.0850104 0.00239538 0)
(0.0851192 0.00227181 0)
(0.0852126 0.00214959 0)
(0.0852912 0.00202906 0)
(0.0853557 0.00191052 0)
(0.0854066 0.00179425 0)
(0.0854445 0.0016805 0)
(0.0854699 0.0015695 0)
(0.0854835 0.00146145 0)
(0.0854858 0.00135655 0)
(0.0854773 0.00125493 0)
(0.0854585 0.00115674 0)
(0.0854301 0.00106208 0)
(0.0853926 0.000971032 0)
(0.0853463 0.000883674 0)
(0.0852919 0.000800049 0)
(0.0852298 0.000720185 0)
(0.0851605 0.000644094 0)
(0.0850844 0.000571769 0)
(0.0850019 0.000503192 0)
(0.0849136 0.000438327 0)
(0.0848198 0.00037713 0)
(0.0847208 0.000319537 0)
(0.0846172 0.000265491 0)
(0.0845092 0.000214895 0)
(0.0843973 0.000167689 0)
(0.0842817 0.000123742 0)
(0.0841628 8.30067e-05 0)
(0.0840409 4.53037e-05 0)
(0.0839164 1.06221e-05 0)
(0.0837894 -2.12859e-05 0)
(0.0836604 -5.03624e-05 0)
(0.0835294 -7.69522e-05 0)
(0.083397 -0.000100898 0)
(0.0832631 -0.000122655 0)
(0.0831281 -0.000141972 0)
(0.0829923 -0.000159363 0)
(0.0828553 -0.000174597 0)
(0.0827191 -0.000188032 0)
(0.0825799 -0.000199779 0)
(0.0824455 -0.000209621 0)
(0.0823023 -0.000218392 0)
(0.0821745 -0.000225213 0)
(0.0820225 -0.000230819 0)
(0.0819074 -0.000236115 0)
(0.08174 -0.000239901 0)
(0.081652 -0.000241914 0)
(0.0814489 -0.00024536 0)
(0.0266735 -0.000814207 0)
(0.0264218 -0.000677877 0)
(0.0262484 -0.000548249 0)
(0.0261498 -0.000424132 0)
(0.0261191 -0.000304948 0)
(0.0261525 -0.000189559 0)
(0.0262449 -7.7646e-05 0)
(0.0263928 3.16701e-05 0)
(0.0265924 0.000138627 0)
(0.0268407 0.00024386 0)
(0.0271344 0.000347571 0)
(0.0274709 0.00045021 0)
(0.0278477 0.000551946 0)
(0.0282626 0.000653096 0)
(0.0287133 0.000753798 0)
(0.0291979 0.000854273 0)
(0.0297145 0.000954624 0)
(0.0302616 0.001055 0)
(0.0308374 0.00115547 0)
(0.0314404 0.00125613 0)
(0.0320693 0.00135702 0)
(0.0327226 0.00145817 0)
(0.033399 0.00155958 0)
(0.0340974 0.00166126 0)
(0.0348165 0.00176317 0)
(0.0355551 0.00186525 0)
(0.0363121 0.00196743 0)
(0.0370864 0.00206963 0)
(0.0378767 0.00217171 0)
(0.0386821 0.00227354 0)
(0.0395013 0.00237495 0)
(0.0403332 0.00247577 0)
(0.0411768 0.00257578 0)
(0.0420308 0.00267475 0)
(0.042894 0.00277243 0)
(0.0437653 0.00286855 0)
(0.0446435 0.00296281 0)
(0.0455273 0.00305491 0)
(0.0464154 0.00314451 0)
(0.0473067 0.0032313 0)
(0.0481998 0.0033149 0)
(0.0490933 0.00339497 0)
(0.0499861 0.00347115 0)
(0.0508768 0.00354308 0)
(0.051764 0.00361039 0)
(0.0526465 0.00367274 0)
(0.0535228 0.00372978 0)
(0.0543918 0.0037812 0)
(0.0552521 0.00382669 0)
(0.0561025 0.00386596 0)
(0.0569417 0.00389876 0)
(0.0577685 0.00392487 0)
(0.0585818 0.00394409 0)
(0.0593805 0.00395628 0)
(0.0601635 0.00396132 0)
(0.0609298 0.00395914 0)
(0.0616786 0.0039497 0)
(0.0624088 0.00393303 0)
(0.0631197 0.00390916 0)
(0.0638106 0.00387821 0)
(0.0644809 0.00384032 0)
(0.0651299 0.00379567 0)
(0.0657571 0.00374448 0)
(0.0663621 0.003687 0)
(0.0669446 0.00362354 0)
(0.0675042 0.00355441 0)
(0.0680408 0.00347997 0)
(0.0685542 0.00340059 0)
(0.0690445 0.00331667 0)
(0.0695115 0.00322861 0)
(0.0699553 0.00313684 0)
(0.0703762 0.00304179 0)
(0.0707742 0.00294389 0)
(0.0711497 0.00284359 0)
(0.0715028 0.00274132 0)
(0.0718341 0.0026375 0)
(0.0721438 0.00253257 0)
(0.0724323 0.00242691 0)
(0.0727002 0.00232094 0)
(0.072948 0.00221502 0)
(0.073176 0.00210952 0)
(0.073385 0.00200478 0)
(0.0735754 0.00190112 0)
(0.0737478 0.00179883 0)
(0.0739029 0.00169819 0)
(0.0740412 0.00159946 0)
(0.0741633 0.00150286 0)
(0.0742699 0.0014086 0)
(0.0743616 0.00131686 0)
(0.0744391 0.00122781 0)
(0.0745028 0.00114158 0)
(0.0745535 0.00105828 0)
(0.0745918 0.000978026 0)
(0.0746183 0.000900881 0)
(0.0746336 0.000826906 0)
(0.0746383 0.000756142 0)
(0.0746329 0.000688614 0)
(0.0746181 0.000624329 0)
(0.0745944 0.000563281 0)
(0.0745624 0.000505449 0)
(0.0745225 0.000450804 0)
(0.0744754 0.000399298 0)
(0.0744215 0.000350885 0)
(0.0743613 0.000305489 0)
(0.0742952 0.000263061 0)
(0.0742239 0.000223488 0)
(0.0741476 0.000186741 0)
(0.0740668 0.000152643 0)
(0.0739819 0.000121231 0)
(0.0738933 9.22116e-05 0)
(0.0738013 6.57681e-05 0)
(0.0737065 4.13816e-05 0)
(0.0736088 1.95442e-05 0)
(0.0735092 -7.08894e-07 0)
(0.073407 -1.82718e-05 0)
(0.0733039 -3.49562e-05 0)
(0.073198 -4.85242e-05 0)
(0.0730931 -6.22593e-05 0)
(0.0729838 -7.21153e-05 0)
(0.0728791 -8.34096e-05 0)
(0.0727657 -9.02248e-05 0)
(0.0726646 -9.87773e-05 0)
(0.0725441 -0.000104691 0)
(0.0724532 -0.000108742 0)
(0.0723184 -0.000115578 0)
(0.0722491 -0.000115529 0)
(0.0720867 -0.000123366 0)
(0.0125328 -0.000619598 0)
(0.0123979 -0.000548105 0)
(0.0123145 -0.000478512 0)
(0.01228 -0.000411145 0)
(0.0122911 -0.000345143 0)
(0.0123459 -0.000280066 0)
(0.0124417 -0.00021562 0)
(0.0125768 -0.00015131 0)
(0.0127492 -8.69965e-05 0)
(0.0129575 -2.22951e-05 0)
(0.0131999 4.28857e-05 0)
(0.0134754 0.000108813 0)
(0.0137824 0.000175551 0)
(0.01412 0.000243278 0)
(0.014487 0.000312039 0)
(0.0148826 0.000381943 0)
(0.0153057 0.000453018 0)
(0.0157556 0.000525329 0)
(0.0162314 0.000598881 0)
(0.0167323 0.000673705 0)
(0.0172577 0.000749789 0)
(0.0178069 0.000827132 0)
(0.018379 0.000905702 0)
(0.0189736 0.000985469 0)
(0.0195898 0.00106638 0)
(0.0202271 0.00114837 0)
(0.0208847 0.00123136 0)
(0.021562 0.00131527 0)
(0.0222583 0.00139997 0)
(0.0229728 0.00148534 0)
(0.0237048 0.00157124 0)
(0.0244535 0.0016575 0)
(0.0252181 0.00174394 0)
(0.0259978 0.00183036 0)
(0.0267916 0.00191653 0)
(0.0275987 0.00200222 0)
(0.0284181 0.00208718 0)
(0.0292487 0.00217111 0)
(0.0300894 0.00225374 0)
(0.0309393 0.00233476 0)
(0.0317972 0.00241384 0)
(0.0326619 0.00249067 0)
(0.0335321 0.0025649 0)
(0.0344066 0.0026362 0)
(0.0352842 0.00270422 0)
(0.0361635 0.00276862 0)
(0.0370433 0.00282907 0)
(0.0379221 0.00288525 0)
(0.0387986 0.00293684 0)
(0.0396715 0.00298356 0)
(0.0405395 0.00302512 0)
(0.0414011 0.00306127 0)
(0.0422551 0.00309181 0)
(0.0431001 0.00311653 0)
(0.043935 0.00313527 0)
(0.0447584 0.00314792 0)
(0.0455692 0.00315438 0)
(0.0463662 0.00315462 0)
(0.0471484 0.00314862 0)
(0.0479147 0.00313641 0)
(0.0486641 0.00311807 0)
(0.0493958 0.0030937 0)
(0.0501089 0.00306345 0)
(0.0508026 0.0030275 0)
(0.0514763 0.00298606 0)
(0.0521294 0.00293938 0)
(0.0527614 0.00288774 0)
(0.0533717 0.00283142 0)
(0.0539601 0.00277076 0)
(0.0545262 0.00270608 0)
(0.0550698 0.00263774 0)
(0.0555908 0.0025661 0)
(0.0560892 0.00249153 0)
(0.0565648 0.00241442 0)
(0.0570178 0.00233512 0)
(0.0574483 0.00225402 0)
(0.0578564 0.00217149 0)
(0.0582425 0.00208788 0)
(0.0586069 0.00200356 0)
(0.0589497 0.00191884 0)
(0.0592716 0.00183407 0)
(0.0595728 0.00174955 0)
(0.0598539 0.00166556 0)
(0.0601153 0.00158239 0)
(0.0603576 0.00150029 0)
(0.0605814 0.00141949 0)
(0.0607871 0.00134021 0)
(0.0609755 0.00126263 0)
(0.061147 0.00118695 0)
(0.0613024 0.0011133 0)
(0.0614423 0.00104183 0)
(0.0615672 0.000972657 0)
(0.0616779 0.000905869 0)
(0.061775 0.000841552 0)
(0.0618591 0.000779767 0)
(0.0619308 0.000720563 0)
(0.0619908 0.000663972 0)
(0.0620397 0.000610012 0)
(0.0620781 0.000558688 0)
(0.0621066 0.000509993 0)
(0.0621258 0.000463909 0)
(0.0621362 0.000420404 0)
(0.0621386 0.000379446 0)
(0.0621332 0.00034098 0)
(0.0621209 0.000304965 0)
(0.0621019 0.00027132 0)
(0.0620769 0.000240007 0)
(0.0620462 0.000210915 0)
(0.0620104 0.000184021 0)
(0.0619699 0.000159177 0)
(0.0619252 0.000136381 0)
(0.0618765 0.000115457 0)
(0.0618244 9.64094e-05 0)
(0.0617692 7.9077e-05 0)
(0.0617109 6.33852e-05 0)
(0.0616508 4.93424e-05 0)
(0.0615875 3.65518e-05 0)
(0.0615241 2.55651e-05 0)
(0.0614562 1.51183e-05 0)
(0.0613917 7.06454e-06 0)
(0.0613187 -1.74906e-06 0)
(0.0612561 -6.8334e-06 0)
(0.0611764 -1.50453e-05 0)
(0.0611194 -1.67702e-05 0)
(0.0610301 -2.63117e-05 0)
(0.0609851 -2.41723e-05 0)
(0.0608798 -3.51583e-05 0)
(0.00296049 -0.000490009 0)
(0.00285101 -0.000460481 0)
(0.00277229 -0.000431064 0)
(0.00272402 -0.000401446 0)
(0.00270406 -0.00037142 0)
(0.00271215 -0.00034063 0)
(0.00274685 -0.00030901 0)
(0.00280786 -0.000276274 0)
(0.00289425 -0.000242397 0)
(0.00300574 -0.000207178 0)
(0.00314169 -0.0001706 0)
(0.00330187 -0.000132531 0)
(0.00348583 -9.29587e-05 0)
(0.00369339 -5.17977e-05 0)
(0.00392423 -9.04204e-06 0)
(0.00417817 3.53614e-05 0)
(0.00445499 8.14128e-05 0)
(0.00475452 0.000129141 0)
(0.00507659 0.00017854 0)
(0.00542104 0.00022962 0)
(0.00578771 0.000282364 0)
(0.00617642 0.000336768 0)
(0.00658702 0.000392804 0)
(0.00701932 0.000450448 0)
(0.00747312 0.00050966 0)
(0.00794821 0.000570397 0)
(0.00844435 0.000632598 0)
(0.00896128 0.000696198 0)
(0.0094987 0.000761114 0)
(0.0100563 0.000827255 0)
(0.0106336 0.00089451 0)
(0.0112304 0.000962758 0)
(0.011846 0.00103186 0)
(0.0124801 0.00110165 0)
(0.013132 0.00117198 0)
(0.0138011 0.00124263 0)
(0.0144868 0.00131341 0)
(0.0151884 0.00138409 0)
(0.015905 0.00145444 0)
(0.0166358 0.0015242 0)
(0.0173799 0.00159309 0)
(0.0181364 0.00166084 0)
(0.0189042 0.00172717 0)
(0.0196823 0.00179176 0)
(0.0204695 0.00185433 0)
(0.0212647 0.00191455 0)
(0.0220666 0.00197214 0)
(0.0228741 0.00202678 0)
(0.0236857 0.00207819 0)
(0.0245003 0.00212608 0)
(0.0253164 0.00217019 0)
(0.0261327 0.00221026 0)
(0.0269479 0.00224607 0)
(0.0277606 0.00227741 0)
(0.0285694 0.0023041 0)
(0.029373 0.00232598 0)
(0.0301701 0.00234295 0)
(0.0309593 0.0023549 0)
(0.0317395 0.00236178 0)
(0.0325093 0.00236357 0)
(0.0332677 0.00236028 0)
(0.0340134 0.00235196 0)
(0.0347455 0.00233868 0)
(0.0354629 0.00232056 0)
(0.0361647 0.00229773 0)
(0.0368501 0.00227036 0)
(0.0375182 0.00223865 0)
(0.0381684 0.00220282 0)
(0.0387999 0.0021631 0)
(0.0394123 0.00211976 0)
(0.040005 0.00207307 0)
(0.0405777 0.00202331 0)
(0.04113 0.00197078 0)
(0.0416617 0.00191578 0)
(0.0421727 0.00185861 0)
(0.0426627 0.00179959 0)
(0.0431318 0.00173901 0)
(0.04358 0.00167717 0)
(0.0440075 0.00161438 0)
(0.0444143 0.00155091 0)
(0.0448006 0.00148704 0)
(0.0451669 0.00142303 0)
(0.0455132 0.00135914 0)
(0.0458402 0.00129559 0)
(0.046148 0.00123262 0)
(0.0464372 0.00117042 0)
(0.0467081 0.00110918 0)
(0.0469615 0.00104908 0)
(0.0471976 0.000990276 0)
(0.0474172 0.000932905 0)
(0.0476206 0.000877092 0)
(0.0478086 0.000822944 0)
(0.0479817 0.000770555 0)
(0.0481405 0.000720001 0)
(0.0482856 0.000671347 0)
(0.0484176 0.000624643 0)
(0.0485371 0.000579924 0)
(0.0486446 0.000537217 0)
(0.0487409 0.000496534 0)
(0.0488264 0.000457879 0)
(0.0489018 0.000421245 0)
(0.0489677 0.000386615 0)
(0.0490245 0.00035397 0)
(0.0490728 0.000323268 0)
(0.0491133 0.000294489 0)
(0.0491463 0.000267562 0)
(0.0491724 0.000242479 0)
(0.0491922 0.000219125 0)
(0.0492059 0.000197532 0)
(0.0492143 0.000177512 0)
(0.0492174 0.000159176 0)
(0.0492161 0.00014222 0)
(0.0492104 0.000126894 0)
(0.0492011 0.000112713 0)
(0.0491879 0.00010013 0)
(0.0491722 8.84389e-05 0)
(0.0491526 7.82789e-05 0)
(0.0491321 6.88673e-05 0)
(0.0491072 6.06414e-05 0)
(0.0490834 5.35484e-05 0)
(0.0490535 4.63293e-05 0)
(0.0490284 4.2145e-05 0)
(0.0489935 3.42592e-05 0)
(0.0489691 3.40601e-05 0)
(0.0489288 2.38075e-05 0)
(0.0489067 2.73434e-05 0)
(0.048861 1.52534e-05 0)
(-0.00286438 -0.000366662 0)
(-0.00298725 -0.00035933 0)
(-0.00309441 -0.000351155 0)
(-0.00318565 -0.000342526 0)
(-0.00326158 -0.000333004 0)
(-0.00332189 -0.000322592 0)
(-0.00336691 -0.000311138 0)
(-0.00339631 -0.00029853 0)
(-0.00341018 -0.000284714 0)
(-0.0034082 -0.000269577 0)
(-0.0033903 -0.000253096 0)
(-0.00335615 -0.000235184 0)
(-0.00330559 -0.000215829 0)
(-0.00323829 -0.00019497 0)
(-0.00315403 -0.0001726 0)
(-0.00305249 -0.000148681 0)
(-0.0029334 -0.000123209 0)
(-0.00279646 -9.61609e-05 0)
(-0.00264141 -6.75362e-05 0)
(-0.00246794 -3.73227e-05 0)
(-0.0022758 -5.5248e-06 0)
(-0.00206473 2.78604e-05 0)
(-0.00183448 6.28227e-05 0)
(-0.00158482 9.93553e-05 0)
(-0.00131556 0.00013744 0)
(-0.00102651 0.000177057 0)
(-0.000717518 0.000218178 0)
(-0.000388457 0.000260769 0)
(-3.92408e-05 0.000304784 0)
(0.000330182 0.000350171 0)
(0.00071982 0.000396866 0)
(0.00112964 0.000444794 0)
(0.00155955 0.000493867 0)
(0.00200941 0.000543983 0)
(0.00247904 0.000595028 0)
(0.00296818 0.000646873 0)
(0.0034765 0.000699372 0)
(0.00400364 0.000752367 0)
(0.00454915 0.000805685 0)
(0.0051125 0.000859136 0)
(0.00569311 0.000912521 0)
(0.00629032 0.000965624 0)
(0.00690341 0.00101822 0)
(0.00753159 0.00107008 0)
(0.00817397 0.00112095 0)
(0.00882963 0.00117059 0)
(0.00949758 0.00121875 0)
(0.0101768 0.00126517 0)
(0.0108661 0.00130961 0)
(0.0115643 0.00135183 0)
(0.0122703 0.00139158 0)
(0.0129828 0.00142865 0)
(0.0137005 0.00146281 0)
(0.014422 0.00149388 0)
(0.0151462 0.00152168 0)
(0.0158716 0.00154605 0)
(0.0165969 0.00156686 0)
(0.0173207 0.001584 0)
(0.0180417 0.00159738 0)
(0.0187587 0.00160696 0)
(0.0194702 0.0016127 0)
(0.0201751 0.00161459 0)
(0.0208722 0.00161267 0)
(0.0215603 0.00160699 0)
(0.0222382 0.00159762 0)
(0.022905 0.00158466 0)
(0.0235596 0.00156825 0)
(0.024201 0.00154851 0)
(0.0248285 0.00152562 0)
(0.0254413 0.00149977 0)
(0.0260386 0.00147113 0)
(0.0266198 0.00143992 0)
(0.0271843 0.00140636 0)
(0.0277317 0.00137067 0)
(0.0282615 0.00133308 0)
(0.0287734 0.00129383 0)
(0.0292671 0.00125314 0)
(0.0297425 0.00121124 0)
(0.0301995 0.00116837 0)
(0.0306378 0.00112474 0)
(0.0310577 0.00108057 0)
(0.0314591 0.00103608 0)
(0.0318422 0.000991446 0)
(0.0322071 0.000946873 0)
(0.032554 0.000902534 0)
(0.0328833 0.000858594 0)
(0.0331953 0.000815207 0)
(0.0334903 0.000772513 0)
(0.0337686 0.000730642 0)
(0.0340308 0.000689709 0)
(0.0342772 0.000649816 0)
(0.0345083 0.000611055 0)
(0.0347246 0.000573504 0)
(0.0349266 0.00053723 0)
(0.0351149 0.000502288 0)
(0.0352899 0.000468723 0)
(0.0354522 0.000436569 0)
(0.0356023 0.00040585 0)
(0.0357408 0.000376582 0)
(0.0358682 0.000348771 0)
(0.035985 0.000322419 0)
(0.0360919 0.000297514 0)
(0.0361893 0.000274044 0)
(0.0362777 0.000251986 0)
(0.0363577 0.000231318 0)
(0.0364298 0.000212002 0)
(0.0364945 0.000194013 0)
(0.0365523 0.000177299 0)
(0.0366036 0.000161834 0)
(0.0366488 0.000147556 0)
(0.0366886 0.00013443 0)
(0.0367231 0.000122413 0)
(0.0367529 0.00011141 0)
(0.0367785 0.000101483 0)
(0.0367999 9.23453e-05 0)
(0.0368179 8.43763e-05 0)
(0.0368323 7.67689e-05 0)
(0.0368443 7.07127e-05 0)
(0.0368527 6.41615e-05 0)
(0.0368601 6.01334e-05 0)
(0.0368636 5.392e-05 0)
(0.0368673 5.22877e-05 0)
(0.0368673 4.53042e-05 0)
(0.0368672 4.66779e-05 0)
(0.0368658 3.75555e-05 0)
(0.0368605 4.17073e-05 0)
(0.0368612 3.12453e-05 0)
(-0.00552632 -0.000228439 0)
(-0.00565938 -0.000231145 0)
(-0.00578732 -0.000233314 0)
(-0.00590934 -0.000234852 0)
(-0.0060258 -0.000235715 0)
(-0.00613589 -0.000235778 0)
(-0.00623968 -0.000235049 0)
(-0.00633645 -0.000233422 0)
(-0.00642602 -0.000230912 0)
(-0.00650773 -0.000227441 0)
(-0.00658126 -0.000223018 0)
(-0.00664598 -0.000217591 0)
(-0.00670147 -0.000211159 0)
(-0.00674711 -0.000203685 0)
(-0.00678243 -0.000195165 0)
(-0.00680684 -0.000185571 0)
(-0.00681984 -0.000174895 0)
(-0.00682084 -0.000163116 0)
(-0.00680931 -0.000150223 0)
(-0.00678472 -0.000136198 0)
(-0.00674652 -0.00012103 0)
(-0.00669419 -0.000104704 0)
(-0.0066272 -8.72114e-05 0)
(-0.00654504 -6.85399e-05 0)
(-0.00644722 -4.86838e-05 0)
(-0.00633326 -2.7637e-05 0)
(-0.00620269 -5.39962e-06 0)
(-0.00605508 1.80262e-05 0)
(-0.00589 4.26314e-05 0)
(-0.00570707 6.84022e-05 0)
(-0.00550595 9.53169e-05 0)
(-0.0052863 0.000123347 0)
(-0.00504786 0.000152454 0)
(-0.00479039 0.000182591 0)
(-0.00451371 0.0002137 0)
(-0.0042177 0.000245712 0)
(-0.00390227 0.000278548 0)
(-0.00356743 0.000312115 0)
(-0.00321323 0.000346308 0)
(-0.00283981 0.000381013 0)
(-0.00244736 0.0004161 0)
(-0.00203616 0.000451429 0)
(-0.00160658 0.000486852 0)
(-0.00115904 0.000522208 0)
(-0.000694063 0.000557329 0)
(-0.00021225 0.000592039 0)
(0.000285723 0.000626158 0)
(0.000799099 0.000659502 0)
(0.00132704 0.000691886 0)
(0.00186865 0.000723123 0)
(0.00242295 0.000753033 0)
(0.0029889 0.000781438 0)
(0.00356539 0.000808167 0)
(0.00415128 0.000833062 0)
(0.00474536 0.000855972 0)
(0.0053464 0.000876762 0)
(0.00595313 0.000895311 0)
(0.00656425 0.000911516 0)
(0.00717845 0.00092529 0)
(0.00779442 0.000936567 0)
(0.00841084 0.000945297 0)
(0.00902641 0.000951454 0)
(0.00963983 0.000955029 0)
(0.0102498 0.000956035 0)
(0.0108552 0.000954501 0)
(0.0114548 0.000950478 0)
(0.0120473 0.000944034 0)
(0.0126318 0.000935251 0)
(0.0132072 0.000924229 0)
(0.0137725 0.00091108 0)
(0.0143268 0.000895929 0)
(0.0148693 0.00087891 0)
(0.0153991 0.000860167 0)
(0.0159157 0.000839849 0)
(0.0164183 0.000818112 0)
(0.0169064 0.000795113 0)
(0.0173795 0.000771014 0)
(0.0178373 0.000745973 0)
(0.0182795 0.00072015 0)
(0.0187057 0.000693699 0)
(0.0191157 0.000666774 0)
(0.0195095 0.000639521 0)
(0.0198871 0.000612081 0)
(0.0202483 0.000584587 0)
(0.0205933 0.000557165 0)
(0.0209222 0.000529935 0)
(0.0212352 0.000503005 0)
(0.0215325 0.000476475 0)
(0.0218144 0.000450439 0)
(0.0220811 0.000424978 0)
(0.022333 0.000400165 0)
(0.0225705 0.000376066 0)
(0.022794 0.000352736 0)
(0.0230038 0.000330222 0)
(0.0232006 0.000308564 0)
(0.0233846 0.000287792 0)
(0.0235565 0.00026793 0)
(0.0237167 0.000248995 0)
(0.0238657 0.000230998 0)
(0.024004 0.000213941 0)
(0.0241321 0.000197825 0)
(0.0242505 0.00018264 0)
(0.0243599 0.000168381 0)
(0.0244605 0.000155024 0)
(0.024553 0.000142562 0)
(0.0246379 0.000130955 0)
(0.0247155 0.000120204 0)
(0.0247865 0.000110245 0)
(0.0248513 0.000101098 0)
(0.0249102 9.26646e-05 0)
(0.0249638 8.50002e-05 0)
(0.0250125 7.79611e-05 0)
(0.0250565 7.16427e-05 0)
(0.0250965 6.58666e-05 0)
(0.0251326 6.07335e-05 0)
(0.0251653 5.61154e-05 0)
(0.0251948 5.19497e-05 0)
(0.0252216 4.84636e-05 0)
(0.0252458 4.49138e-05 0)
(0.0252675 4.27111e-05 0)
(0.025288 3.91649e-05 0)
(0.025305 3.86799e-05 0)
(0.0253237 3.41978e-05 0)
(0.025335 3.59927e-05 0)
(0.0253551 2.97451e-05 0)
(0.0253576 3.33723e-05 0)
(0.0253835 2.63644e-05 0)
(-0.00535644 -9.43005e-05 0)
(-0.00546877 -9.76753e-05 0)
(-0.00558216 -0.000100655 0)
(-0.00569584 -0.000103478 0)
(-0.00580992 -0.00010597 0)
(-0.00592369 -0.000108213 0)
(-0.00603707 -0.000110134 0)
(-0.0061494 -0.000111743 0)
(-0.00626046 -0.000113011 0)
(-0.00636965 -0.000113919 0)
(-0.00647662 -0.000114455 0)
(-0.00658082 -0.000114597 0)
(-0.00668182 -0.000114334 0)
(-0.00677908 -0.000113645 0)
(-0.00687211 -0.000112522 0)
(-0.00696038 -0.000110947 0)
(-0.00704338 -0.000108909 0)
(-0.00712056 -0.000106393 0)
(-0.00719139 -0.000103388 0)
(-0.00725531 -9.98776e-05 0)
(-0.00731177 -9.58509e-05 0)
(-0.00736022 -9.12923e-05 0)
(-0.00740008 -8.61892e-05 0)
(-0.00743079 -8.05265e-05 0)
(-0.00745179 -7.42912e-05 0)
(-0.00746249 -6.74692e-05 0)
(-0.00746234 -6.00483e-05 0)
(-0.00745076 -5.20163e-05 0)
(-0.0074272 -4.33637e-05 0)
(-0.0073911 -3.40821e-05 0)
(-0.00734192 -2.41665e-05 0)
(-0.00727914 -1.36145e-05 0)
(-0.00720225 -2.42814e-06 0)
(-0.00711077 9.38668e-06 0)
(-0.00700425 2.18184e-05 0)
(-0.00688227 3.48503e-05 0)
(-0.00674444 4.84588e-05 0)
(-0.00659045 6.26144e-05 0)
(-0.00641999 7.72799e-05 0)
(-0.00623284 9.24109e-05 0)
(-0.00602884 0.000107956 0)
(-0.00580788 0.000123855 0)
(-0.00556993 0.000140041 0)
(-0.00531504 0.000156441 0)
(-0.00504333 0.000172974 0)
(-0.004755 0.000189553 0)
(-0.00445034 0.000206087 0)
(-0.00412973 0.00022248 0)
(-0.00379362 0.000238632 0)
(-0.00344257 0.000254443 0)
(-0.0030772 0.00026981 0)
(-0.00269822 0.000284633 0)
(-0.00230642 0.000298812 0)
(-0.00190267 0.000312252 0)
(-0.0014879 0.000324861 0)
(-0.00106309 0.000336556 0)
(-0.00062931 0.000347257 0)
(-0.000187649 0.000356896 0)
(0.000260754 0.000365412 0)
(0.000714726 0.000372755 0)
(0.00117307 0.000378886 0)
(0.00163459 0.000383776 0)
(0.00209806 0.000387408 0)
(0.00256228 0.000389776 0)
(0.00302605 0.000390884 0)
(0.00348819 0.00039075 0)
(0.00394756 0.0003894 0)
(0.00440304 0.00038687 0)
(0.00485356 0.000383204 0)
(0.00529812 0.000378458 0)
(0.00573575 0.000372692 0)
(0.00616554 0.000365972 0)
(0.00658665 0.000358371 0)
(0.00699833 0.000349966 0)
(0.00739986 0.000340837 0)
(0.00779062 0.000331065 0)
(0.00817006 0.000320734 0)
(0.0085377 0.000309926 0)
(0.00889312 0.000298724 0)
(0.009236 0.000287209 0)
(0.00956608 0.000275459 0)
(0.00988315 0.000263551 0)
(0.0101871 0.000251556 0)
(0.0104779 0.000239542 0)
(0.0107554 0.000227574 0)
(0.0110199 0.00021571 0)
(0.0112713 0.000204005 0)
(0.0115098 0.000192508 0)
(0.0117357 0.000181263 0)
(0.0119491 0.00017031 0)
(0.0121505 0.000159681 0)
(0.01234 0.000149406 0)
(0.012518 0.00013951 0)
(0.012685 0.000130013 0)
(0.0128412 0.000120929 0)
(0.0129872 0.00011227 0)
(0.0131233 0.000104044 0)
(0.0132499 9.62555e-05 0)
(0.0133676 8.89044e-05 0)
(0.0134767 8.19894e-05 0)
(0.0135778 7.55055e-05 0)
(0.0136712 6.94463e-05 0)
(0.0137574 6.38023e-05 0)
(0.0138368 5.85634e-05 0)