/*--------------------------------*- C++ -*----------------------------------*\
| =========                 |                                                 |
| \\      /  F ield         | OpenFOAM: The Open Source CFD Toolbox           |
|  \\    /   O peration     | Version:  4.1                                   |
|   \\  /    A nd           | Web:      www.OpenFOAM.org                      |
|    \\/     M anipulation  |                                                 |
\*---------------------------------------------------------------------------*/
FoamFile
{
    version     2.0;
    format      ascii;
    class       volVectorField;
    location    "1410";
    object      U;
}
// * * * * * * * * * * * * * * * * * * * * * * * * * * * * * * * * * * * * * //

dimensions      [0 1 -1 0 0 0 0];

internalField   nonuniform List<vector> 
1275
(
(0.07641 -5.73838e-05 0)
(0.076612 -0.000119894 0)
(0.0764754 -0.000219699 0)
(0.0767189 -0.000279685 0)
(0.0767098 -0.000334208 0)
(0.0770283 -0.000427969 0)
(0.0771405 -0.000449306 0)
(0.0775699 -0.000614335 0)
(0.0778197 -0.000640514 0)
(0.0784732 -0.000870987 0)
(0.112435 -4.02817e-05 0)
(0.112616 -0.000132682 0)
(0.112485 -0.000263577 0)
(0.112674 -0.000348965 0)
(0.112627 -0.000461485 0)
(0.112861 -0.000564178 0)
(0.112887 -0.000680341 0)
(0.113186 -0.000819089 0)
(0.113265 -0.00100176 0)
(0.113617 -0.00115376 0)
(0.136447 -3.29751e-05 0)
(0.136616 -0.00015276 0)
(0.136479 -0.00028775 0)
(0.136632 -0.000409867 0)
(0.136553 -0.000531357 0)
(0.136717 -0.000677147 0)
(0.136688 -0.000795271 0)
(0.136881 -0.000984463 0)
(0.136889 -0.00112493 0)
(0.137091 -0.0013458 0)
(0.148452 -2.87024e-05 0)
(0.148612 -0.000153966 0)
(0.14846 -0.000288012 0)
(0.14858 -0.000415982 0)
(0.148461 -0.000551067 0)
(0.148559 -0.00069387 0)
(0.148462 -0.00084171 0)
(0.14855 -0.00100843 0)
(0.148451 -0.00119284 0)
(0.148514 -0.00137151 0)
(0.148453 -2.35627e-05 0)
(0.148607 -0.000150735 0)
(0.148437 -0.000265414 0)
(0.148526 -0.000402009 0)
(0.148368 -0.000520231 0)
(0.148408 -0.00067294 0)
(0.148252 -0.000798512 0)
(0.148251 -0.000971987 0)
(0.14808 -0.00111323 0)
(0.148028 -0.00129233 0)
(0.136449 -1.62954e-05 0)
(0.136598 -0.000127581 0)
(0.136406 -0.00021464 0)
(0.136465 -0.000337538 0)
(0.136267 -0.000437814 0)
(0.136254 -0.000571537 0)
(0.136037 -0.000685245 0)
(0.135957 -0.000829826 0)
(0.135702 -0.000959973 0)
(0.13555 -0.00110589 0)
(0.112439 -3.87599e-06 0)
(0.112585 -9.78074e-05 0)
(0.112368 -0.0001461 0)
(0.1124 -0.000255013 0)
(0.112165 -0.000321032 0)
(0.112106 -0.000437431 0)
(0.111837 -0.00051337 0)
(0.11169 -0.000634131 0)
(0.111368 -0.000717873 0)
(0.111132 -0.000832343 0)
(0.0764174 2.67926e-05 0)
(0.0765625 -3.65895e-05 0)
(0.0763141 -4.05595e-05 0)
(0.0763404 -0.000119386 0)
(0.0760742 -0.000151468 0)
(0.0759989 -0.00023183 0)
(0.0756887 -0.000274615 0)
(0.075512 -0.000353063 0)
(0.0751366 -0.000401369 0)
(0.0748568 -0.000473138 0)
(0.0284323 6.10618e-05 0)
(0.0286338 3.00373e-05 0)
(0.0284807 4.63237e-05 0)
(0.0285965 1.49037e-06 0)
(0.0284066 -1.76489e-06 0)
(0.0284114 -3.95375e-05 0)
(0.0281695 -4.33507e-05 0)
(0.0280703 -7.35733e-05 0)
(0.0277694 -7.52524e-05 0)
(0.027578 -9.67313e-05 0)
(0.0814055 -0.00395617 0)
(0.0825861 -0.00419321 0)
(0.0838031 -0.00445397 0)
(0.0850598 -0.00473168 0)
(0.0863549 -0.0050327 0)
(0.0876929 -0.00535523 0)
(0.0890724 -0.00570285 0)
(0.0904966 -0.0060754 0)
(0.0919641 -0.00647536 0)
(0.0934763 -0.00690323 0)
(0.0950317 -0.00736082 0)
(0.0966299 -0.0078488 0)
(0.0982683 -0.00836844 0)
(0.0999445 -0.0089202 0)
(0.101654 -0.00950469 0)
(0.103394 -0.0101218 0)
(0.105155 -0.0107713 0)
(0.106933 -0.011452 0)
(0.108717 -0.0121625 0)
(0.110498 -0.0129002 0)
(0.112263 -0.013662 0)
(0.114 -0.0144434 0)
(0.115694 -0.0152391 0)
(0.11733 -0.0160425 0)
(0.118889 -0.0168458 0)
(0.120353 -0.01764 0)
(0.121705 -0.0184151 0)
(0.122924 -0.01916 0)
(0.123992 -0.0198629 0)
(0.12489 -0.0205114 0)
(0.125599 -0.0210931 0)
(0.126105 -0.0215955 0)
(0.126391 -0.0220068 0)
(0.126447 -0.0223161 0)
(0.126262 -0.022514 0)
(0.125832 -0.0225928 0)
(0.125154 -0.022547 0)
(0.124229 -0.0223739 0)
(0.123065 -0.0220733 0)
(0.12167 -0.0216481 0)
(0.120059 -0.021104 0)
(0.118249 -0.0204496 0)
(0.116261 -0.0196955 0)
(0.114119 -0.0188545 0)
(0.111848 -0.0179403 0)
(0.109476 -0.0169679 0)
(0.107031 -0.0159522 0)
(0.104544 -0.0149084 0)
(0.102042 -0.0138508 0)
(0.0995536 -0.0127933 0)
(0.0971061 -0.0117482 0)
(0.0947236 -0.0107267 0)
(0.0924277 -0.00973778 0)
(0.0902371 -0.00878894 0)
(0.0881673 -0.00788553 0)
(0.0862305 -0.00703116 0)
(0.0844359 -0.00622779 0)
(0.0827894 -0.00547596 0)
(0.0812945 -0.00477508 0)
(0.0799521 -0.00412364 0)
(0.0787608 -0.00351945 0)
(0.0777175 -0.00295987 0)
(0.0768178 -0.002442 0)
(0.0760559 -0.00196274 0)
(0.0754252 -0.00151902 0)
(0.0749184 -0.00110773 0)
(0.0745281 -0.000725985 0)
(0.0742465 -0.000370877 0)
(0.074066 -3.98729e-05 0)
(0.0739789 0.00026965 0)
(0.0739781 0.000559775 0)
(0.0740561 0.000832881 0)
(0.0742072 0.00109058 0)
(0.0744237 0.00133501 0)
(0.0747019 0.00156751 0)
(0.0750336 0.00178951 0)
(0.0754168 0.00200346 0)
(0.0758451 0.00220662 0)
(0.0789682 -0.0011959 0)
(0.0787898 -0.00132565 0)
(0.0792796 -0.00141852 0)
(0.0795315 -0.00152519 0)
(0.0800988 -0.00159567 0)
(0.0805605 -0.00168018 0)
(0.0811695 -0.00173855 0)
(0.0817278 -0.00180109 0)
(0.0823591 -0.00184726 0)
(0.0829627 -0.00189322 0)
(0.0836042 -0.00192964 0)
(0.0842281 -0.00196478 0)
(0.0848714 -0.00199473 0)
(0.0855021 -0.00202372 0)
(0.0861422 -0.00205029 0)
(0.0867724 -0.00207666 0)
(0.0874064 -0.0021025 0)
(0.0880326 -0.00212902 0)
(0.0886597 -0.00215637 0)
(0.0892808 -0.00218527 0)
(0.0899017 -0.00221609 0)
(0.0905183 -0.00224929 0)
(0.0911347 -0.00228533 0)
(0.0917486 -0.00232458 0)
(0.092363 -0.00236754 0)
(0.0929768 -0.00241451 0)
(0.0935925 -0.00246606 0)
(0.0942096 -0.00252245 0)
(0.0948301 -0.00258435 0)
(0.0954544 -0.00265196 0)
(0.096084 -0.0027261 0)
(0.0967198 -0.00280688 0)
(0.0973628 -0.00289532 0)
(0.0980151 -0.00299146 0)
(0.0986757 -0.00309651 0)
(0.0993501 -0.00321047 0)
(0.100032 -0.00333468 0)
(0.100736 -0.00346929 0)
(0.101441 -0.00361541 0)
(0.102184 -0.00377405 0)
(0.10291 -0.00394482 0)
(0.103709 -0.0041318 0)
(0.10444 -0.0043293 0)
(0.105334 -0.00455097 0)
(0.106021 -0.0047743 0)
(0.106945 -0.00503554 0)
(0.10783 -0.00530431 0)
(0.108722 -0.00559484 0)
(0.109647 -0.00590559 0)
(0.110591 -0.00623964 0)
(0.111562 -0.00659638 0)
(0.112553 -0.00697802 0)
(0.113568 -0.00738455 0)
(0.114602 -0.00781748 0)
(0.115655 -0.00827699 0)
(0.116722 -0.00876398 0)
(0.117801 -0.00927847 0)
(0.118887 -0.0098207 0)
(0.119973 -0.0103902 0)
(0.121055 -0.0109865 0)
(0.122123 -0.0116082 0)
(0.12317 -0.0122538 0)
(0.124186 -0.012921 0)
(0.125159 -0.0136067 0)
(0.126077 -0.0143073 0)
(0.126927 -0.0150179 0)
(0.127694 -0.0157332 0)
(0.128362 -0.0164465 0)
(0.128915 -0.0171504 0)
(0.129335 -0.0178362 0)
(0.129607 -0.0184947 0)
(0.129711 -0.0191156 0)
(0.129631 -0.019688 0)
(0.129352 -0.0202007 0)
(0.128858 -0.0206424 0)
(0.128137 -0.0210021 0)
(0.127178 -0.0212694 0)
(0.125973 -0.0214353 0)
(0.124519 -0.0214921 0)
(0.122814 -0.021434 0)
(0.120862 -0.0212578 0)
(0.118668 -0.0209624 0)
(0.116245 -0.0205493 0)
(0.113607 -0.0200227 0)
(0.110772 -0.0193889 0)
(0.107764 -0.0186568 0)
(0.104608 -0.0178373 0)
(0.101335 -0.0169433 0)
(0.0979749 -0.0159896 0)
(0.0945629 -0.0149919 0)
(0.0911329 -0.0139667 0)
(0.0877191 -0.01293 0)
(0.0843545 -0.0118972 0)
(0.0810704 -0.0108821 0)
(0.0778952 -0.00989646 0)
(0.0748546 -0.00894991 0)
(0.0719707 -0.00804982 0)
(0.0692618 -0.00720143 0)
(0.0667424 -0.00640798 0)
(0.0644226 -0.005671 0)
(0.0623086 -0.00499051 0)
(0.0604027 -0.00436527 0)
(0.0587035 -0.00379306 0)
(0.0572067 -0.00327084 0)
(0.0559054 -0.00279503 0)
(0.0547907 -0.00236171 0)
(0.0538524 -0.00196682 0)
(0.0530796 -0.00160632 0)
(0.0524608 -0.00127627 0)
(0.0519845 -0.000973055 0)
(0.0516395 -0.000693254 0)
(0.0514151 -0.00043385 0)
(0.051301 -0.000192102 0)
(0.0512879 3.44147e-05 0)
(0.0513666 0.000247735 0)
(0.0515295 0.000449924 0)
(0.0517686 0.00064217 0)
(0.0520781 0.000826714 0)
(0.0524505 0.00100338 0)
(0.0528822 0.00117565 0)
(0.0533659 0.0013409 0)
(0.0538997 0.00150502 0)
(0.0544776 0.00166376 0)
(0.113712 -0.00168021 0)
(0.113824 -0.00178949 0)
(0.114063 -0.00198408 0)
(0.11423 -0.00203839 0)
(0.114511 -0.0021243 0)
(0.114732 -0.00216616 0)
(0.115024 -0.00221835 0)
(0.115278 -0.0022545 0)
(0.115574 -0.00229317 0)
(0.115847 -0.00232432 0)
(0.116146 -0.00235566 0)
(0.11643 -0.00238278 0)
(0.116729 -0.00240983 0)
(0.117019 -0.00243454 0)
(0.117317 -0.00245966 0)
(0.117608 -0.00248388 0)
(0.117904 -0.00250925 0)
(0.118196 -0.00253498 0)
(0.11849 -0.00256267 0)
(0.118781 -0.00259187 0)
(0.119073 -0.00262384 0)
(0.119363 -0.00265838 0)
(0.119655 -0.00269652 0)
(0.119946 -0.00273821 0)
(0.120238 -0.00278434 0)
(0.120531 -0.00283498 0)
(0.120826 -0.00289094 0)
(0.121123 -0.00295234 0)
(0.121423 -0.00302003 0)
(0.121725 -0.0030941 0)
(0.122032 -0.00317554 0)
(0.122342 -0.0032643 0)
(0.122658 -0.00336168 0)
(0.122978 -0.00346734 0)
(0.123306 -0.00358309 0)
(0.123637 -0.003708 0)
(0.12398 -0.00384485 0)
(0.124324 -0.00399151 0)
(0.124684 -0.00415261 0)
(0.125041 -0.0043235 0)
(0.125421 -0.00451257 0)
(0.125791 -0.00470997 0)
(0.126192 -0.00493141 0)
(0.126577 -0.00515749 0)
(0.12699 -0.00541465 0)
(0.127403 -0.00567597 0)
(0.127823 -0.00596499 0)
(0.128247 -0.00627013 0)
(0.128679 -0.00659735 0)
(0.129111 -0.00694505 0)
(0.129547 -0.00731481 0)
(0.129979 -0.00770684 0)
(0.130408 -0.00812161 0)
(0.130827 -0.00855941 0)
(0.131236 -0.0090202 0)
(0.131626 -0.00950387 0)
(0.131994 -0.0100098 0)
(0.132332 -0.0105374 0)
(0.132633 -0.0110852 0)
(0.132889 -0.0116517 0)
(0.133092 -0.0122346 0)
(0.133229 -0.0128312 0)
(0.133292 -0.0134381 0)
(0.133266 -0.0140513 0)
(0.13314 -0.0146658 0)
(0.1329 -0.0152761 0)
(0.132531 -0.0158758 0)
(0.132018 -0.0164576 0)
(0.131347 -0.0170135 0)
(0.130503 -0.0175349 0)
(0.129471 -0.0180124 0)
(0.128238 -0.0184366 0)
(0.12679 -0.0187979 0)
(0.125118 -0.0190865 0)
(0.123212 -0.0192937 0)
(0.121066 -0.0194109 0)
(0.118676 -0.019431 0)
(0.116042 -0.019348 0)
(0.113169 -0.0191576 0)
(0.110062 -0.0188574 0)
(0.106734 -0.0184473 0)
(0.103202 -0.0179299 0)
(0.0994869 -0.0173105 0)
(0.095614 -0.0165974 0)
(0.0916133 -0.0158016 0)
(0.0875179 -0.0149367 0)
(0.0833636 -0.0140177 0)
(0.079188 -0.0130609 0)
(0.0750295 -0.0120829 0)
(0.0709272 -0.0110997 0)
(0.0669197 -0.010126 0)
(0.0630442 -0.00917554 0)
(0.0593357 -0.00826027 0)
(0.0558255 -0.0073906 0)
(0.0525403 -0.00657503 0)
(0.0495007 -0.00581997 0)
(0.0467208 -0.00512942 0)
(0.0442073 -0.00450489 0)
(0.0419604 -0.00394551 0)
(0.0399743 -0.00344831 0)
(0.0382381 -0.00300872 0)
(0.0367377 -0.00262108 0)
(0.0354565 -0.00227918 0)
(0.0343769 -0.00197677 0)
(0.0334814 -0.00170786 0)
(0.0327529 -0.00146699 0)
(0.0321754 -0.00124934 0)
(0.0317342 -0.00105082 0)
(0.0314159 -0.000867933 0)
(0.0312088 -0.000697864 0)
(0.0311021 -0.000538244 0)
(0.0310867 -0.000387206 0)
(0.031154 -0.000243166 0)
(0.0312971 -0.000104883 0)
(0.0315091 2.8714e-05 0)
(0.031785 0.000158496 0)
(0.0321189 0.000285192 0)
(0.0325074 0.000409493 0)
(0.0329453 0.000531853 0)
(0.0334305 0.000652978 0)
(0.0339587 0.000772904 0)
(0.0345275 0.00089285 0)
(0.0351356 0.00101169 0)
(0.137141 -0.00158398 0)
(0.137132 -0.00171855 0)
(0.137182 -0.00188809 0)
(0.137173 -0.00198926 0)
(0.137243 -0.00210954 0)
(0.137269 -0.00219068 0)
(0.137349 -0.00227799 0)
(0.1374 -0.00234139 0)
(0.137482 -0.00240508 0)
(0.137545 -0.00245334 0)
(0.137625 -0.0025002 0)
(0.137692 -0.00253704 0)
(0.137767 -0.00257267 0)
(0.137832 -0.00260213 0)
(0.1379 -0.00263126 0)
(0.13796 -0.00265712 0)
(0.138021 -0.00268372 0)
(0.138075 -0.00270931 0)
(0.138128 -0.00273669 0)
(0.138176 -0.00276487 0)
(0.138222 -0.00279586 0)
(0.138263 -0.00282912 0)
(0.138302 -0.00286615 0)
(0.138337 -0.00290672 0)
(0.138371 -0.00295198 0)
(0.1384 -0.00300192 0)
(0.138428 -0.00305747 0)
(0.138453 -0.00311876 0)
(0.138476 -0.0031866 0)
(0.138497 -0.00326123 0)
(0.138515 -0.00334339 0)
(0.138532 -0.00343344 0)
(0.138546 -0.00353203 0)
(0.138558 -0.0036397 0)
(0.138568 -0.00375692 0)
(0.138576 -0.00388461 0)
(0.13858 -0.00402277 0)
(0.138583 -0.00417307 0)
(0.13858 -0.00433453 0)
(0.138575 -0.00451029 0)
(0.138564 -0.00469744 0)
(0.138548 -0.00490161 0)
(0.138526 -0.00511697 0)
(0.138494 -0.00535215 0)
(0.138456 -0.00559899 0)
(0.138401 -0.00586613 0)
(0.138339 -0.00614994 0)
(0.138258 -0.00645075 0)
(0.138162 -0.00677039 0)
(0.138041 -0.00710803 0)
(0.137899 -0.00746479 0)
(0.137726 -0.00784009 0)
(0.137522 -0.00823423 0)
(0.137278 -0.00864653 0)
(0.136992 -0.00907658 0)
(0.136655 -0.0095233 0)
(0.136262 -0.00998555 0)
(0.135804 -0.0104616 0)
(0.135274 -0.0109494 0)
(0.134662 -0.0114464 0)
(0.133958 -0.0119495 0)
(0.133153 -0.0124551 0)
(0.132234 -0.0129591 0)
(0.131191 -0.0134567 0)
(0.130011 -0.0139424 0)
(0.128682 -0.0144102 0)
(0.127191 -0.0148536 0)
(0.125526 -0.0152655 0)
(0.123675 -0.0156382 0)
(0.121627 -0.0159636 0)
(0.119372 -0.0162334 0)
(0.1169 -0.0164393 0)
(0.114206 -0.0165732 0)
(0.111284 -0.0166272 0)
(0.108133 -0.0165946 0)
(0.104754 -0.0164696 0)
(0.101155 -0.0162484 0)
(0.0973451 -0.015929 0)
(0.0933389 -0.0155117 0)
(0.0891561 -0.0149997 0)
(0.0848208 -0.0143986 0)
(0.0803611 -0.0137167 0)
(0.0758099 -0.0129644 0)
(0.0712036 -0.0121538 0)
(0.0665828 -0.0112981 0)
(0.0619912 -0.0104117 0)
(0.0574753 -0.00950995 0)
(0.0530835 -0.00860907 0)
(0.0488639 -0.00772587 0)
(0.0448621 -0.00687692 0)
(0.0411179 -0.00607745 0)
(0.0376629 -0.0053402 0)
(0.0345176 -0.00467434 0)
(0.0316908 -0.00408478 0)
(0.0291803 -0.00357203 0)
(0.0269739 -0.00313254 0)
(0.0250524 -0.00275963 0)
(0.0233919 -0.00244464 0)
(0.0219668 -0.00217816 0)
(0.0207511 -0.00195107 0)
(0.0197205 -0.00175523 0)
(0.018853 -0.00158391 0)
(0.0181292 -0.00143173 0)
(0.0175324 -0.00129461 0)
(0.0170484 -0.00116947 0)
(0.0166653 -0.00105402 0)
(0.016373 -0.000946475 0)
(0.0161628 -0.000845437 0)
(0.0160276 -0.000749739 0)
(0.015961 -0.000658407 0)
(0.0159576 -0.00057058 0)
(0.0160129 -0.000485494 0)
(0.0161226 -0.000402518 0)
(0.0162832 -0.000320988 0)
(0.0164914 -0.000240534 0)
(0.0167448 -0.000160465 0)
(0.0170402 -8.07755e-05 0)
(0.0173763 -5.34262e-07 0)
(0.0177502 7.96975e-05 0)
(0.0181611 0.000161387 0)
(0.0186066 0.000243231 0)
(0.019086 0.000327216 0)
(0.0195979 0.000411925 0)
(0.14839 -0.00163257 0)
(0.148336 -0.00178415 0)
(0.148237 -0.00197383 0)
(0.148144 -0.00207641 0)
(0.148055 -0.00219815 0)
(0.147951 -0.00226672 0)
(0.147858 -0.00234463 0)
(0.147746 -0.00239123 0)
(0.147642 -0.00244212 0)
(0.147523 -0.0024743 0)
(0.147407 -0.00250853 0)
(0.147278 -0.00253155 0)
(0.147149 -0.00255596 0)
(0.14701 -0.00257395 0)
(0.146869 -0.00259347 0)
(0.14672 -0.00260985 0)
(0.146567 -0.00262829 0)
(0.146406 -0.00264598 0)
(0.146242 -0.00266639 0)
(0.14607 -0.00268787 0)
(0.145894 -0.00271281 0)
(0.145711 -0.00274024 0)
(0.145522 -0.00277188 0)
(0.145327 -0.00280722 0)
(0.145127 -0.00284752 0)
(0.144919 -0.00289256 0)
(0.144705 -0.00294334 0)
(0.144484 -0.0029998 0)
(0.144256 -0.00306285 0)
(0.14402 -0.00313245 0)
(0.143775 -0.00320955 0)
(0.143522 -0.00329406 0)
(0.14326 -0.00338708 0)
(0.142987 -0.00348831 0)
(0.142704 -0.00359921 0)
(0.142408 -0.00371904 0)
(0.142101 -0.00384991 0)
(0.141778 -0.00399023 0)
(0.141441 -0.00414324 0)
(0.141086 -0.00430594 0)
(0.140713 -0.00448333 0)
(0.14032 -0.00467023 0)
(0.139905 -0.00487402 0)
(0.139465 -0.00508705 0)
(0.138997 -0.0053184 0)
(0.138501 -0.00556023 0)
(0.137971 -0.00581913 0)
(0.137403 -0.00609097 0)
(0.136797 -0.00637886 0)
(0.136145 -0.00668048 0)
(0.135445 -0.00699718 0)
(0.13469 -0.00732736 0)
(0.133877 -0.0076712 0)
(0.132998 -0.0080272 0)
(0.132047 -0.00839463 0)
(0.131017 -0.00877166 0)
(0.129902 -0.00915668 0)
(0.128692 -0.00954727 0)
(0.12738 -0.00994091 0)
(0.125956 -0.0103344 0)
(0.124412 -0.0107242 0)
(0.122737 -0.0111061 0)
(0.120922 -0.0114756 0)
(0.118957 -0.0118276 0)
(0.116831 -0.0121564 0)
(0.114535 -0.012456 0)
(0.112061 -0.01272 0)
(0.109399 -0.0129416 0)
(0.106544 -0.013114 0)
(0.103489 -0.0132301 0)
(0.100232 -0.0132835 0)
(0.0967718 -0.0132681 0)
(0.0931111 -0.0131786 0)
(0.0892553 -0.0130111 0)
(0.085214 -0.0127632 0)
(0.0810007 -0.0124337 0)
(0.0766335 -0.0120236 0)
(0.0721355 -0.0115353 0)
(0.0675347 -0.0109731 0)
(0.062865 -0.0103434 0)
(0.058166 -0.00965472 0)
(0.0534834 -0.00891863 0)
(0.0488684 -0.00814941 0)
(0.0443765 -0.00736406 0)
(0.0400642 -0.00658166 0)
(0.0359856 -0.00582231 0)
(0.0321876 -0.00510563 0)
(0.0287056 -0.00444884 0)
(0.0255606 -0.00386467 0)
(0.0227585 -0.0033598 0)
(0.0202905 -0.00293423 0)
(0.0181359 -0.00258203 0)
(0.0162657 -0.00229304 0)
(0.0146471 -0.00205529 0)
(0.0132475 -0.00185712 0)
(0.0120369 -0.0016887 0)
(0.0109891 -0.00154267 0)
(0.0100818 -0.00141408 0)
(0.00929622 -0.00129986 0)
(0.0086168 -0.00119822 0)
(0.00803052 -0.00110804 0)
(0.00752676 -0.00102843 0)
(0.00709681 -0.000958376 0)
(0.00673358 -0.000896744 0)
(0.00643118 -0.000842197 0)
(0.00618466 -0.000793347 0)
(0.00598975 -0.000748816 0)
(0.00584282 -0.000707358 0)
(0.00574057 -0.000667873 0)
(0.00568026 -0.000629466 0)
(0.00565931 -0.000591403 0)
(0.00567572 -0.000553113 0)
(0.00572741 -0.000514173 0)
(0.00581306 -0.000474217 0)
(0.00593093 -0.000433053 0)
(0.00608029 -0.000390398 0)
(0.00625961 -0.000346241 0)
(0.00646865 -0.000300284 0)
(0.00670606 -0.000252676 0)
(0.00697185 -0.00020304 0)
(0.00726512 -0.000151658 0)
(0.00758558 -9.80538e-05 0)
(0.00793331 -4.2599e-05 0)
(0.147826 -0.00146269 0)
(0.147673 -0.00159445 0)
(0.147442 -0.00173654 0)
(0.147226 -0.00183046 0)
(0.146977 -0.00193676 0)
(0.146725 -0.00200467 0)
(0.14646 -0.00208071 0)
(0.146186 -0.00212949 0)
(0.145904 -0.00218235 0)
(0.145612 -0.00221669 0)
(0.145313 -0.00225282 0)
(0.145005 -0.00227682 0)
(0.144689 -0.00230178 0)
(0.144365 -0.00231925 0)
(0.144034 -0.00233772 0)
(0.143694 -0.00235211 0)
(0.143347 -0.002368 0)
(0.142993 -0.00238234 0)
(0.142631 -0.00239887 0)
(0.14226 -0.00241578 0)
(0.141882 -0.00243562 0)
(0.141496 -0.00245735 0)
(0.141101 -0.00248273 0)
(0.140698 -0.00251123 0)
(0.140285 -0.00254409 0)
(0.139862 -0.0025811 0)
(0.139428 -0.00262319 0)
(0.138984 -0.00267032 0)
(0.138528 -0.00272323 0)
(0.138058 -0.00278203 0)
(0.137575 -0.00284731 0)
(0.137078 -0.0029193 0)
(0.136564 -0.00299847 0)
(0.136032 -0.0030852 0)
(0.135482 -0.00317976 0)
(0.134912 -0.00328276 0)
(0.13432 -0.00339419 0)
(0.133703 -0.00351501 0)
(0.133061 -0.0036447 0)
(0.13239 -0.00378478 0)
(0.131688 -0.00393405 0)
(0.130953 -0.0040946 0)
(0.130183 -0.00426465 0)
(0.129372 -0.00444636 0)
(0.12852 -0.00463832 0)
(0.12762 -0.00484119 0)
(0.126671 -0.00505559 0)
(0.125666 -0.00527971 0)
(0.124604 -0.00551499 0)
(0.123476 -0.00575933 0)
(0.122281 -0.00601349 0)
(0.12101 -0.00627549 0)
(0.11966 -0.00654515 0)
(0.118222 -0.00682042 0)
(0.116692 -0.00710022 0)
(0.115062 -0.00738216 0)
(0.113325 -0.00766429 0)
(0.111473 -0.00794368 0)
(0.109501 -0.00821748 0)
(0.107399 -0.00848211 0)
(0.105161 -0.00873387 0)
(0.10278 -0.00896849 0)
(0.100248 -0.00918156 0)
(0.0975608 -0.00936827 0)
(0.0947116 -0.00952374 0)
(0.0916968 -0.00964287 0)
(0.0885136 -0.00972067 0)
(0.0851613 -0.00975213 0)
(0.0816413 -0.00973254 0)
(0.0779575 -0.00965747 0)
(0.074117 -0.00952301 0)
(0.0701305 -0.00932598 0)
(0.0660128 -0.00906419 0)
(0.0617833 -0.00873684 0)
(0.0574672 -0.00834491 0)
(0.0530961 -0.00789161 0)
(0.0487081 -0.00738277 0)
(0.0443478 -0.00682719 0)
(0.0400657 -0.0062368 0)
(0.0359153 -0.00562673 0)
(0.0319505 -0.0050149 0)
(0.0282213 -0.00442081 0)
(0.0247697 -0.00386355 0)
(0.0216257 -0.00335925 0)
(0.0188042 -0.00291866 0)
(0.0163036 -0.00254563 0)
(0.0141071 -0.002237 0)
(0.0121881 -0.00198421 0)
(0.010516 -0.00177574 0)
(0.00906033 -0.00159959 0)
(0.00779222 -0.00144534 0)
(0.0066848 -0.00130575 0)
(0.00571334 -0.00117766 0)
(0.00485626 -0.00106156 0)
(0.004096 -0.000959914 0)
(0.00341923 -0.000875023 0)
(0.00281606 -0.00080751 0)
(0.00227892 -0.000756006 0)
(0.00180148 -0.000717775 0)
(0.00137797 -0.000689656 0)
(0.00100295 -0.000668775 0)
(0.000671312 -0.000652876 0)
(0.000378402 -0.000640311 0)
(0.000120148 -0.000629915 0)
(-0.000106929 -0.000620832 0)
(-0.000305627 -0.000612421 0)
(-0.000478229 -0.000604167 0)
(-0.000626425 -0.000595661 0)
(-0.000751602 -0.000586573 0)
(-0.000854665 -0.000576628 0)
(-0.000936438 -0.00056563 0)
(-0.000997317 -0.00055337 0)
(-0.00103782 -0.000539768 0)
(-0.00105799 -0.000524616 0)
(-0.0010582 -0.000507964 0)
(-0.00103826 -0.00048953 0)
(-0.000998443 -0.000469539 0)
(-0.000938402 -0.000447556 0)
(-0.000858308 -0.000424032 0)
(-0.000757764 -0.000398337 0)
(-0.000636779 -0.000371101 0)
(-0.000495011 -0.00034164 0)
(-0.000332201 -0.000310441 0)
(0.135239 -0.0012533 0)
(0.134992 -0.00137656 0)
(0.134642 -0.00150271 0)
(0.134322 -0.00159054 0)
(0.133939 -0.00168122 0)
(0.133567 -0.0017376 0)
(0.133155 -0.00179616 0)
(0.132742 -0.0018293 0)
(0.132303 -0.0018639 0)
(0.131859 -0.00188131 0)
(0.131396 -0.00189984 0)
(0.130926 -0.00190752 0)
(0.130441 -0.00191636 0)
(0.129949 -0.00191892 0)
(0.129445 -0.00192298 0)
(0.128934 -0.00192398 0)
(0.128412 -0.00192695 0)
(0.127884 -0.00192914 0)
(0.127345 -0.00193382 0)
(0.126798 -0.00193935 0)
(0.126241 -0.00194788 0)
(0.125676 -0.00195845 0)
(0.1251 -0.00197252 0)
(0.124514 -0.00198952 0)
(0.123917 -0.0020105 0)
(0.123308 -0.00203513 0)
(0.122687 -0.0020642 0)
(0.122051 -0.00209752 0)
(0.121401 -0.00213574 0)
(0.120734 -0.00217874 0)
(0.12005 -0.00222712 0)
(0.119347 -0.00228073 0)
(0.118624 -0.00234023 0)
(0.117877 -0.00240535 0)
(0.117107 -0.00247693 0)
(0.11631 -0.0025544 0)
(0.115484 -0.00263893 0)
(0.114627 -0.00272948 0)
(0.113737 -0.00282773 0)
(0.112811 -0.00293195 0)
(0.111845 -0.00304448 0)
(0.110836 -0.00316272 0)
(0.109782 -0.00328968 0)
(0.108679 -0.00342205 0)
(0.107522 -0.00356294 0)
(0.106309 -0.00370914 0)
(0.105034 -0.00386284 0)
(0.103694 -0.00402145 0)
(0.102284 -0.00418627 0)
(0.100798 -0.00435497 0)
(0.0992333 -0.00452799 0)
(0.097583 -0.00470313 0)
(0.0958428 -0.00487998 0)
(0.094007 -0.00505631 0)
(0.0920709 -0.00523091 0)
(0.0900288 -0.00540133 0)
(0.0878763 -0.00556561 0)
(0.0856082 -0.00572092 0)
(0.0832206 -0.00586465 0)
(0.0807093 -0.00599351 0)
(0.0780717 -0.00610432 0)
(0.0753054 -0.00619342 0)
(0.0724096 -0.00625722 0)
(0.0693847 -0.00629193 0)
(0.0662332 -0.00629389 0)
(0.0629597 -0.00625953 0)
(0.0595716 -0.00618566 0)
(0.0560796 -0.00606952 0)
(0.0524982 -0.00590912 0)
(0.0488464 -0.00570339 0)
(0.0451478 -0.0054526 0)
(0.0414312 -0.00515875 0)
(0.0377302 -0.00482606 0)
(0.0340826 -0.00446128 0)
(0.0305293 -0.00407389 0)
(0.0271123 -0.00367575 0)
(0.023872 -0.00328025 0)
(0.0208444 -0.00290107 0)
(0.0180567 -0.00255045 0)
(0.0155242 -0.00223748 0)
(0.0132489 -0.00196692 0)
(0.0112221 -0.00173878 0)
(0.009429 -0.00154864 0)
(0.00785195 -0.00138799 0)
(0.0064709 -0.00124555 0)
(0.00526302 -0.00111069 0)
(0.00420334 -0.000978065 0)
(0.00326761 -0.000850029 0)
(0.00243539 -0.000734202 0)
(0.00169164 -0.000637906 0)
(0.00102612 -0.000563852 0)
(0.0004316 -0.000509765 0)
(-9.80703e-05 -0.000470947 0)
(-0.000569215 -0.000443049 0)
(-0.000988847 -0.000423241 0)
(-0.00136447 -0.000409902 0)
(-0.0017035 -0.000401826 0)
(-0.00201261 -0.000397793 0)
(-0.00229732 -0.000396597 0)
(-0.0025619 -0.000397274 0)
(-0.00280951 -0.000399225 0)
(-0.00304245 -0.000402183 0)
(-0.00326245 -0.000406055 0)
(-0.00347074 -0.000410783 0)
(-0.00366831 -0.000416236 0)
(-0.00385583 -0.0004222 0)
(-0.00403383 -0.000428383 0)
(-0.00420257 -0.000434466 0)
(-0.00436228 -0.00044013 0)
(-0.00451292 -0.000445087 0)
(-0.0046545 -0.000449107 0)
(-0.00478672 -0.000451984 0)
(-0.00490951 -0.000453605 0)
(-0.00502236 -0.000453825 0)
(-0.00512512 -0.000452643 0)
(-0.00521715 -0.000449927 0)
(-0.00529826 -0.000445773 0)
(-0.00536774 -0.000440024 0)
(-0.00542531 -0.000432856 0)
(-0.00547029 -0.000424076 0)
(-0.00550222 -0.000413888 0)
(-0.00552061 -0.000402099 0)
(-0.00552471 -0.00038886 0)
(0.110742 -0.000922229 0)
(0.110407 -0.00100872 0)
(0.109954 -0.00108397 0)
(0.109533 -0.00114119 0)
(0.109029 -0.00119545 0)
(0.108541 -0.00123036 0)
(0.107996 -0.00126547 0)
(0.107459 -0.00128481 0)
(0.106882 -0.00130495 0)
(0.106308 -0.00131371 0)
(0.105706 -0.00132321 0)
(0.105104 -0.00132514 0)
(0.104482 -0.00132778 0)
(0.103858 -0.00132584 0)
(0.103219 -0.00132479 0)
(0.102578 -0.0013214 0)
(0.101925 -0.00131923 0)
(0.101268 -0.00131636 0)
(0.100602 -0.00131511 0)
(0.0999305 -0.00131437 0)
(0.0992502 -0.00131566 0)
(0.0985636 -0.00131833 0)
(0.0978678 -0.00132342 0)
(0.0971639 -0.00133056 0)
(0.0964496 -0.00134045 0)
(0.0957253 -0.00135291 0)
(0.0949888 -0.00136843 0)
(0.0942398 -0.00138694 0)
(0.0934761 -0.00140877 0)
(0.0926969 -0.00143394 0)
(0.0919002 -0.00146267 0)
(0.0910845 -0.00149503 0)
(0.0902477 -0.00153115 0)
(0.0893881 -0.00157116 0)
(0.0885032 -0.00161505 0)
(0.0875911 -0.00166306 0)
(0.0866491 -0.00171498 0)
(0.0856749 -0.00177121 0)
(0.0846655 -0.00183126 0)
(0.0836184 -0.00189569 0)
(0.0825304 -0.00196372 0)
(0.0813987 -0.002036 0)
(0.0802198 -0.00211162 0)
(0.0789905 -0.0021909 0)
(0.0777075 -0.00227331 0)
(0.0763672 -0.00235825 0)
(0.074966 -0.00244589 0)
(0.0735004 -0.0025347 0)
(0.071967 -0.00262499 0)
(0.0703619 -0.00271493 0)
(0.0686822 -0.00280447 0)
(0.0669243 -0.00289172 0)
(0.0650856 -0.0029761 0)
(0.0631631 -0.00305565 0)
(0.0611552 -0.00312924 0)
(0.0590601 -0.00319479 0)
(0.0568773 -0.00325071 0)
(0.0546068 -0.00329474 0)
(0.0522504 -0.00332497 0)
(0.0498106 -0.00333906 0)
(0.047292 -0.003335 0)
(0.0447008 -0.00331068 0)
(0.0420456 -0.00326443 0)
(0.0393372 -0.00319485 0)
(0.0365895 -0.00310132 0)
(0.0338188 -0.00298389 0)
(0.0310447 -0.00284369 0)
(0.0282893 -0.00268294 0)
(0.0255777 -0.00250508 0)
(0.0229358 -0.00231465 0)
(0.0203903 -0.00211724 0)
(0.0179656 -0.00191903 0)
(0.0156824 -0.00172641 0)
(0.0135558 -0.00154532 0)
(0.0115949 -0.00138075 0)
(0.00980359 -0.00123591 0)
(0.00818189 -0.00111126 0)
(0.00672654 -0.00100332 0)
(0.00543075 -0.000904452 0)
(0.00428341 -0.000805522 0)
(0.00326955 -0.000701046 0)
(0.00237213 -0.000593299 0)
(0.00157475 -0.000491193 0)
(0.000863773 -0.000404283 0)
(0.000229409 -0.000336934 0)
(-0.000334487 -0.00028724 0)
(-0.000831821 -0.000250492 0)
(-0.00126662 -0.000223097 0)
(-0.00164499 -0.000203597 0)
(-0.00197549 -0.000191087 0)
(-0.00226769 -0.000183645 0)
(-0.00253028 -0.000178503 0)
(-0.00276994 -0.000173444 0)
(-0.00299141 -0.000167882 0)
(-0.00319822 -0.000162769 0)
(-0.00339329 -0.000159661 0)
(-0.00357925 -0.000159742 0)
(-0.00375838 -0.000163366 0)
(-0.00393252 -0.00017014 0)
(-0.00410308 -0.000179279 0)
(-0.00427113 -0.000189934 0)
(-0.00443749 -0.000201397 0)
(-0.00460286 -0.000213148 0)
(-0.00476779 -0.000224835 0)
(-0.00493274 -0.000236221 0)
(-0.00509797 -0.000247145 0)
(-0.00526368 -0.000257497 0)
(-0.00542981 -0.00026719 0)
(-0.00559626 -0.000276173 0)
(-0.00576271 -0.000284392 0)
(-0.00592886 -0.000291841 0)
(-0.00609418 -0.000298469 0)
(-0.00625829 -0.000304314 0)
(-0.00642055 -0.0003093 0)
(-0.00658052 -0.000313518 0)
(-0.00673752 -0.000316841 0)
(-0.00689107 -0.000319433 0)
(-0.0070405 -0.000321093 0)
(-0.00718529 -0.000322062 0)
(-0.00732481 -0.000322077 0)
(-0.00745848 -0.000321411 0)
(-0.00758574 -0.000319818 0)
(-0.0077059 -0.000317478 0)
(0.074405 -0.000523512 0)
(0.0740206 -0.000579179 0)
(0.0735011 -0.00062059 0)
(0.0730278 -0.000655329 0)
(0.0724564 -0.000681122 0)
(0.0719158 -0.000696759 0)
(0.0713077 -0.00070713 0)
(0.0707203 -0.000708567 0)
(0.0700884 -0.000707202 0)
(0.0694709 -0.000699602 0)
(0.0688253 -0.000690868 0)
(0.0681905 -0.000678511 0)
(0.0675387 -0.000666165 0)
(0.0668954 -0.000652223 0)
(0.0662423 -0.000639073 0)
(0.065596 -0.000625736 0)
(0.0649443 -0.000613709 0)
(0.0642976 -0.000602405 0)
(0.0636478 -0.000592733 0)
(0.0630012 -0.000584339 0)
(0.0623521 -0.00057776 0)
(0.0617042 -0.000572776 0)
(0.0610532 -0.000569699 0)
(0.0604009 -0.00056838 0)
(0.0597441 -0.000569002 0)
(0.0590834 -0.000571452 0)
(0.0584158 -0.000575844 0)
(0.0577413 -0.000582076 0)
(0.0570573 -0.000590235 0)
(0.056363 -0.000600203 0)
(0.055656 -0.000612078 0)
(0.0549351 -0.000625689 0)
(0.0541979 -0.000641184 0)
(0.0534429 -0.000658291 0)
(0.0526678 -0.000677255 0)
(0.0518708 -0.000697634 0)
(0.0510495 -0.000719834 0)
(0.0502022 -0.000743152 0)
(0.0493261 -0.000768227 0)
(0.0484197 -0.000794004 0)
(0.0474801 -0.000821399 0)
(0.0465059 -0.000848975 0)
(0.0454942 -0.000877851 0)
(0.0444437 -0.000906351 0)
(0.0433517 -0.000935518 0)
(0.0422171 -0.000963758 0)
(0.0410377 -0.000991715 0)
(0.0398126 -0.00101801 0)
(0.0385405 -0.00104297 0)
(0.0372208 -0.00106533 0)
(0.0358535 -0.00108511 0)
(0.0344387 -0.00110116 0)
(0.0329778 -0.00111328 0)
(0.0314724 -0.00112044 0)
(0.0299256 -0.00112231 0)
(0.0283406 -0.00111802 0)
(0.0267229 -0.00110725 0)
(0.025078 -0.00108941 0)
(0.0234137 -0.00106432 0)
(0.021738 -0.00103181 0)
(0.0200609 -0.000992096 0)
(0.0183927 -0.000945586 0)
(0.0167447 -0.00089316 0)
(0.0151282 -0.000836036 0)
(0.0135547 -0.000775955 0)
(0.012035 -0.000715032 0)
(0.0105791 -0.00065573 0)
(0.00919584 -0.000600492 0)
(0.0078927 -0.000551319 0)
(0.00667554 -0.000509019 0)
(0.00554861 -0.00047253 0)
(0.00451425 -0.000438601 0)
(0.00357285 -0.000402535 0)
(0.00272257 -0.000360092 0)
(0.00195942 -0.000309832 0)
(0.00127724 -0.000254339 0)
(0.000668354 -0.000199282 0)
(0.000124559 -0.000150617 0)
(-0.000360958 -0.000111797 0)
(-0.000792045 -8.29563e-05 0)
(-0.00116956 -6.24898e-05 0)
(-0.00149381 -4.91652e-05 0)
(-0.00176768 -4.25846e-05 0)
(-0.00199803 -4.17494e-05 0)
(-0.00219394 -4.37336e-05 0)
(-0.0023637 -4.43782e-05 0)
(-0.00251291 -4.06608e-05 0)
(-0.00264498 -3.25398e-05 0)
(-0.0027627 -2.26527e-05 0)
(-0.00286924 -1.43296e-05 0)
(-0.00296785 -9.69559e-06 0)
(-0.00306099 -9.09753e-06 0)
(-0.00315003 -1.17162e-05 0)
(-0.00323563 -1.64662e-05 0)
(-0.00331844 -2.25127e-05 0)
(-0.00339958 -2.93242e-05 0)
(-0.00348057 -3.65231e-05 0)
(-0.00356309 -4.37796e-05 0)
(-0.00364859 -5.08103e-05 0)
(-0.00373813 -5.74328e-05 0)
(-0.00383236 -6.35944e-05 0)
(-0.00393159 -6.93578e-05 0)