/*--------------------------------*- C++ -*----------------------------------*\
| =========                 |                                                 |
| \\      /  F ield         | OpenFOAM: The Open Source CFD Toolbox           |
|  \\    /   O peration     | Version:  4.1                                   |
|   \\  /    A nd           | Web:      www.OpenFOAM.org                      |
|    \\/     M anipulation  |                                                 |
\*---------------------------------------------------------------------------*/
FoamFile
{
    version     2.0;
    format      ascii;
    class       volScalarField;
    location    "162";
    object      p;
}
// * * * * * * * * * * * * * * * * * * * * * * * * * * * * * * * * * * * * * //

dimensions      [1 -1 -2 0 0 0 0];

internalField   nonuniform List<scalar> 
3264
(
0.712644
0.712642
0.712641
0.712639
0.712637
0.712635
0.712632
0.71263
0.712627
0.712625
0.712623
0.712621
0.71262
0.71262
0.712622
0.712626
0.712632
0.712642
0.712655
0.712673
0.712695
0.712724
0.712758
0.7128
0.712848
0.712903
0.712966
0.713036
0.713113
0.713196
0.713286
0.713381
0.713481
0.713584
0.71369
0.713798
0.713905
0.714011
0.714115
0.714215
0.714311
0.714401
0.714484
0.714559
0.714627
0.714686
0.714736
0.714779
0.714813
0.71484
0.71486
0.714874
0.714882
0.714887
0.714887
0.714885
0.714881
0.714876
0.71487
0.714864
0.714857
0.714851
0.714844
0.714839
0.714833
0.714828
0.714824
0.714822
0.71482
0.71482
0.714822
0.714826
0.714833
0.714842
0.714856
0.714872
0.714892
0.714916
0.714943
0.714974
0.715007
0.715043
0.715081
0.715119
0.715158
0.715196
0.715233
0.715267
0.715299
0.715327
0.715351
0.715371
0.715386
0.715397
0.715403
0.715405
0.715403
0.715399
0.715392
0.715382
0.715372
0.71536
0.715347
0.715334
0.715321
0.715308
0.715294
0.715282
0.715269
0.715257
0.715245
0.715233
0.715222
0.71521
0.715199
0.715189
0.715178
0.715167
0.715156
0.715146
0.715135
0.715125
0.715114
0.715103
0.715093
0.715082
0.715072
0.715061
0.71505
0.71504
0.715029
0.715018
0.715008
0.714997
0.714986
0.714976
0.714965
0.714954
0.714944
0.714933
0.714922
0.714912
0.714901
0.71489
0.714879
0.714869
0.714858
0.714847
0.714837
0.714826
0.714815
0.714805
0.714794
0.714783
0.714773
0.714762
0.714751
0.71474
0.71473
0.714719
0.714708
0.714698
0.714687
0.714676
0.714666
0.714655
0.714644
0.714634
0.714623
0.714612
0.714601
0.714591
0.71458
0.714569
0.714559
0.714548
0.714537
0.714527
0.714516
0.714505
0.714495
0.714484
0.714473
0.714462
0.714452
0.714441
0.71443
0.71442
0.714409
0.714398
0.714388
0.714377
0.714366
0.714356
0.714345
0.714334
0.714323
0.714313
0.714302
0.714291
0.712645
0.712644
0.712643
0.712641
0.71264
0.712638
0.712636
0.712634
0.712632
0.71263
0.712628
0.712626
0.712625
0.712625
0.712627
0.71263
0.712635
0.712644
0.712656
0.712673
0.712695
0.712722
0.712755
0.712795
0.712842
0.712896
0.712958
0.713027
0.713103
0.713186
0.713275
0.713369
0.713469
0.713572
0.713678
0.713785
0.713892
0.713999
0.714103
0.714203
0.714299
0.714389
0.714472
0.714548
0.714617
0.714676
0.714728
0.714771
0.714806
0.714834
0.714855
0.71487
0.714879
0.714885
0.714887
0.714886
0.714883
0.714878
0.714873
0.714867
0.71486
0.714854
0.714848
0.714842
0.714836
0.714832
0.714827
0.714824
0.714822
0.714821
0.714822
0.714826
0.714832
0.714841
0.714853
0.714869
0.714889
0.714912
0.714939
0.714969
0.715003
0.715038
0.715076
0.715115
0.715154
0.715192
0.715229
0.715265
0.715297
0.715326
0.71535
0.715371
0.715386
0.715397
0.715403
0.715406
0.715404
0.7154
0.715393
0.715383
0.715372
0.71536
0.715347
0.715334
0.715321
0.715308
0.715294
0.715282
0.715269
0.715257
0.715245
0.715233
0.715222
0.71521
0.715199
0.715188
0.715178
0.715167
0.715156
0.715146
0.715135
0.715125
0.715114
0.715103
0.715093
0.715082
0.715072
0.715061
0.71505
0.71504
0.715029
0.715018
0.715008
0.714997
0.714986
0.714976
0.714965
0.714954
0.714944
0.714933
0.714922
0.714912
0.714901
0.71489
0.714879
0.714869
0.714858
0.714847
0.714837
0.714826
0.714815
0.714805
0.714794
0.714783
0.714773
0.714762
0.714751
0.71474
0.71473
0.714719
0.714708
0.714698
0.714687
0.714676
0.714666
0.714655
0.714644
0.714634
0.714623
0.714612
0.714601
0.714591
0.71458
0.714569
0.714559
0.714548
0.714537
0.714527
0.714516
0.714505
0.714495
0.714484
0.714473
0.714462
0.714452
0.714441
0.71443
0.71442
0.714409
0.714398
0.714388
0.714377
0.714366
0.714356
0.714345
0.714334
0.714323
0.714313
0.714302
0.714291
0.712648
0.712646
0.712644
0.712643
0.712641
0.712639
0.712637
0.712635
0.712632
0.71263
0.712627
0.712625
0.712624
0.712623
0.712624
0.712626
0.712631
0.712639
0.71265
0.712666
0.712686
0.712712
0.712745
0.712784
0.71283
0.712884
0.712945
0.713014
0.713089
0.713172
0.713261
0.713356
0.713455
0.713558
0.713663
0.71377
0.713878
0.713984
0.714088
0.714188
0.714284
0.714374
0.714457
0.714533
0.714601
0.714661
0.714712
0.714755
0.714791
0.714819
0.71484
0.714855
0.714865
0.714871
0.714874
0.714874
0.714873
0.71487
0.714866
0.714862
0.714857
0.714852
0.714847
0.714841
0.714836
0.714831
0.714827
0.714823
0.714821
0.71482
0.714821
0.714825
0.71483
0.714839
0.714851
0.714866
0.714886
0.714909
0.714935
0.714966
0.714999
0.715035
0.715073
0.715112
0.715151
0.71519
0.715228
0.715264
0.715297
0.715326
0.715351
0.715372
0.715387
0.715398
0.715405
0.715407
0.715406
0.715401
0.715393
0.715384
0.715373
0.71536
0.715347
0.715334
0.715321
0.715307
0.715294
0.715281
0.715269
0.715256
0.715245
0.715233
0.715221
0.71521
0.715199
0.715188
0.715178
0.715167
0.715156
0.715146
0.715135
0.715125
0.715114
0.715103
0.715093
0.715082
0.715072
0.715061
0.71505
0.71504
0.715029
0.715018
0.715008
0.714997
0.714986
0.714976
0.714965
0.714954
0.714944
0.714933
0.714922
0.714912
0.714901
0.71489
0.714879
0.714869
0.714858
0.714847
0.714837
0.714826
0.714815
0.714805
0.714794
0.714783
0.714773
0.714762
0.714751
0.71474
0.71473
0.714719
0.714708
0.714698
0.714687
0.714676
0.714666
0.714655
0.714644
0.714634
0.714623
0.714612
0.714601
0.714591
0.71458
0.714569
0.714559
0.714548
0.714537
0.714527
0.714516
0.714505
0.714495
0.714484
0.714473
0.714462
0.714452
0.714441
0.71443
0.71442
0.714409
0.714398
0.714388
0.714377
0.714366
0.714356
0.714345
0.714334
0.714323
0.714313
0.714302
0.714291
0.712644
0.712643
0.712641
0.712641
0.712639
0.712638
0.712636
0.712634
0.712631
0.712629
0.712626
0.712624
0.712622
0.71262
0.71262
0.712622
0.712625
0.712632
0.712642
0.712656
0.712676
0.712701
0.712733
0.712771
0.712817
0.71287
0.71293
0.712998
0.713073
0.713155
0.713244
0.713338
0.713436
0.713538
0.713643
0.713749
0.713855
0.71396
0.714063
0.714161
0.714255
0.714343
0.714425
0.714499
0.714565
0.714623
0.714672
0.714713
0.714747
0.714774
0.714794
0.714809
0.714819
0.714826
0.71483
0.714833
0.714834
0.714834
0.714834
0.714834
0.714834
0.714833
0.714833
0.714832
0.71483
0.714829
0.714826
0.714824
0.714822
0.714821
0.714822
0.714825
0.71483
0.714839
0.714851
0.714866
0.714885
0.714908
0.714934
0.714964
0.714997
0.715033
0.715071
0.71511
0.715149
0.715188
0.715226
0.715262
0.715295
0.715325
0.71535
0.715371
0.715387
0.715398
0.715404
0.715406
0.715405
0.7154
0.715392
0.715383
0.715372
0.715359
0.715347
0.715333
0.71532
0.715307
0.715294
0.715281
0.715268
0.715256
0.715244
0.715233
0.715221
0.71521
0.715199
0.715188
0.715178
0.715167
0.715156
0.715146
0.715135
0.715125
0.715114
0.715104
0.715093
0.715082
0.715072
0.715061
0.71505
0.71504
0.715029
0.715018
0.715008
0.714997
0.714986
0.714976
0.714965
0.714954
0.714944
0.714933
0.714922
0.714912
0.714901
0.71489
0.714879
0.714869
0.714858
0.714847
0.714837
0.714826
0.714815
0.714805
0.714794
0.714783
0.714773
0.714762
0.714751
0.71474
0.71473
0.714719
0.714708
0.714698
0.714687
0.714676
0.714666
0.714655
0.714644
0.714634
0.714623
0.714612
0.714601
0.714591
0.71458
0.714569
0.714559
0.714548
0.714537
0.714527
0.714516
0.714505
0.714495
0.714484
0.714473
0.714462
0.714452
0.714441
0.71443
0.71442
0.714409
0.714398
0.714388
0.714377
0.714366
0.714356
0.714345
0.714334
0.714323
0.714313
0.714302
0.714291
0.712642
0.712641
0.712639
0.712638
0.712636
0.712635
0.712633
0.712631
0.712628
0.712626
0.712623
0.712621
0.712618
0.712616
0.712616
0.712617
0.71262
0.712626
0.712635
0.712649
0.712668
0.712693
0.712724
0.712762
0.712807
0.71286
0.71292
0.712987
0.713062
0.713143
0.713231
0.713323
0.71342
0.713521
0.713624
0.713727
0.713831
0.713933
0.714032
0.714127
0.714217
0.7143
0.714377
0.714446
0.714507
0.71456
0.714604
0.714641
0.71467
0.714693
0.71471
0.714722
0.714731
0.714738
0.714742
0.714747
0.714751
0.714755
0.714761
0.714767
0.714773
0.714781
0.714788
0.714796
0.714803
0.714809
0.714814
0.714818
0.714822
0.714826
0.714829
0.714834
0.71484
0.714849
0.71486
0.714875
0.714893
0.714916
0.714941
0.714971
0.715003
0.715038
0.715075
0.715113
0.715151
0.71519
0.715227
0.715263
0.715295
0.715324
0.715349
0.715369
0.715384
0.715395
0.715401
0.715403
0.715401
0.715396
0.715389
0.715379
0.715369
0.715357
0.715344
0.715331
0.715318
0.715305
0.715293
0.71528
0.715268
0.715256
0.715244
0.715233
0.715221
0.71521
0.715199
0.715189
0.715178
0.715167
0.715157
0.715146
0.715135
0.715125
0.715114
0.715104
0.715093
0.715082
0.715072
0.715061
0.71505
0.71504
0.715029
0.715018
0.715008
0.714997
0.714986
0.714976
0.714965
0.714954
0.714944
0.714933
0.714922
0.714912
0.714901
0.71489
0.714879
0.714869
0.714858
0.714847
0.714837
0.714826
0.714815
0.714805
0.714794
0.714783
0.714773
0.714762
0.714751
0.71474
0.71473
0.714719
0.714708
0.714698
0.714687
0.714676
0.714666
0.714655
0.714644
0.714634
0.714623
0.714612
0.714601
0.714591
0.71458
0.714569
0.714559
0.714548
0.714537
0.714527
0.714516
0.714505
0.714495
0.714484
0.714473
0.714462
0.714452
0.714441
0.71443
0.71442
0.714409
0.714398
0.714388
0.714377
0.714366
0.714356
0.714345
0.714334
0.714323
0.714313
0.714302
0.714291
0.71261
0.712625
0.712625
0.712631
0.712631
0.712632
0.712631
0.71263
0.712628
0.712626
0.712623
0.712621
0.712618
0.712616
0.712615
0.712615
0.712618
0.712624
0.712633
0.712647
0.712666
0.71269
0.712721
0.712759
0.712804
0.712857
0.712916
0.712983
0.713057
0.713138
0.713224
0.713315
0.713409
0.713507
0.713607
0.713707
0.713806
0.713903
0.713996
0.714085
0.714168
0.714244
0.714313
0.714374
0.714427
0.714471
0.714508
0.714536
0.714559
0.714575
0.714587
0.714595
0.714601
0.714606
0.714611
0.714618
0.714625
0.714635
0.714646
0.71466
0.714676
0.714693
0.714712
0.71473
0.714749
0.714767
0.714784
0.7148
0.714814
0.714826
0.714838
0.714848
0.714859
0.714871
0.714885
0.7149
0.714918
0.71494
0.714964
0.714992
0.715022
0.715055
0.71509
0.715126
0.715162
0.715199
0.715234
0.715267
0.715298
0.715325
0.715349
0.715367
0.715382
0.715391
0.715396
0.715398
0.715395
0.71539
0.715383
0.715374
0.715364
0.715352
0.71534
0.715328
0.715316
0.715303
0.715291
0.715279
0.715267
0.715255
0.715244
0.715233
0.715221
0.71521
0.7152
0.715189
0.715178
0.715167
0.715157
0.715146
0.715136
0.715125
0.715114
0.715104
0.715093
0.715082
0.715072
0.715061
0.71505
0.71504
0.715029
0.715018
0.715008
0.714997
0.714986
0.714976
0.714965
0.714954
0.714944
0.714933
0.714922
0.714912
0.714901
0.71489
0.714879
0.714869
0.714858
0.714847
0.714837
0.714826
0.714815
0.714805
0.714794
0.714783
0.714773
0.714762
0.714751
0.71474
0.71473
0.714719
0.714708
0.714698
0.714687
0.714676
0.714666
0.714655
0.714644
0.714634
0.714623
0.714612
0.714601
0.714591
0.71458
0.714569
0.714559
0.714548
0.714537
0.714527
0.714516
0.714505
0.714495
0.714484
0.714473
0.714462
0.714452
0.714441
0.71443
0.71442
0.714409
0.714398
0.714388
0.714377
0.714366
0.714356
0.714345
0.714334
0.714323
0.714313
0.714302
0.714291
0.71261
0.712627
0.712626
0.71263
0.71263
0.712631
0.712631
0.71263
0.712629
0.712627
0.712625
0.712622
0.71262
0.712618
0.712617
0.712618
0.712621
0.712627
0.712637
0.712652
0.712671
0.712697
0.712729
0.712767
0.712813
0.712866
0.712926
0.712992
0.713066
0.713145
0.71323
0.713318
0.71341
0.713504
0.713599
0.713694
0.713787
0.713876
0.713962
0.714042
0.714115
0.714181
0.714239
0.714289
0.714331
0.714364
0.714389
0.714408
0.714421
0.71443
0.714436
0.71444
0.714443
0.714448
0.714454
0.714463
0.714475
0.71449
0.714509
0.714531
0.714557
0.714584
0.714614
0.714645
0.714677
0.714708
0.714739
0.714768
0.714796
0.714821
0.714844
0.714865
0.714885
0.714904
0.714922
0.714941
0.714961
0.714983
0.715007
0.715033
0.715061
0.71509
0.715122
0.715154
0.715187
0.715219
0.715251
0.71528
0.715308
0.715332
0.715352
0.715368
0.71538
0.715387
0.715391
0.715391
0.715388
0.715383
0.715376
0.715367
0.715357
0.715347
0.715335
0.715324
0.715312
0.715301
0.715289
0.715278
0.715266
0.715255
0.715244
0.715233
0.715222
0.715211
0.7152
0.715189
0.715178
0.715168
0.715157
0.715146
0.715136
0.715125
0.715114
0.715104
0.715093
0.715082
0.715072
0.715061
0.71505
0.71504
0.715029
0.715018
0.715008
0.714997
0.714986
0.714976
0.714965
0.714954
0.714944
0.714933
0.714922
0.714912
0.714901
0.71489
0.714879
0.714869
0.714858
0.714847
0.714837
0.714826
0.714815
0.714805
0.714794
0.714783
0.714773
0.714762
0.714751
0.71474
0.71473
0.714719
0.714708
0.714698
0.714687
0.714676
0.714666
0.714655
0.714644
0.714634
0.714623
0.714612
0.714601
0.714591
0.71458
0.714569
0.714559
0.714548
0.714537
0.714527
0.714516
0.714505
0.714495
0.714484
0.714473
0.714462
0.714452
0.714441
0.71443
0.71442
0.714409
0.714398
0.714388
0.714377
0.714366
0.714356
0.714345
0.714334
0.714323
0.714313
0.714302
0.714291
0.712453
0.712594
0.712612
0.712634
0.712637
0.712639
0.712639
0.712638
0.712636
0.712634
0.712631
0.712629
0.712627
0.712626
0.712626
0.712628
0.712632
0.71264
0.712652
0.712668
0.71269
0.712718
0.712751
0.712792
0.712839
0.712893
0.712954
0.713022
0.713095
0.713173
0.713256
0.713342
0.71343
0.713519
0.713608
0.713695
0.713779
0.71386
0.713934
0.714003
0.714064
0.714117
0.714162
0.714198
0.714226
0.714247
0.714261
0.71427
0.714275
0.714277
0.714278
0.714279
0.714282
0.714288
0.714297
0.71431
0.714327
0.714349
0.714375
0.714406
0.714441
0.714478
0.714519
0.714561
0.714605
0.714649
0.714692
0.714735
0.714775
0.714814
0.714849
0.714883
0.714913
0.714941
0.714968
0.714993
0.715017
0.715041
0.715066
0.715091
0.715116
0.715143
0.71517
0.715198
0.715225
0.715253
0.715279
0.715303
0.715325
0.715344
0.715359
0.715371
0.71538
0.715385
0.715386
0.715385
0.715381
0.715375
0.715368
0.71536
0.71535
0.71534
0.71533
0.71532
0.715309
0.715298
0.715287
0.715276
0.715265
0.715254
0.715243
0.715232
0.715222
0.715211
0.7152
0.715189
0.715179
0.715168
0.715157
0.715147
0.715136
0.715125
0.715115
0.715104
0.715093
0.715083
0.715072
0.715061
0.715051
0.71504
0.715029
0.715018
0.715008
0.714997
0.714986
0.714976
0.714965
0.714954
0.714944
0.714933
0.714922
0.714912
0.714901
0.71489
0.714879
0.714869
0.714858
0.714847
0.714837
0.714826
0.714815
0.714805
0.714794
0.714783
0.714773
0.714762
0.714751
0.71474
0.71473
0.714719
0.714708
0.714698
0.714687
0.714676
0.714666
0.714655
0.714644
0.714634
0.714623
0.714612
0.714601
0.714591
0.71458
0.714569
0.714559
0.714548
0.714537
0.714527
0.714516
0.714505
0.714495
0.714484
0.714473
0.714462
0.714452
0.714441
0.71443
0.71442
0.714409
0.714398
0.714388
0.714377
0.714366
0.714356
0.714345
0.714334
0.714323
0.714313
0.714302
0.714291
0.713196
0.713139
0.713077
0.713009
0.712935
0.712856
0.712768
0.712647
0.713203
0.713156
0.713093
0.713023
0.712949
0.71287
0.712778
0.71268
0.713208
0.713168
0.71311
0.713044
0.712974
0.712902
0.71283
0.71276
0.713218
0.713184
0.713132
0.71307
0.713006
0.712941
0.712878
0.71282
0.713232
0.7132
0.713151
0.713094
0.713036
0.712979
0.712925
0.712878
0.713247
0.713214
0.713166
0.713113
0.713059
0.713008
0.712961
0.71292
0.713263
0.713226
0.713176
0.713125
0.713074
0.713027
0.712984
0.712946
0.713271
0.713224
0.713175
0.713125
0.713078
0.713033
0.712991
0.712954
0.712581
0.7126
0.712621
0.712633
0.712639
0.712642
0.712643
0.712643
0.712642
0.712641
0.71264
0.71264
0.71264
0.712641
0.712644
0.712649
0.712657
0.712668
0.712684
0.712704
0.71273
0.712761
0.712799
0.712843
0.712893
0.71295
0.713012
0.71308
0.713153
0.71323
0.71331
0.713392
0.713475
0.713558
0.713638
0.713716
0.713789
0.713857
0.713919
0.713973
0.714019
0.714058
0.714088
0.71411
0.714126
0.714135
0.71414
0.714141
0.714141
0.71414
0.71414
0.714142
0.714147
0.714156
0.714169
0.714187
0.714211
0.714239
0.714272
0.714309
0.714351
0.714397
0.714445
0.714496
0.714549
0.714603
0.714657
0.71471
0.714761
0.714811
0.714858
0.714901
0.714942
0.71498
0.715015
0.715047
0.715076
0.715104
0.715131
0.715156
0.71518
0.715204
0.715228
0.715251
0.715273
0.715294
0.715313
0.715331
0.715347
0.715359
0.71537
0.715377
0.715381
0.715383
0.715382
0.715379
0.715374
0.715368
0.71536
0.715352
0.715344
0.715334
0.715325
0.715315
0.715305
0.715295
0.715285
0.715274
0.715264
0.715253
0.715243
0.715232
0.715222
0.715211
0.7152
0.71519
0.715179
0.715168
0.715158
0.715147
0.715136
0.715125
0.715115
0.715104
0.715093
0.715083
0.715072
0.715061
0.715051
0.71504
0.715029
0.715018
0.715008
0.714997
0.714986
0.714976
0.714965
0.714954
0.714944
0.714933
0.714922
0.714912
0.714901
0.71489
0.714879
0.714869
0.714858
0.714847
0.714837
0.714826
0.714815
0.714805
0.714794
0.714783
0.714773
0.714762
0.714751
0.71474
0.71473
0.714719
0.714708
0.714698
0.714687
0.714676
0.714666
0.714655
0.714644
0.714634
0.714623
0.714612
0.714601
0.714591
0.71458
0.714569
0.714559
0.714548
0.714537
0.714527
0.714516
0.714505
0.714495
0.714484
0.714473
0.714462
0.714452
0.714441
0.71443
0.71442
0.714409
0.714398
0.714388
0.714377
0.714366
0.714356
0.714345
0.714334
0.714323
0.714313
0.714302
0.714291
0.712605
0.712614
0.712627
0.71264
0.712649
0.712654
0.712657
0.712658
0.71266
0.712661
0.712662
0.712665
0.712668
0.712673
0.71268
0.71269
0.712703
0.71272
0.712741
0.712768
0.712799
0.712836
0.712879
0.712928
0.712982
0.713042
0.713106
0.713174
0.713246
0.713321
0.713396
0.713473
0.713548
0.713621
0.71369
0.713755
0.713814
0.713867
0.713913
0.713951
0.713982
0.714005
0.714022
0.714033
0.714039
0.714042
0.714043
0.714043
0.714043
0.714044
0.714047
0.714052
0.714061
0.714074
0.714092
0.714114
0.714141
0.714173
0.71421
0.714251
0.714298
0.714348
0.714402
0.714458
0.714517
0.714577
0.714638
0.714698
0.714758
0.714815
0.71487
0.714923
0.714972
0.715017
0.715059
0.715097
0.715132
0.715163
0.715192
0.715218
0.715242
0.715264
0.715284
0.715303
0.715319
0.715335
0.715348
0.715359
0.715369
0.715375
0.71538
0.715383
0.715383
0.715381
0.715378
0.715373
0.715368
0.715361
0.715354
0.715346
0.715337
0.715329
0.71532
0.715311
0.715302
0.715292
0.715283
0.715273
0.715263
0.715253
0.715243
0.715232
0.715222
0.715211
0.715201
0.71519
0.715179
0.715169
0.715158
0.715147
0.715136
0.715126
0.715115
0.715104
0.715093
0.715083
0.715072
0.715061
0.715051
0.71504
0.715029
0.715018
0.715008
0.714997
0.714986
0.714976
0.714965
0.714954
0.714944
0.714933
0.714922
0.714912
0.714901
0.71489
0.714879
0.714869
0.714858
0.714847
0.714837
0.714826
0.714815
0.714805
0.714794
0.714783
0.714773
0.714762
0.714751
0.71474
0.71473
0.714719
0.714708
0.714698
0.714687
0.714676
0.714666
0.714655
0.714644
0.714634
0.714623
0.714612
0.714601
0.714591
0.71458
0.714569
0.714559
0.714548
0.714537
0.714527
0.714516
0.714505
0.714495
0.714484
0.714473
0.714462
0.714452
0.714441
0.71443
0.71442
0.714409
0.714398
0.714388
0.714377
0.714366
0.714356
0.714345
0.714334
0.714323
0.714313
0.714302
0.714291
0.712706
0.712681
0.712676
0.712677
0.712679
0.712681
0.712684
0.712686
0.712689
0.712692
0.712697
0.712703
0.712711
0.712722
0.712735
0.712751
0.712771
0.712795
0.712824
0.712858
0.712896
0.71294
0.712989
0.713043
0.713101
0.713163
0.713228
0.713295
0.713364
0.713434
0.713503
0.71357
0.713635
0.713695
0.71375
0.713799
0.713841
0.713877
0.713907
0.71393
0.713948
0.713962
0.713972
0.713979
0.713984
0.713987
0.713989
0.713991
0.713993
0.713997
0.714003
0.714012
0.714024
0.714039
0.714058
0.714082
0.71411
0.714144
0.714182
0.714226
0.714274
0.714326
0.714383
0.714442
0.714504
0.714568
0.714633
0.714698
0.714763
0.714826
0.714886
0.714944
0.714999
0.71505
0.715096
0.715139
0.715177
0.715211
0.715242
0.715269
0.715292
0.715313
0.71533
0.715345
0.715358
0.715368
0.715377
0.715383
0.715387
0.715389
0.715389
0.715387
0.715384
0.71538
0.715375
0.715369
0.715362
0.715355
0.715348
0.71534
0.715332
0.715324
0.715316
0.715307
0.715299
0.71529
0.715281
0.715271
0.715262
0.715252
0.715242
0.715232
0.715222
0.715211
0.715201
0.71519
0.71518
0.715169
0.715158
0.715147
0.715137
0.715126
0.715115
0.715104
0.715094
0.715083
0.715072
0.715061
0.715051
0.71504
0.715029
0.715018
0.715008
0.714997
0.714986
0.714976
0.714965
0.714954
0.714944
0.714933
0.714922
0.714912
0.714901
0.71489
0.714879
0.714869
0.714858
0.714847
0.714837
0.714826
0.714815
0.714805
0.714794
0.714783
0.714773
0.714762
0.714751
0.71474
0.71473
0.714719
0.714708
0.714698
0.714687
0.714676
0.714666
0.714655
0.714644
0.714634
0.714623
0.714612
0.714601
0.714591
0.71458
0.714569
0.714559
0.714548
0.714537
0.714527
0.714516
0.714505
0.714495
0.714484
0.714473
0.714462
0.714452
0.714441
0.71443
0.71442
0.714409
0.714398
0.714388
0.714377
0.714366
0.714356
0.714345
0.714334
0.714323
0.714313
0.714302
0.714291
0.712773
0.712746
0.712732
0.712726
0.712724
0.712723
0.712724
0.712726
0.712729
0.712735
0.712742
0.712752
0.712765
0.712781
0.7128
0.712823
0.71285
0.712882
0.712918
0.712959
0.713005
0.713055
0.71311
0.713168
0.713229
0.713292
0.713356
0.71342
0.713483
0.713544
0.713603
0.713659
0.713709
0.713753
0.713791
0.713825
0.713853
0.713878
0.713898
0.713915
0.713928
0.713937
0.713944
0.71395
0.713955
0.713962
0.713968
0.713974
0.71398
0.713986
0.713994
0.714003
0.714015
0.71403
0.71405
0.714073
0.714102
0.714136
0.714175
0.714219
0.714268
0.714322
0.71438
0.714441
0.714505
0.714571
0.714639
0.714706
0.714774
0.71484
0.714904
0.714965
0.715022
0.715076
0.715126
0.715171
0.715211
0.715247
0.715278
0.715305
0.715328
0.715347
0.715363
0.715376
0.715385
0.715392
0.715397
0.715399
0.715399
0.715398
0.715395
0.715391
0.715385
0.715379
0.715373
0.715366
0.715358
0.715351
0.715343
0.715336
0.715328
0.71532
0.715313
0.715305
0.715296
0.715288
0.715279
0.71527
0.715261
0.715252
0.715242
0.715232
0.715222
0.715212
0.715201
0.715191
0.71518
0.715169
0.715158
0.715148
0.715137
0.715126
0.715115
0.715104
0.715094
0.715083
0.715072
0.715061
0.715051
0.71504
0.715029
0.715018
0.715008
0.714997
0.714986
0.714976
0.714965
0.714954
0.714944
0.714933
0.714922
0.714912
0.714901
0.71489
0.714879
0.714869
0.714858
0.714847
0.714837
0.714826
0.714815
0.714805
0.714794
0.714783
0.714773
0.714762
0.714751
0.71474
0.71473
0.714719
0.714708
0.714698
0.714687
0.714676
0.714666
0.714655
0.714644
0.714634
0.714623
0.714612
0.714601
0.714591
0.71458
0.714569
0.714559
0.714548
0.714537
0.714527
0.714516
0.714505
0.714495
0.714484
0.714473
0.714462
0.714452
0.714441
0.71443
0.71442
0.714409
0.714398
0.714388
0.714377
0.714366
0.714356
0.714345
0.714334
0.714323
0.714313
0.714302
0.714291
0.712839
0.712812
0.712794
0.712782
0.712775
0.71277
0.712768
0.712769
0.712773
0.712779
0.712789
0.712802
0.712818
0.712839
0.712863
0.712892
0.712925
0.712963
0.713006
0.713053
0.713104
0.71316
0.713218
0.713278
0.713339
0.713399
0.713458
0.713514
0.713568
0.713619
0.713667
0.713712
0.713752
0.713786
0.713814
0.713836
0.713853
0.713866
0.713878
0.713891
0.713904
0.713919
0.713932
0.713944
0.713954
0.713962
0.713968
0.713974
0.713979
0.713985
0.713993
0.714002
0.714015
0.714031
0.714051
0.714075
0.714104
0.714139
0.714178
0.714223
0.714273
0.714327
0.714385
0.714448
0.714513
0.71458
0.714648
0.714717
0.714786
0.714853
0.714919
0.714981
0.715041
0.715096
0.715147
0.715193
0.715234
0.71527
0.715302
0.715329
0.715351
0.715369
0.715383
0.715394
0.715402
0.715406
0.715409
0.715409
0.715407
0.715403
0.715398
0.715393
0.715386
0.715379
0.715371
0.715363
0.715355
0.715348
0.71534
0.715333
0.715325
0.715318
0.71531
0.715303
0.715295
0.715287
0.715278
0.71527
0.715261
0.715251
0.715242
0.715232
0.715222
0.715212
0.715201
0.715191
0.71518
0.715169
0.715159
0.715148
0.715137
0.715126
0.715115
0.715104
0.715094
0.715083
0.715072
0.715061
0.715051
0.71504
0.715029
0.715018
0.715008
0.714997
0.714986
0.714976
0.714965
0.714954
0.714944
0.714933
0.714922
0.714912
0.714901
0.71489
0.714879
0.714869
0.714858
0.714847
0.714837
0.714826
0.714815
0.714805
0.714794
0.714783
0.714773
0.714762
0.714751
0.71474
0.71473
0.714719
0.714708
0.714698
0.714687
0.714676
0.714666
0.714655
0.714644
0.714634
0.714623
0.714612
0.714601
0.714591
0.71458
0.714569
0.714559
0.714548
0.714537
0.714527
0.714516
0.714505
0.714495
0.714484
0.714473
0.714462
0.714452
0.714441
0.71443
0.71442
0.714409
0.714398
0.714388
0.714377
0.714366
0.714356
0.714345
0.714334
0.714323
0.714313
0.714302
0.714291
0.712886
0.712859
0.712838
0.712823
0.712812
0.712805
0.712801
0.7128
0.712804
0.712811
0.712822
0.712837
0.712857
0.712881
0.712909
0.712942
0.712979
0.71302
0.713066
0.713116
0.71317
0.713226
0.713285
0.713344
0.713404
0.713461
0.713515
0.713565
0.713612
0.713654
0.713692
0.713723
0.713747
0.713767
0.713787
0.713808
0.713831
0.713854
0.713875
0.713894
0.71391
0.713923
0.713933
0.713943
0.713951
0.713958
0.713965
0.713971
0.713978
0.713986
0.713995
0.714006
0.714019
0.714036
0.714057
0.714082
0.714112
0.714147
0.714187
0.714232
0.714283
0.714337
0.714396
0.714459
0.714524
0.714591
0.71466
0.71473
0.714799
0.714866
0.714932
0.714995
0.715054
0.71511
0.715161
0.715207
0.715248
0.715284
0.715315
0.715342
0.715363
0.715381
0.715394
0.715404
0.71541
0.715414
0.715415
0.715413
0.71541
0.715405
0.7154
0.715393
0.715385
0.715378
0.71537
0.715362
0.715354
0.715346
0.715339
0.715331
0.715324
0.715317
0.715309
0.715302
0.715294
0.715286
0.715278
0.715269
0.71526
0.715251
0.715242
0.715232
0.715222
0.715212
0.715201
0.715191
0.71518
0.715169
0.715159
0.715148
0.715137
0.715126
0.715115
0.715105
0.715094
0.715083
0.715072
0.715061
0.715051
0.71504
0.715029
0.715018
0.715008
0.714997
0.714986
0.714976
0.714965
0.714954
0.714944
0.714933
0.714922
0.714912
0.714901
0.71489
0.714879
0.714869
0.714858
0.714847
0.714837
0.714826
0.714815
0.714805
0.714794
0.714783
0.714773
0.714762
0.714751
0.71474
0.71473
0.714719
0.714708
0.714698
0.714687
0.714676
0.714666
0.714655
0.714644
0.714634
0.714623
0.714612
0.714601
0.714591
0.71458
0.714569
0.714559
0.714548
0.714537
0.714527
0.714516
0.714505
0.714495
0.714484
0.714473
0.714462
0.714452
0.714441
0.71443
0.71442
0.714409
0.714398
0.714388
0.714377
0.714366
0.714356
0.714345
0.714334
0.714323
0.714313
0.714302
0.714291
0.712914
0.712886
0.712864
0.712846
0.712833
0.712823
0.712818
0.712817
0.712821
0.712828
0.712841
0.712857
0.712879
0.712904
0.712935
0.712969
0.713008
0.713051
0.713098
0.713149
0.713203
0.713259
0.713315
0.713371
0.713423
0.713471
0.713514
0.713553
0.713591
0.713629
0.713667
0.713704
0.713738
0.713768
0.713795
0.713818
0.713838
0.713856
0.713873
0.713888
0.713903
0.713916
0.713928
0.713939
0.713949
0.713957
0.713964
0.713971
0.713979
0.713987
0.713997
0.714008
0.714023
0.714041
0.714062
0.714088
0.714119
0.714154
0.714195
0.714241
0.714291
0.714346
0.714405
0.714467
0.714533
0.7146
0.714669
0.714738
0.714807
0.714875
0.71494
0.715003
0.715062
0.715117
0.715168
0.715213
0.715254
0.71529
0.715321
0.715347
0.715368
0.715385
0.715398
0.715407
0.715412
0.715415
0.715416
0.715414
0.71541
0.715405
0.715399
0.715392
0.715385
0.715377
0.715369
0.715361
0.715353
0.715345
0.715338
0.715331
0.715323
0.715316
0.715309
0.715301
0.715294
0.715286
0.715278
0.715269
0.71526
0.715251
0.715241
0.715232
0.715222
0.715212
0.715201
0.715191
0.71518
0.715169
0.715159
0.715148
0.715137
0.715126
0.715115
0.715105
0.715094
0.715083
0.715072
0.715061
0.715051
0.71504
0.715029
0.715018
0.715008
0.714997
0.714986
0.714976
0.714965
0.714954
0.714944
0.714933
0.714922
0.714912
0.714901
0.71489
0.714879
0.714869
0.714858
0.714847
0.714837
0.714826
0.714815
0.714805
0.714794
0.714783
0.714773
0.714762
0.714751
0.71474
0.71473
0.714719
0.714708
0.714698
0.714687
0.714676
0.714666
0.714655
0.714644
0.714634
0.714623
0.714612
0.714601
0.714591
0.71458
0.714569
0.714559
0.714548
0.714537
0.714527
0.714516
0.714505
0.714495
0.714484
0.714473
0.714462
0.714452
0.714441
0.71443
0.71442
0.714409
0.714398
0.714388
0.714377
0.714366
0.714356
0.714345
0.714334
0.714323
0.714313
0.714302
0.714291
0.712921
0.712892
0.712868
0.712848
0.712833
0.712822
0.712816
0.712815
0.712818
0.712826
0.712838
0.712855
0.712876
0.712901
0.712931
0.712964
0.713002
0.713043
0.713087
0.713135
0.713186
0.713239
0.713293
0.713348
0.713401
0.713453
0.713501
0.713547
0.71359
0.713631
0.71367
0.713704
0.713735
0.713761
0.713785
0.713808
0.71383
0.713851
0.71387
0.713887
0.713902
0.713915
0.713926
0.713936
0.713945
0.713953
0.713961
0.713969
0.713977
0.713986
0.713996
0.714009
0.714024
0.714043
0.714065
0.714092
0.714123
0.71416
0.714201
0.714247
0.714298
0.714354
0.714413
0.714476
0.714541
0.714609
0.714678
0.714747
0.714816
0.714883
0.714948
0.71501
0.715069
0.715124
0.715174
0.715219
0.71526
0.715295
0.715325
0.71535
0.71537
0.715387
0.715399
0.715407
0.715413
0.715415
0.715415
0.715413
0.715409
0.715404
0.715398
0.715391
0.715384
0.715376
0.715368
0.715361
0.715353
0.715345
0.715338
0.715331
0.715323
0.715316
0.715309
0.715301
0.715294
0.715286
0.715278
0.715269
0.71526
0.715251
0.715241
0.715232
0.715222
0.715211
0.715201
0.715191
0.71518
0.715169
0.715159
0.715148
0.715137
0.715126
0.715115
0.715105
0.715094
0.715083
0.715072
0.715061
0.715051
0.71504
0.715029
0.715019
0.715008
0.714997
0.714986
0.714976
0.714965
0.714954
0.714944
0.714933
0.714922
0.714912
0.714901
0.71489
0.714879
0.714869
0.714858
0.714847
0.714837
0.714826
0.714815
0.714805
0.714794
0.714783
0.714773
0.714762
0.714751
0.71474
0.71473
0.714719
0.714708
0.714698
0.714687
0.714676
0.714666
0.714655
0.714644
0.714634
0.714623
0.714612
0.714601
0.714591
0.71458
0.714569
0.714559
0.714548
0.714537
0.714527
0.714516
0.714505
0.714495
0.714484
0.714473
0.714462
0.714452
0.714441
0.71443
0.71442
0.714409
0.714398
0.714388
0.714377
0.714366
0.714356
0.714345
0.714334
0.714323
0.714313
0.714302
0.714291
)
;

boundaryField
{
    inlet
    {
        type            zeroGradient;
    }
    outlet
    {