/*--------------------------------*- C++ -*----------------------------------*\
| =========                 |                                                 |
| \\      /  F ield         | OpenFOAM: The Open Source CFD Toolbox           |
|  \\    /   O peration     | Version:  4.1                                   |
|   \\  /    A nd           | Web:      www.OpenFOAM.org                      |
|    \\/     M anipulation  |                                                 |
\*---------------------------------------------------------------------------*/
FoamFile
{
    version     2.0;
    format      ascii;
    class       volVectorField;
    location    "5040";
    object      U;
}
// * * * * * * * * * * * * * * * * * * * * * * * * * * * * * * * * * * * * * //

dimensions      [0 1 -1 0 0 0 0];

internalField   nonuniform List<vector> 
1275
(
(0.0902711 -0.000659408 0)
(0.0901749 -0.000664692 0)
(0.0900434 -0.000659141 0)
(0.0899679 -0.000666157 0)
(0.0898099 -0.000656201 0)
(0.0885751 -0.00250905 0)
(0.0879391 -0.00205497 0)
(0.0873895 -0.00163014 0)
(0.0869218 -0.00122687 0)
(0.0865336 -0.000847637 0)
(0.0862204 -0.000488792 0)
(0.0859787 -0.000150433 0)
(0.085804 0.000169773 0)
(0.0856926 0.000472458 0)
(0.0856398 0.000759365 0)
(0.0856418 0.00103134 0)
(0.0856943 0.00128976 0)
(0.0857936 0.00153549 0)
(0.0859357 0.00176966 0)
(0.0861171 0.00199305 0)
(0.0863341 0.00220659 0)
(0.0865835 0.00241096 0)
(0.086862 0.00260691 0)
(0.0871667 0.002795 0)
(0.0874946 0.00297583 0)
(0.087843 0.00314985 0)
(0.0882094 0.00331751 0)
(0.0885912 0.00347914 0)
(0.0889863 0.00363509 0)
(0.0893924 0.00378557 0)
(0.0898075 0.00393079 0)
(0.0902294 0.00407089 0)
(0.0906565 0.00420598 0)
(0.0910869 0.00433608 0)
(0.0915188 0.00446122 0)
(0.0919507 0.00458134 0)
(0.092381 0.00469639 0)
(0.0928083 0.00480623 0)
(0.0932311 0.00491074 0)
(0.0936481 0.00500973 0)
(0.0940579 0.00510302 0)
(0.0944595 0.00519038 0)
(0.0948516 0.00527158 0)
(0.0952331 0.00534637 0)
(0.0956031 0.00541449 0)
(0.0959605 0.00547569 0)
(0.0963046 0.0055297 0)
(0.0966344 0.00557627 0)
(0.0969493 0.00561516 0)
(0.0972486 0.00564614 0)
(0.0975316 0.005669 0)
(0.097798 0.00568356 0)
(0.0980472 0.00568964 0)
(0.098279 0.00568714 0)
(0.0984931 0.00567594 0)
(0.0986892 0.00565601 0)
(0.0988674 0.00562731 0)
(0.0990275 0.00558988 0)
(0.0991697 0.00554377 0)
(0.0992941 0.00548911 0)
(0.0994009 0.00542604 0)
(0.0994904 0.00535477 0)
(0.099563 0.00527553 0)
(0.099619 0.0051886 0)
(0.0996589 0.0050943 0)
(0.0996832 0.00499298 0)
(0.0996926 0.00488504 0)
(0.0996876 0.00477088 0)
(0.0996688 0.00465096 0)
(0.099637 0.00452573 0)
(0.0995927 0.00439569 0)
(0.0995367 0.00426133 0)
(0.0994698 0.00412315 0)
(0.0993925 0.00398168 0)
(0.0993057 0.00383742 0)
(0.09921 0.0036909 0)
(0.0991061 0.00354263 0)
(0.0989947 0.0033931 0)
(0.0988764 0.0032428 0)
(0.098752 0.00309221 0)
(0.0986219 0.0029418 0)
(0.0984868 0.00279198 0)
(0.0983472 0.0026432 0)
(0.0982036 0.00249583 0)
(0.0980565 0.00235025 0)
(0.0979065 0.00220681 0)
(0.0977538 0.00206582 0)
(0.097599 0.00192758 0)
(0.0974423 0.00179236 0)
(0.097284 0.0016604 0)
(0.0971246 0.00153192 0)
(0.0969642 0.0014071 0)
(0.0968031 0.00128611 0)
(0.0966415 0.00116909 0)
(0.0964796 0.00105616 0)
(0.0963176 0.000947413 0)
(0.0961557 0.000842923 0)
(0.0959938 0.000742744 0)
(0.0958323 0.000646909 0)
(0.0956711 0.000555433 0)
(0.0955104 0.000468314 0)
(0.0953501 0.000385537 0)
(0.0951905 0.000307066 0)
(0.0950314 0.00023286 0)
(0.094873 0.000162852 0)
(0.0947153 9.69867e-05 0)
(0.0945584 3.51618e-05 0)
(0.0944022 -2.26797e-05 0)
(0.0942466 -7.66844e-05 0)
(0.094092 -0.000126886 0)
(0.093938 -0.000173502 0)
(0.0937849 -0.000216495 0)
(0.0936324 -0.000256212 0)
(0.0934811 -0.000292459 0)
(0.0933299 -0.000325822 0)
(0.0931806 -0.000355786 0)
(0.0930304 -0.000383398 0)
(0.0928836 -0.000407519 0)
(0.0927336 -0.000430051 0)
(0.0925908 -0.000448708 0)
(0.0924388 -0.000466914 0)
(0.0923033 -0.000480398 0)
(0.0921441 -0.000495106 0)
(0.0920242 -0.00050365 0)
(0.0918449 -0.000515636 0)
(0.0917608 -0.000519675 0)
(0.0915309 -0.000528936 0)
(0.0914352 -0.000529563 0)
(0.0913202 -0.000536769 0)
(0.0911514 -0.000533171 0)
(0.0910597 -0.000538834 0)
(0.090857 -0.000532833 0)
(0.0675613 -0.00178673 0)
(0.0669408 -0.0014354 0)
(0.0664236 -0.00110686 0)
(0.0660087 -0.00079696 0)
(0.0656885 -0.000505884 0)
(0.0654581 -0.000230746 0)
(0.0653116 2.89451e-05 0)
(0.0652433 0.000275288 0)
(0.0652479 0.000509012 0)
(0.06532 0.000731692 0)
(0.0654547 0.00094409 0)
(0.0656471 0.00114741 0)
(0.0658928 0.00134235 0)
(0.0661875 0.00152983 0)
(0.0665271 0.00171047 0)
(0.0669078 0.00188498 0)
(0.0673262 0.00205386 0)
(0.0677789 0.00221766 0)
(0.0682627 0.00237676 0)
(0.0687747 0.00253158 0)
(0.0693123 0.00268241 0)
(0.0698727 0.00282955 0)
(0.0704535 0.0029732 0)
(0.0710525 0.00311353 0)
(0.0716674 0.00325068 0)
(0.0722962 0.00338472 0)
(0.0729368 0.0035157 0)
(0.0735875 0.00364361 0)
(0.0742464 0.00376842 0)
(0.0749118 0.00389006 0)
(0.0755819 0.0040084 0)
(0.0762552 0.00412331 0)
(0.0769302 0.00423461 0)
(0.0776052 0.00434209 0)
(0.0782788 0.00444552 0)
(0.0789496 0.00454465 0)
(0.0796161 0.00463921 0)
(0.0802771 0.00472889 0)
(0.0809313 0.00481339 0)
(0.0815773 0.0048924 0)
(0.082214 0.00496559 0)
(0.0828402 0.00503264 0)
(0.0834547 0.00509323 0)
(0.0840565 0.00514704 0)
(0.0846446 0.00519379 0)
(0.085218 0.00523318 0)
(0.0857759 0.00526495 0)
(0.0863173 0.00528886 0)
(0.0868416 0.0053047 0)
(0.0873481 0.00531231 0)
(0.0878361 0.00531153 0)
(0.0883051 0.00530228 0)
(0.0887547 0.00528448 0)
(0.0891845 0.00525814 0)
(0.0895942 0.00522327 0)
(0.0899835 0.00517996 0)
(0.0903524 0.00512832 0)
(0.0907007 0.00506853 0)
(0.0910284 0.00500079 0)
(0.0913358 0.00492537 0)
(0.0916228 0.00484254 0)
(0.0918897 0.00475266 0)
(0.0921367 0.00465608 0)
(0.0923643 0.0045532 0)
(0.0925728 0.00444446 0)
(0.0927625 0.00433031 0)
(0.092934 0.00421122 0)
(0.0930878 0.00408767 0)
(0.0932244 0.00396017 0)
(0.0933443 0.00382922 0)
(0.0934481 0.00369534 0)
(0.0935365 0.00355904 0)
(0.0936099 0.00342081 0)
(0.0936691 0.00328116 0)
(0.0937146 0.00314058 0)
(0.0937471 0.00299954 0)
(0.0937671 0.0028585 0)
(0.0937752 0.00271789 0)
(0.0937721 0.00257813 0)
(0.0937583 0.00243961 0)
(0.0937343 0.00230271 0)
(0.0937008 0.00216778 0)
(0.0936582 0.00203512 0)
(0.093607 0.00190504 0)
(0.0935478 0.0017778 0)
(0.093481 0.00165364 0)
(0.0934071 0.00153278 0)
(0.0933265 0.00141541 0)
(0.0932396 0.00130169 0)
(0.0931468 0.00119176 0)
(0.0930486 0.00108574 0)
(0.0929452 0.000983712 0)
(0.0928371 0.000885756 0)
(0.0927245 0.000791922 0)
(0.0926077 0.000702241 0)
(0.0924872 0.000616725 0)
(0.092363 0.000535371 0)
(0.0922357 0.00045816 0)
(0.0921053 0.000385056 0)
(0.0919721 0.000316012 0)
(0.0918364 0.000250969 0)
(0.0916984 0.000189851 0)
(0.0915583 0.000132582 0)
(0.0914164 7.90628e-05 0)
(0.0912727 2.92106e-05 0)
(0.0911276 -1.71099e-05 0)
(0.0909811 -5.99626e-05 0)
(0.0908336 -9.95421e-05 0)
(0.0906849 -0.000135849 0)
(0.0905357 -0.000169198 0)
(0.0903854 -0.000199427 0)
(0.0902352 -0.00022711 0)
(0.0900836 -0.000251705 0)
(0.0899333 -0.000274371 0)
(0.0897806 -0.000293683 0)
(0.089631 -0.00031214 0)
(0.0894771 -0.00032629 0)
(0.0893295 -0.00034168 0)
(0.0891738 -0.000350316 0)
(0.0890296 -0.00036434 0)
(0.0888717 -0.000366673 0)
(0.0887314 -0.000380419 0)
(0.0885698 -0.000379865 0)
(0.088442 -0.000387362 0)
(0.0882636 -0.000386989 0)
(0.0881663 -0.000391137 0)
(0.0879484 -0.000389732 0)
(0.045429 -0.00114885 0)
(0.0449826 -0.000915663 0)
(0.0446399 -0.000696857 0)
(0.0443949 -0.000490667 0)
(0.0442398 -0.000296084 0)
(0.0441686 -0.000110953 0)
(0.0441747 6.52955e-05 0)
(0.0442526 0.000234304 0)
(0.0443968 0.000396585 0)
(0.0446026 0.000553309 0)
(0.0448652 0.000704936 0)
(0.0451804 0.000852299 0)
(0.0455444 0.000995788 0)
(0.0459536 0.001136 0)
(0.0464045 0.00127325 0)
(0.0468941 0.00140797 0)
(0.0474196 0.0015404 0)
(0.0479782 0.00167086 0)
(0.0485675 0.00179953 0)
(0.0491852 0.00192661 0)
(0.049829 0.00205222 0)
(0.0504969 0.00217651 0)
(0.051187 0.00229953 0)
(0.0518975 0.00242134 0)
(0.0526265 0.00254195 0)
(0.0533725 0.00266135 0)
(0.0541337 0.0027795 0)
(0.0549087 0.00289632 0)
(0.0556959 0.00301172 0)
(0.0564938 0.00312557 0)
(0.057301 0.0032377 0)
(0.058116 0.00334793 0)
(0.0589375 0.00345605 0)
(0.059764 0.00356183 0)
(0.0605942 0.00366499 0)
(0.0614267 0.00376528 0)
(0.0622601 0.00386237 0)
(0.0630931 0.00395595 0)
(0.0639243 0.0040457 0)
(0.0647524 0.00413127 0)
(0.0655762 0.0042123 0)
(0.0663941 0.00428844 0)
(0.0672051 0.00435933 0)
(0.0680078 0.00442463 0)
(0.068801 0.00448399 0)
(0.0695835 0.00453707 0)
(0.0703541 0.00458356 0)
(0.0711117 0.00462317 0)
(0.0718552 0.00465563 0)
(0.0725836 0.00468071 0)
(0.0732959 0.00469818 0)
(0.0739911 0.00470788 0)
(0.0746686 0.00470969 0)
(0.0753273 0.0047035 0)
(0.0759667 0.00468928 0)
(0.0765861 0.00466701 0)
(0.0771848 0.00463675 0)
(0.0777626 0.00459859 0)
(0.0783188 0.00455265 0)
(0.0788532 0.00449911 0)
(0.0793654 0.00443821 0)
(0.0798554 0.0043702 0)
(0.080323 0.00429538 0)
(0.0807682 0.00421409 0)
(0.0811909 0.0041267 0)
(0.0815913 0.00403361 0)
(0.0819695 0.00393523 0)
(0.0823257 0.00383202 0)
(0.0826601 0.00372442 0)
(0.0829732 0.00361292 0)
(0.0832652 0.00349798 0)
(0.0835365 0.0033801 0)
(0.0837876 0.00325976 0)
(0.0840189 0.00313743 0)
(0.084231 0.0030136 0)
(0.0844243 0.00288872 0)
(0.0845994 0.00276324 0)
(0.0847568 0.00263761 0)
(0.0848971 0.00251223 0)
(0.085021 0.00238751 0)
(0.0851288 0.00226381 0)
(0.0852214 0.0021415 0)
(0.0852991 0.00202089 0)
(0.0853627 0.0019023 0)
(0.0854127 0.001786 0)
(0.0854498 0.00167225 0)
(0.0854744 0.00156127 0)
(0.0854871 0.00145326 0)
(0.0854886 0.00134841 0)
(0.0854793 0.00124686 0)
(0.0854598 0.00114876 0)
(0.0854306 0.0010542 0)
(0.0853923 0.000963268 0)
(0.0853453 0.000876036 0)
(0.0852902 0.000792546 0)
(0.0852274 0.000712826 0)
(0.0851573 0.000636886 0)
(0.0850806 0.000564719 0)
(0.0849975 0.000496305 0)
(0.0849085 0.000431607 0)
(0.084814 0.00037058 0)
(0.0847145 0.00031316 0)
(0.0846103 0.000259287 0)
(0.0845017 0.000208864 0)
(0.0843892 0.000161832 0)
(0.084273 0.000118057 0)
(0.0841536 7.74905e-05 0)
(0.0840312 3.99539e-05 0)
(0.0839062 5.43589e-06 0)
(0.0837787 -2.63137e-05 0)
(0.0836492 -5.5235e-05 0)
(0.0835178 -8.1677e-05 0)
(0.0833849 -0.000105478 0)
(0.0832505 -0.000127101 0)
(0.0831151 -0.000146285 0)
(0.0829789 -0.000163558 0)
(0.0828415 -0.000178671 0)
(0.0827049 -0.000192006 0)
(0.0825653 -0.000203646 0)
(0.0824305 -0.00021341 0)
(0.0822869 -0.000222086 0)
(0.0821587 -0.000228855 0)
(0.0820063 -0.000234377 0)
(0.0818909 -0.000239649 0)
(0.0817231 -0.000243364 0)
(0.0816348 -0.000245377 0)
(0.0814312 -0.000248774 0)
(0.0263971 -0.000780155 0)
(0.0261675 -0.000646354 0)
(0.0260146 -0.000518968 0)
(0.025935 -0.000396796 0)
(0.0259218 -0.000279339 0)
(0.0259715 -0.000165461 0)
(0.026079 -5.48935e-05 0)
(0.026241 5.32355e-05 0)
(0.0264537 0.000159133 0)
(0.0267141 0.000263426 0)
(0.0270191 0.000366295 0)
(0.0273662 0.000468182 0)
(0.0277529 0.000569242 0)
(0.028177 0.000669787 0)
(0.0286363 0.000769942 0)
(0.029129 0.000869925 0)
(0.0296532 0.000969831 0)
(0.0302073 0.0010698 0)
(0.0307897 0.00116991 0)
(0.031399 0.00127024 0)
(0.0320337 0.00137082 0)
(0.0326925 0.00147169 0)
(0.0333741 0.00157285 0)
(0.0340773 0.00167429 0)
(0.0348009 0.00177598 0)
(0.0355438 0.00187786 0)
(0.0363049 0.00197985 0)
(0.0370829 0.00208186 0)
(0.0378768 0.00218376 0)
(0.0386855 0.00228542 0)
(0.0395079 0.00238667 0)
(0.0403428 0.00248732 0)
(0.0411891 0.00258716 0)
(0.0420457 0.00268595 0)
(0.0429114 0.00278345 0)
(0.0437849 0.00287938 0)
(0.0446652 0.00297345 0)
(0.045551 0.00306533 0)
(0.046441 0.00315472 0)
(0.047334 0.00324126 0)
(0.0482286 0.0033246 0)
(0.0491236 0.0034044 0)
(0.0500177 0.00348028 0)
(0.0509095 0.00355189 0)
(0.0517978 0.00361886 0)
(0.0526811 0.00368085 0)
(0.0535583 0.00373751 0)
(0.054428 0.00378852 0)
(0.0552888 0.00383358 0)
(0.0561396 0.0038724 0)
(0.0569792 0.00390473 0)
(0.0578062 0.00393035 0)
(0.0586196 0.00394907 0)
(0.0594184 0.00396074 0)
(0.0602013 0.00396525 0)
(0.0609674 0.00396252 0)
(0.0617159 0.00395253 0)
(0.0624458 0.0039353 0)
(0.0631563 0.00391087 0)
(0.0638467 0.00387936 0)
(0.0645163 0.00384091 0)
(0.0651646 0.0037957 0)
(0.0657911 0.00374396 0)
(0.0663953 0.00368595 0)
(0.0669769 0.00362196 0)
(0.0675356 0.00355232 0)
(0.0680713 0.00347739 0)
(0.0685837 0.00339754 0)
(0.0690729 0.00331316 0)
(0.0695388 0.00322467 0)
(0.0699816 0.0031325 0)
(0.0704013 0.00303707 0)
(0.0707982 0.00293882 0)
(0.0711724 0.00283819 0)
(0.0715244 0.00273562 0)
(0.0718545 0.00263154 0)
(0.072163 0.00252636 0)
(0.0724503 0.00242049 0)
(0.072717 0.00231432 0)
(0.0729635 0.00220825 0)
(0.0731904 0.00210261 0)
(0.0733981 0.00199776 0)
(0.0735873 0.00189401 0)
(0.0737586 0.00179166 0)
(0.0739125 0.00169099 0)
(0.0740496 0.00159224 0)
(0.0741706 0.00149564 0)
(0.0742761 0.0014014 0)
(0.0743667 0.0013097 0)
(0.074443 0.0012207 0)
(0.0745056 0.00113454 0)
(0.0745553 0.00105133 0)
(0.0745926 0.000971162 0)
(0.074618 0.000894122 0)
(0.0746323 0.000820262 0)
(0.074636 0.000749623 0)
(0.0746297 0.000682226 0)
(0.074614 0.000618079 0)
(0.0745894 0.000557174 0)
(0.0745565 0.000499489 0)
(0.0745158 0.000444995 0)
(0.0744678 0.000393641 0)
(0.0744131 0.000345382 0)
(0.0743521 0.00030014 0)
(0.0742853 0.000257867 0)
(0.0742132 0.000218447 0)
(0.0741361 0.000181851 0)
(0.0740546 0.000147902 0)
(0.073969 0.000116637 0)
(0.0738798 8.77594e-05 0)
(0.0737872 6.1455e-05 0)
(0.0736918 3.7201e-05 0)
(0.0735935 1.54937e-05 0)
(0.0734933 -4.63884e-06 0)
(0.0733905 -2.20821e-05 0)
(0.0732869 -3.86602e-05 0)
(0.0731804 -5.21196e-05 0)
(0.073075 -6.57657e-05 0)
(0.0729652 -7.55243e-05 0)
(0.0728599 -8.67498e-05 0)
(0.072746 -9.34786e-05 0)
(0.0726444 -0.000101986 0)
(0.0725234 -0.000107824 0)
(0.0724321 -0.000111854 0)
(0.0722968 -0.000118628 0)
(0.0722271 -0.000118579 0)
(0.072064 -0.000126376 0)
(0.0123517 -0.000603148 0)
(0.0122305 -0.000532871 0)
(0.0121598 -0.000464351 0)
(0.0121372 -0.000397893 0)
(0.0121594 -0.000332678 0)
(0.0122245 -0.000268261 0)
(0.01233 -0.000204376 0)
(0.0124742 -0.00014053 0)
(0.0126551 -7.6605e-05 0)
(0.0128714 -1.22209e-05 0)
(0.0131214 5.26987e-05 0)
(0.0134039 0.000118415 0)
(0.0137176 0.000184984 0)
(0.0140615 0.000252576 0)
(0.0144345 0.00032123 0)
(0.0148357 0.000391052 0)
(0.0152642 0.000462064 0)
(0.0157192 0.000534328 0)
(0.0161998 0.000607847 0)
(0.0167053 0.000682648 0)
(0.0172351 0.000758718 0)
(0.0177884 0.000836053 0)
(0.0183645 0.000914619 0)
(0.0189628 0.000994387 0)
(0.0195826 0.0010753 0)
(0.0202234 0.00115729 0)
(0.0208843 0.00124029 0)
(0.0215647 0.00132419 0)
(0.0222639 0.00140889 0)
(0.0229813 0.00149426 0)
(0.023716 0.00158015 0)
(0.0244673 0.00166639 0)
(0.0252344 0.00175281 0)
(0.0260165 0.00183919 0)
(0.0268125 0.00192532 0)
(0.0276217 0.00201096 0)
(0.0284431 0.00209584 0)
(0.0292756 0.00217969 0)
(0.0301182 0.00226222 0)
(0.0309698 0.00234312 0)
(0.0318292 0.00242206 0)
(0.0326954 0.00249873 0)
(0.033567 0.00257278 0)
(0.0344428 0.00264388 0)
(0.0353215 0.00271168 0)
(0.0362019 0.00277583 0)
(0.0370825 0.00283601 0)
(0.0379622 0.0028919 0)
(0.0388394 0.00294318 0)
(0.0397129 0.00298955 0)
(0.0405814 0.00303075 0)
(0.0414434 0.00306653 0)
(0.0422977 0.00309666 0)
(0.0431429 0.00312097 0)
(0.0439779 0.00313928 0)
(0.0448013 0.00315148 0)
(0.0456119 0.00315749 0)
(0.0464087 0.00315726 0)
(0.0471906 0.00315078 0)
(0.0479565 0.0031381 0)
(0.0487054 0.00311928 0)
(0.0494365 0.00309443 0)
(0.0501489 0.0030637 0)
(0.0508419 0.00302728 0)
(0.0515148 0.00298538 0)
(0.052167 0.00293825 0)
(0.052798 0.00288617 0)
(0.0534073 0.00282943 0)
(0.0539947 0.00276836 0)
(0.0545597 0.0027033 0)
(0.0551021 0.00263459 0)
(0.0556219 0.0025626 0)
(0.056119 0.00248771 0)
(0.0565934 0.00241029 0)
(0.0570451 0.00233072 0)
(0.0574743 0.00224936 0)
(0.0578811 0.0021666 0)
(0.0582658 0.00208279 0)
(0.0586288 0.00199828 0)
(0.0589703 0.0019134 0)
(0.0592908 0.00182849 0)
(0.0595906 0.00174386 0)
(0.0598703 0.00165978 0)
(0.0601304 0.00157654 0)
(0.0603713 0.00149439 0)
(0.0605937 0.00141355 0)
(0.0607982 0.00133426 0)
(0.0609852 0.00125669 0)
(0.0611554 0.00118102 0)
(0.0613095 0.00110741 0)
(0.0614481 0.00103599 0)
(0.0615718 0.000966875 0)
(0.0616813 0.000900159 0)
(0.0617771 0.000835924 0)
(0.06186 0.00077423 0)
(0.0619306 0.000715125 0)
(0.0619895 0.000658641 0)
(0.0620373 0.000604793 0)
(0.0620746 0.000553586 0)
(0.062102 0.000505011 0)
(0.0621202 0.000459052 0)
(0.0621297 0.000415674 0)
(0.0621311 0.000374845 0)
(0.0621248 0.000336507 0)
(0.0621115 0.000300622 0)
(0.0620916 0.000267105 0)
(0.0620658 0.00023592 0)
(0.0620343 0.000206953 0)
(0.0619977 0.000180182 0)
(0.0619564 0.000155458 0)
(0.0619109 0.00013278 0)
(0.0618615 0.000111968 0)
(0.0618086 9.30305e-05 0)
(0.0617527 7.57995e-05 0)
(0.0616938 6.02101e-05 0)
(0.061633 4.62561e-05 0)
(0.061569 3.3559e-05 0)
(0.061505 2.26461e-05 0)
(0.0614365 1.22838e-05 0)
(0.0613714 4.28633e-06 0)
(0.0612978 -4.45224e-06 0)
(0.0612346 -9.49978e-06 0)
(0.0611543 -1.76477e-05 0)
(0.0610968 -1.93553e-05 0)
(0.0610069 -2.88483e-05 0)
(0.0609615 -2.6707e-05 0)
(0.0608554 -3.76683e-05 0)
(0.00284433 -0.000484486 0)
(0.00274252 -0.000455423 0)
(0.00267095 -0.000426374 0)
(0.00262935 -0.000397019 0)
(0.00261565 -0.000367186 0)
(0.00262962 -0.000336519 0)
(0.00266988 -0.000304973 0)
(0.00273616 -0.000272264 0)
(0.00282756 -0.00023838 0)
(0.00294381 -0.000203122 0)
(0.00308432 -0.000166484 0)
(0.00324886 -0.000128333 0)
(0.00343702 -8.86664e-05 0)
(0.00364861 -4.73979e-05 0)
(0.00388333 -4.52642e-06 0)
(0.00414102 3.99998e-05 0)
(0.00442146 8.6178e-05 0)
(0.00472451 0.000134036 0)
(0.00504998 0.000183566 0)
(0.00539772 0.000234777 0)
(0.00576758 0.000287653 0)
(0.00615941 0.000342186 0)
(0.00657302 0.000398349 0)
(0.00700826 0.000456117 0)
(0.00746492 0.00051545 0)
(0.00794279 0.000576303 0)
(0.00844164 0.000638615 0)
(0.0089612 0.000702322 0)
(0.00950118 0.000767339 0)
(0.0100613 0.000833574 0)
(0.010641 0.000900915 0)
(0.0112401 0.000969241 0)
(0.0118581 0.00103841 0)
(0.0124944 0.00110827 0)
(0.0131484 0.00117863 0)
(0.0138197 0.00124932 0)
(0.0145074 0.00132013 0)
(0.0152109 0.00139082 0)
(0.0159294 0.00146115 0)
(0.016662 0.00153088 0)
(0.0174078 0.00159974 0)
(0.0181659 0.00166743 0)
(0.0189353 0.00173367 0)
(0.0197148 0.00179816 0)
(0.0205034 0.0018606 0)
(0.0212999 0.00192068 0)
(0.022103 0.0019781 0)
(0.0229115 0.00203256 0)
(0.0237242 0.00208375 0)
(0.0245397 0.00213141 0)
(0.0253566 0.00217527 0)
(0.0261736 0.00221507 0)
(0.0269894 0.00225058 0)
(0.0278025 0.00228161 0)
(0.0286117 0.00230797 0)
(0.0294156 0.00232952 0)
(0.0302128 0.00234612 0)
(0.0310021 0.00235771 0)
(0.0317822 0.00236421 0)
(0.0325519 0.00236562 0)
(0.0333101 0.00236195 0)
(0.0340555 0.00235323 0)
(0.0347872 0.00233957 0)
(0.0355041 0.00232106 0)
(0.0362053 0.00229784 0)
(0.03689 0.0022701 0)
(0.0375573 0.00223802 0)
(0.0382066 0.00220183 0)
(0.0388373 0.00216177 0)
(0.0394487 0.00211809 0)
(0.0400404 0.00207108 0)
(0.040612 0.00202102 0)
(0.0411632 0.0019682 0)
(0.0416937 0.00191294 0)
(0.0422034 0.00185552 0)
(0.0426922 0.00179627 0)
(0.04316 0.00173548 0)
(0.0436069 0.00167346 0)
(0.044033 0.0016105 0)
(0.0444384 0.00154688 0)
(0.0448234 0.00148288 0)
(0.0451883 0.00141876 0)
(0.0455333 0.00135477 0)
(0.0458588 0.00129115 0)
(0.0461652 0.00122812 0)
(0.046453 0.00116588 0)
(0.0467226 0.00110462 0)
(0.0469745 0.00104451 0)
(0.0472093 0.000985706 0)
(0.0474275 0.000928351 0)
(0.0476297 0.000872565 0)
(0.0478163 0.000818456 0)
(0.0479881 0.000766115 0)
(0.0481456 0.00071562 0)
(0.0482895 0.000667032 0)
(0.0484202 0.0006204 0)
(0.0485385 0.000575761 0)
(0.0486449 0.000533139 0)
(0.04874 0.000492546 0)
(0.0488244 0.000453984 0)
(0.0488987 0.000417448 0)
(0.0489634 0.000382916 0)
(0.0490192 0.000350372 0)
(0.0490665 0.000319771 0)
(0.049106 0.000291095 0)
(0.0491381 0.000264269 0)
(0.0491632 0.000239287 0)
(0.0491821 0.000216033 0)
(0.0491949 0.000194538 0)
(0.0492024 0.000174613 0)
(0.0492047 0.000156372 0)
(0.0492026 0.000139505 0)
(0.0491961 0.000124268 0)
(0.049186 0.000110168 0)
(0.049172 9.76678e-05 0)
(0.0491556 8.60471e-05 0)
(0.0491353 7.59631e-05 0)
(0.0491141 6.66096e-05 0)
(0.0490885 5.84528e-05 0)
(0.0490641 5.14035e-05 0)
(0.0490335 4.42456e-05 0)
(0.0490078 4.00895e-05 0)
(0.0489722 3.22538e-05 0)
(0.0489473 3.20692e-05 0)
(0.0489063 2.1848e-05 0)
(0.0488838 2.539e-05 0)
(0.0488372 1.33043e-05 0)
(-0.00293808 -0.00036616 0)
(-0.0030576 -0.000358936 0)
(-0.00316162 -0.000350834 0)
(-0.0032499 -0.000342229 0)
(-0.00332302 -0.000332703 0)
(-0.00338064 -0.000322251 0)
(-0.00342306 -0.000310731 0)
(-0.00344994 -0.00029803 0)
(-0.00346137 -0.000284102 0)
(-0.00345699 -0.000268834 0)
(-0.00343674 -0.000252209 0)
(-0.00340028 -0.00023414 0)
(-0.00334743 -0.000214619 0)
(-0.00327787 -0.000193588 0)
(-0.00319136 -0.000171043 0)
(-0.00308757 -0.000146945 0)
(-0.00296626 -0.000121293 0)
(-0.0028271 -9.40653e-05 0)
(-0.00266983 -6.52624e-05 0)
(-0.00249416 -3.48727e-05 0)
(-0.00229981 -2.90146e-06 0)
(-0.00208654 3.06539e-05 0)
(-0.00185409 6.57827e-05 0)
(-0.00160225 0.000102478 0)
(-0.0013308 0.00014072 0)
(-0.00103957 0.000180491 0)
(-0.0007284 0.00022176 0)
(-0.000397171 0.000264494 0)
(-4.57973e-05 0.000308647 0)
(0.000325772 0.000354166 0)
(0.000717544 0.000400986 0)
(0.00112948 0.000449032 0)
(0.00156149 0.000498215 0)
(0.00201344 0.000548434 0)
(0.00248512 0.000599572 0)
(0.00297629 0.0006515 0)
(0.00348661 0.000704072 0)
(0.00401572 0.000757129 0)
(0.00456315 0.000810496 0)
(0.00512839 0.000863983 0)
(0.00571084 0.000917389 0)
(0.00630984 0.000970498 0)
(0.00692467 0.00102308 0)
(0.00755452 0.00107491 0)
(0.00819851 0.00112574 0)
(0.00885572 0.00117532 0)
(0.00952514 0.0012234 0)
(0.0102057 0.00126972 0)
(0.0108963 0.00131405 0)
(0.0115958 0.00135613 0)
(0.0123029 0.00139572 0)
(0.0130165 0.00143262 0)
(0.0137351 0.00146659 0)
(0.0144576 0.00149746 0)
(0.0151825 0.00152503 0)
(0.0159085 0.00154916 0)
(0.0166344 0.00156972 0)
(0.0173586 0.0015866 0)
(0.01808 0.00159972 0)
(0.0187972 0.00160901 0)
(0.0195089 0.00161447 0)
(0.0202139 0.00161607 0)
(0.0209109 0.00161386 0)
(0.0215988 0.00160788 0)
(0.0222765 0.00159822 0)
(0.0229429 0.00158498 0)
(0.023597 0.00156827 0)
(0.024238 0.00154826 0)
(0.0248649 0.0015251 0)
(0.025477 0.00149898 0)
(0.0260735 0.00147009 0)
(0.0266539 0.00143865 0)
(0.0272175 0.00140486 0)
(0.0277639 0.00136895 0)
(0.0282927 0.00133117 0)
(0.0288036 0.00129172 0)
(0.0292962 0.00125086 0)
(0.0297705 0.00120881 0)
(0.0302262 0.00116579 0)
(0.0306634 0.00112204 0)
(0.031082 0.00107776 0)
(0.0314821 0.00103317 0)
(0.0318639 0.000988457 0)
(0.0322275 0.000943816 0)
(0.0325732 0.000899423 0)
(0.0329012 0.000855442 0)
(0.0332118 0.000812026 0)
(0.0335055 0.000769316 0)
(0.0337825 0.000727439 0)
(0.0340433 0.000686511 0)
(0.0342884 0.000646633 0)
(0.0345183 0.000607895 0)
(0.0347333 0.000570375 0)
(0.0349341 0.00053414 0)
(0.0351211 0.000499243 0)
(0.0352948 0.000465729 0)
(0.0354559 0.000433631 0)
(0.0356048 0.000402973 0)
(0.0357422 0.00037377 0)
(0.0358684 0.000346027 0)
(0.0359842 0.000319745 0)
(0.0360899 0.000294912 0)
(0.0361863 0.000271517 0)
(0.0362737 0.000249533 0)
(0.0363527 0.00022894 0)
(0.0364238 0.000209699 0)
(0.0364875 0.000191785 0)
(0.0365444 0.000175144 0)
(0.0365947 0.000159752 0)
(0.0366391 0.000145545 0)
(0.036678 0.000132488 0)
(0.0367117 0.000120537 0)
(0.0367407 0.0001096 0)
(0.0367655 9.97316e-05 0)
(0.0367861 9.06555e-05 0)
(0.0368034 8.27372e-05 0)
(0.036817 7.51866e-05 0)
(0.0368284 6.91715e-05 0)
(0.0368361 6.2672e-05 0)
(0.0368428 5.86741e-05 0)
(0.0368457 5.25055e-05 0)
(0.0368487 5.0893e-05 0)
(0.036848 4.39423e-05 0)
(0.0368474 4.53292e-05 0)
(0.0368453 3.62156e-05 0)
(0.0368395 4.03803e-05 0)
(0.0368394 2.98912e-05 0)
(-0.00557099 -0.000229842 0)
(-0.00570332 -0.000232553 0)
(-0.0058306 -0.0002347 0)
(-0.005952 -0.000236183 0)
(-0.00606786 -0.000236974 0)
(-0.00617736 -0.000236943 0)
(-0.00628055 -0.000236108 0)
(-0.0063767 -0.000234363 0)
(-0.00646562 -0.000231727 0)
(-0.00654666 -0.000228124 0)
(-0.00661946 -0.000223564 0)
(-0.00668341 -0.000217995 0)
(-0.00673806 -0.000211419 0)
(-0.00678283 -0.000203801 0)
(-0.00681721 -0.000195136 0)
(-0.00684063 -0.000185396 0)
(-0.00685257 -0.000174576 0)
(-0.00685247 -0.000162653 0)
(-0.00683979 -0.000149617 0)
(-0.00681398 -0.00013545 0)
(-0.00677451 -0.000120143 0)
(-0.00672085 -0.00010368 0)
(-0.00665249 -8.60516e-05 0)
(-0.00656891 -6.72466e-05 0)
(-0.00646962 -4.72592e-05 0)
(-0.00635415 -2.60833e-05 0)
(-0.00622202 -3.71935e-06 0)
(-0.00607281 1.98306e-05 0)
(-0.0059061 4.4557e-05 0)
(-0.00572151 7.04462e-05 0)
(-0.00551868 9.74759e-05 0)
(-0.00529731 0.000125617 0)
(-0.00505711 0.000154831 0)
(-0.00479787 0.000185071 0)
(-0.00451939 0.000216278 0)
(-0.00422156 0.000248383 0)
(-0.00390432 0.000281304 0)
(-0.00356765 0.00031495 0)
(-0.00321163 0.000349214 0)
(-0.00283638 0.000383981 0)
(-0.00244212 0.000419121 0)
(-0.00202912 0.000454494 0)
(-0.00159775 0.000489948 0)
(-0.00114846 0.000525325 0)
(-0.000681764 0.000560453 0)
(-0.000198266 0.000595159 0)
(0.000301349 0.00062926 0)
(0.000816318 0.000662573 0)
(0.0013458 0.00069491 0)
(0.00188889 0.000726088 0)
(0.0024446 0.000755924 0)
(0.00301188 0.000784241 0)
(0.00358964 0.000810869 0)
(0.00417671 0.000835649 0)
(0.00477189 0.000858431 0)
(0.00537394 0.000879082 0)
(0.00598159 0.000897482 0)
(0.00659353 0.000913527 0)
(0.00720846 0.000927132 0)
(0.00782505 0.000938232 0)
(0.008442 0.00094678 0)
(0.00905799 0.000952749 0)
(0.00967174 0.000956132 0)
(0.010282 0.000956944 0)
(0.0108875 0.000955215 0)
(0.011487 0.000950998 0)
(0.0120795 0.00094436 0)
(0.0126639 0.000935387 0)
(0.013239 0.000924179 0)
(0.0138039 0.00091085 0)
(0.0143578 0.000895524 0)
(0.0148998 0.000878338 0)
(0.015429 0.000859435 0)
(0.0159449 0.000838967 0)
(0.0164468 0.000817088 0)
(0.0169341 0.000793958 0)
(0.0174064 0.000769737 0)
(0.0178633 0.000744584 0)
(0.0183045 0.00071866 0)
(0.0187297 0.00069212 0)
(0.0191387 0.000665115 0)
(0.0195314 0.000637793 0)
(0.0199079 0.000610293 0)
(0.020268 0.00058275 0)
(0.0206118 0.000555289 0)
(0.0209396 0.000528028 0)
(0.0212514 0.000501076 0)
(0.0215475 0.000474533 0)
(0.0218282 0.000448491 0)
(0.0220937 0.000423032 0)
(0.0223444 0.000398228 0)
(0.0225807 0.000374144 0)
(0.022803 0.000350834 0)
(0.0230118 0.000328346 0)
(0.0232074 0.000306718 0)
(0.0233903 0.00028598 0)
(0.0235611 0.000266156 0)
(0.0237201 0.000247262 0)
(0.023868 0.000229307 0)
(0.0240053 0.000212296 0)
(0.0241324 0.000196227 0)
(0.0242498 0.000181091 0)
(0.0243581 0.000166881 0)
(0.0244578 0.000153573 0)
(0.0245494 0.000141161 0)
(0.0246333 0.000129603 0)
(0.0247101 0.000118901 0)
(0.0247803 0.000108989 0)
(0.0248442 9.98903e-05 0)
(0.0249024 9.15022e-05 0)
(0.0249551 8.3883e-05 0)
(0.0250031 7.68854e-05 0)
(0.0250464 7.06094e-05 0)
(0.0250857 6.48701e-05 0)
(0.025121 5.97763e-05 0)
(0.0251532 5.51891e-05 0)
(0.0251819 5.10596e-05 0)
(0.0252081 4.75977e-05 0)
(0.0252317 4.40806e-05 0)
(0.0252529 4.18947e-05 0)
(0.0252727 3.83758e-05 0)
(0.0252892 3.79018e-05 0)
(0.0253073 3.3435e-05 0)
(0.0253181 3.52408e-05 0)
(0.0253375 2.89808e-05 0)
(0.0253398 3.2627e-05 0)
(0.0253649 2.55581e-05 0)
(-0.0053788 -9.53347e-05 0)
(-0.00549174 -9.86764e-05 0)
(-0.00560572 -0.000101625 0)
(-0.00571999 -0.000104413 0)
(-0.00583462 -0.00010687 0)
(-0.0059489 -0.000109072 0)
(-0.00606273 -0.000110952 0)
(-0.00617548 -0.000112515 0)
(-0.0062869 -0.000113733 0)
(-0.00639639 -0.000114589 0)
(-0.0065036 -0.00011507 0)
(-0.00660797 -0.000115153 0)
(-0.00670907 -0.000114829 0)
(-0.00680636 -0.000114078 0)
(-0.00689937 -0.000112892 0)
(-0.00698753 -0.000111251 0)
(-0.00707036 -0.000109147 0)
(-0.0071473 -0.000106565 0)
(-0.00721781 -0.000103492 0)
(-0.00728135 -9.99153e-05 0)
(-0.00733736 -9.58216e-05 0)
(-0.00738529 -9.11962e-05 0)
(-0.00742457 -8.60264e-05 0)
(-0.00745464 -8.02973e-05 0)
(-0.00747492 -7.39958e-05 0)
(-0.00748485 -6.71079e-05 0)
(-0.00748387 -5.96214e-05 0)
(-0.00747139 -5.15241e-05 0)
(-0.00744688 -4.28067e-05 0)
(-0.00740977 -3.34606e-05 0)
(-0.00735953 -2.3481e-05 0)
(-0.00729563 -1.28657e-05 0)
(-0.00721757 -1.61675e-06 0)
(-0.00712488 1.02596e-05 0)
(-0.00701709 2.27516e-05 0)
(-0.0068938 3.58421e-05 0)
(-0.00675464 4.95074e-05 0)
(-0.00659926 6.37174e-05 0)
(-0.00642739 7.84345e-05 0)
(-0.0062388 9.3614e-05 0)
(-0.00603333 0.000109203 0)
(-0.00581089 0.000125143 0)
(-0.00557144 0.000141365 0)
(-0.00531504 0.000157795 0)
(-0.00504182 0.000174353 0)
(-0.00475199 0.000190951 0)
(-0.00444583 0.000207497 0)
(-0.00412374 0.000223895 0)
(-0.00378618 0.000240045 0)
(-0.0034337 0.000255845 0)
(-0.00306694 0.000271195 0)
(-0.00268661 0.000285993 0)
(-0.00229351 0.000300139 0)
(-0.00188851 0.000313538 0)
(-0.00147255 0.000326099 0)
(-0.00104662 0.000337738 0)
(-0.000611789 0.000348378 0)
(-0.000169152 0.000357948 0)
(0.000280146 0.000366391 0)
(0.000734931 0.000373655 0)
(0.00119401 0.000379703 0)
(0.00165616 0.000384506 0)
(0.00212018 0.000388048 0)
(0.00258486 0.000390323 0)
(0.00304899 0.000391339 0)
(0.0035114 0.000391111 0)
(0.00397095 0.000389667 0)
(0.00442652 0.000387044 0)
(0.00487705 0.000383288 0)
(0.00532153 0.000378453 0)
(0.00575899 0.0003726 0)
(0.00618853 0.000365798 0)
(0.00660932 0.000358119 0)
(0.0070206 0.00034964 0)
(0.00742167 0.000340441 0)
(0.0078119 0.000330605 0)
(0.00819075 0.000320214 0)
(0.00855774 0.000309353 0)
(0.00891247 0.000298102 0)
(0.00925461 0.000286545 0)
(0.00958391 0.000274758 0)
(0.00990016 0.000262817 0)
(0.0102033 0.000250796 0)
(0.0104931 0.00023876 0)
(0.0107698 0.000226775 0)
(0.0110333 0.0002149 0)
(0.0112838 0.000203187 0)
(0.0115214 0.000191686 0)
(0.0117463 0.000180442 0)
(0.0119589 0.000169492 0)
(0.0121592 0.00015887 0)
(0.0123478 0.000148605 0)
(0.0125249 0.000138722 0)
(0.012691 0.000129239 0)
(0.0128463 0.000120172 0)
(0.0129914 0.000111532 0)
(0.0131266 0.000103326 0)
(0.0132524 9.55579e-05 0)
(0.0133692 8.82287e-05 0)
(0.0134776 8.13362e-05 0)
(0.0135778 7.48754e-05 0)
(0.0136704 6.88395e-05 0)
(0.0137559 6.32189e-05 0)
(0.0138346 5.80033e-05 0)
(0.013907 5.31797e-05 0)
(0.0139736 4.87355e-05 0)