/*--------------------------------*- C++ -*----------------------------------*\
| =========                 |                                                 |
| \\      /  F ield         | OpenFOAM: The Open Source CFD Toolbox           |
|  \\    /   O peration     | Version:  4.1                                   |
|   \\  /    A nd           | Web:      www.OpenFOAM.org                      |
|    \\/     M anipulation  |                                                 |
\*---------------------------------------------------------------------------*/
FoamFile
{
    version     2.0;
    format      ascii;
    class       volScalarField;
    location    "32";
    object      p;
}
// * * * * * * * * * * * * * * * * * * * * * * * * * * * * * * * * * * * * * //

dimensions      [1 -1 -2 0 0 0 0];

internalField   nonuniform List<scalar> 
3264
(
0.714361
0.714337
0.714311
0.714282
0.714268
0.71428
0.714332
0.714435
0.714594
0.714808
0.715071
0.715372
0.715697
0.71603
0.716356
0.71666
0.716933
0.717165
0.717353
0.717497
0.717599
0.717665
0.717703
0.717717
0.717715
0.717702
0.717682
0.717658
0.717631
0.717604
0.717577
0.71755
0.717524
0.717499
0.717475
0.717452
0.717429
0.717408
0.717386
0.717365
0.717345
0.717324
0.717304
0.717284
0.717264
0.717245
0.717225
0.717206
0.717187
0.717167
0.717148
0.717129
0.717109
0.71709
0.717071
0.717052
0.717033
0.717014
0.716994
0.716975
0.716956
0.716937
0.716918
0.716899
0.71688
0.71686
0.716841
0.716822
0.716803
0.716784
0.716765
0.716746
0.716726
0.716707
0.716688
0.716669
0.71665
0.716631
0.716612
0.716592
0.716573
0.716554
0.716535
0.716516
0.716497
0.716478
0.716458
0.716439
0.71642
0.716401
0.716382
0.716363
0.716344
0.716324
0.716305
0.716286
0.716267
0.716248
0.716229
0.71621
0.71619
0.716171
0.716152
0.716133
0.716114
0.716095
0.716076
0.716056
0.716037
0.716018
0.715999
0.71598
0.715961
0.715942
0.715922
0.715903
0.715884
0.715865
0.715846
0.715827
0.715808
0.715789
0.715769
0.71575
0.715731
0.715712
0.715693
0.715674
0.715655
0.715635
0.715616
0.715597
0.715578
0.715559
0.71554
0.715521
0.715501
0.715482
0.715463
0.715444
0.715425
0.715406
0.715387
0.715367
0.715348
0.715329
0.71531
0.715291
0.715272
0.715253
0.715233
0.715214
0.715195
0.715176
0.715157
0.715138
0.715119
0.715099
0.71508
0.715061
0.715042
0.715023
0.715004
0.714985
0.714965
0.714946
0.714927
0.714908
0.714889
0.71487
0.714851
0.714831
0.714812
0.714793
0.714774
0.714755
0.714736
0.714717
0.714698
0.714678
0.714659
0.71464
0.714621
0.714602
0.714583
0.714564
0.714544
0.714525
0.714506
0.714487
0.714468
0.714449
0.71443
0.71441
0.714391
0.714372
0.714353
0.714334
0.714315
0.714296
0.714385
0.714356
0.714319
0.714275
0.714244
0.714241
0.714282
0.714375
0.714527
0.714736
0.714997
0.715298
0.715626
0.715965
0.7163
0.716616
0.7169
0.717144
0.717341
0.717491
0.717598
0.717667
0.717705
0.717719
0.717717
0.717703
0.717682
0.717658
0.717631
0.717603
0.717576
0.717549
0.717524
0.717499
0.717475
0.717452
0.717429
0.717407
0.717386
0.717365
0.717344
0.717324
0.717304
0.717284
0.717264
0.717245
0.717225
0.717206
0.717187
0.717167
0.717148
0.717129
0.717109
0.71709
0.717071
0.717052
0.717033
0.717014
0.716994
0.716975
0.716956
0.716937
0.716918
0.716899
0.71688
0.71686
0.716841
0.716822
0.716803
0.716784
0.716765
0.716746
0.716726
0.716707
0.716688
0.716669
0.71665
0.716631
0.716612
0.716592
0.716573
0.716554
0.716535
0.716516
0.716497
0.716478
0.716458
0.716439
0.71642
0.716401
0.716382
0.716363
0.716344
0.716324
0.716305
0.716286
0.716267
0.716248
0.716229
0.71621
0.71619
0.716171
0.716152
0.716133
0.716114
0.716095
0.716076
0.716056
0.716037
0.716018
0.715999
0.71598
0.715961
0.715942
0.715922
0.715903
0.715884
0.715865
0.715846
0.715827
0.715808
0.715789
0.715769
0.71575
0.715731
0.715712
0.715693
0.715674
0.715655
0.715635
0.715616
0.715597
0.715578
0.715559
0.71554
0.715521
0.715501
0.715482
0.715463
0.715444
0.715425
0.715406
0.715387
0.715367
0.715348
0.715329
0.71531
0.715291
0.715272
0.715253
0.715233
0.715214
0.715195
0.715176
0.715157
0.715138
0.715119
0.715099
0.71508
0.715061
0.715042
0.715023
0.715004
0.714985
0.714965
0.714946
0.714927
0.714908
0.714889
0.71487
0.714851
0.714831
0.714812
0.714793
0.714774
0.714755
0.714736
0.714717
0.714698
0.714678
0.714659
0.71464
0.714621
0.714602
0.714583
0.714564
0.714544
0.714525
0.714506
0.714487
0.714468
0.714449
0.71443
0.71441
0.714391
0.714372
0.714353
0.714334
0.714315
0.714296
0.714373
0.714339
0.714289
0.714228
0.71418
0.714161
0.714187
0.714268
0.714409
0.714609
0.714864
0.715162
0.715493
0.715842
0.716191
0.716527
0.716833
0.717098
0.717314
0.717478
0.717593
0.717666
0.717705
0.717718
0.717715
0.717701
0.717679
0.717654
0.717627
0.7176
0.717573
0.717547
0.717522
0.717497
0.717474
0.717451
0.717428
0.717407
0.717385
0.717365
0.717344
0.717324
0.717304
0.717284
0.717264
0.717245
0.717225
0.717206
0.717186
0.717167
0.717148
0.717129
0.717109
0.71709
0.717071
0.717052
0.717033
0.717014
0.716994
0.716975
0.716956
0.716937
0.716918
0.716899
0.71688
0.71686
0.716841
0.716822
0.716803
0.716784
0.716765
0.716746
0.716726
0.716707
0.716688
0.716669
0.71665
0.716631
0.716612
0.716592
0.716573
0.716554
0.716535
0.716516
0.716497
0.716478
0.716458
0.716439
0.71642
0.716401
0.716382
0.716363
0.716344
0.716324
0.716305
0.716286
0.716267
0.716248
0.716229
0.71621
0.71619
0.716171
0.716152
0.716133
0.716114
0.716095
0.716076
0.716056
0.716037
0.716018
0.715999
0.71598
0.715961
0.715942
0.715922
0.715903
0.715884
0.715865
0.715846
0.715827
0.715808
0.715789
0.715769
0.71575
0.715731
0.715712
0.715693
0.715674
0.715655
0.715635
0.715616
0.715597
0.715578
0.715559
0.71554
0.715521
0.715501
0.715482
0.715463
0.715444
0.715425
0.715406
0.715387
0.715367
0.715348
0.715329
0.71531
0.715291
0.715272
0.715253
0.715233
0.715214
0.715195
0.715176
0.715157
0.715138
0.715119
0.715099
0.71508
0.715061
0.715042
0.715023
0.715004
0.714985
0.714965
0.714946
0.714927
0.714908
0.714889
0.71487
0.714851
0.714831
0.714812
0.714793
0.714774
0.714755
0.714736
0.714717
0.714698
0.714678
0.714659
0.71464
0.714621
0.714602
0.714583
0.714564
0.714544
0.714525
0.714506
0.714487
0.714468
0.714449
0.71443
0.71441
0.714391
0.714372
0.714353
0.714334
0.714315
0.714296
0.71434
0.7143
0.714233
0.714155
0.714089
0.714053
0.714063
0.71413
0.714256
0.714443
0.714686
0.714978
0.715308
0.715663
0.716028
0.716387
0.716723
0.717019
0.717265
0.717452
0.717581
0.717661
0.717703
0.717716
0.717711
0.717695
0.717673
0.717648
0.717621
0.717595
0.717569
0.717543
0.717518
0.717494
0.717471
0.717449
0.717427
0.717405
0.717385
0.717364
0.717344
0.717323
0.717304
0.717284
0.717264
0.717245
0.717225
0.717206
0.717186
0.717167
0.717148
0.717129
0.717109
0.71709
0.717071
0.717052
0.717033
0.717014
0.716994
0.716975
0.716956
0.716937
0.716918
0.716899
0.71688
0.71686
0.716841
0.716822
0.716803
0.716784
0.716765
0.716746
0.716726
0.716707
0.716688
0.716669
0.71665
0.716631
0.716612
0.716592
0.716573
0.716554
0.716535
0.716516
0.716497
0.716478
0.716458
0.716439
0.71642
0.716401
0.716382
0.716363
0.716344
0.716324
0.716305
0.716286
0.716267
0.716248
0.716229
0.71621
0.71619
0.716171
0.716152
0.716133
0.716114
0.716095
0.716076
0.716056
0.716037
0.716018
0.715999
0.71598
0.715961
0.715942
0.715922
0.715903
0.715884
0.715865
0.715846
0.715827
0.715808
0.715789
0.715769
0.71575
0.715731
0.715712
0.715693
0.715674
0.715655
0.715635
0.715616
0.715597
0.715578
0.715559
0.71554
0.715521
0.715501
0.715482
0.715463
0.715444
0.715425
0.715406
0.715387
0.715367
0.715348
0.715329
0.71531
0.715291
0.715272
0.715253
0.715233
0.715214
0.715195
0.715176
0.715157
0.715138
0.715119
0.715099
0.71508
0.715061
0.715042
0.715023
0.715004
0.714985
0.714965
0.714946
0.714927
0.714908
0.714889
0.71487
0.714851
0.714831
0.714812
0.714793
0.714774
0.714755
0.714736
0.714717
0.714698
0.714678
0.714659
0.71464
0.714621
0.714602
0.714583
0.714564
0.714544
0.714525
0.714506
0.714487
0.714468
0.714449
0.71443
0.71441
0.714391
0.714372
0.714353
0.714334
0.714315
0.714296
0.714304
0.714262
0.714182
0.714089
0.714007
0.713956
0.713952
0.714003
0.714114
0.714287
0.714517
0.714799
0.715123
0.71548
0.715854
0.716232
0.716595
0.716925
0.717204
0.717419
0.717568
0.717658
0.717703
0.717715
0.717708
0.71769
0.717667
0.717641
0.717614
0.717588
0.717563
0.717538
0.717514
0.717491
0.717468
0.717446
0.717425
0.717404
0.717383
0.717363
0.717343
0.717323
0.717303
0.717283
0.717264
0.717244
0.717225
0.717206
0.717186
0.717167
0.717148
0.717129
0.717109
0.71709
0.717071
0.717052
0.717033
0.717014
0.716994
0.716975
0.716956
0.716937
0.716918
0.716899
0.71688
0.71686
0.716841
0.716822
0.716803
0.716784
0.716765
0.716746
0.716726
0.716707
0.716688
0.716669
0.71665
0.716631
0.716612
0.716592
0.716573
0.716554
0.716535
0.716516
0.716497
0.716478
0.716458
0.716439
0.71642
0.716401
0.716382
0.716363
0.716344
0.716324
0.716305
0.716286
0.716267
0.716248
0.716229
0.71621
0.71619
0.716171
0.716152
0.716133
0.716114
0.716095
0.716076
0.716056
0.716037
0.716018
0.715999
0.71598
0.715961
0.715942
0.715922
0.715903
0.715884
0.715865
0.715846
0.715827
0.715808
0.715789
0.715769
0.71575
0.715731
0.715712
0.715693
0.715674
0.715655
0.715635
0.715616
0.715597
0.715578
0.715559
0.71554
0.715521
0.715501
0.715482
0.715463
0.715444
0.715425
0.715406
0.715387
0.715367
0.715348
0.715329
0.71531
0.715291
0.715272
0.715253
0.715233
0.715214
0.715195
0.715176
0.715157
0.715138
0.715119
0.715099
0.71508
0.715061
0.715042
0.715023
0.715004
0.714985
0.714965
0.714946
0.714927
0.714908
0.714889
0.71487
0.714851
0.714831
0.714812
0.714793
0.714774
0.714755
0.714736
0.714717
0.714698
0.714678
0.714659
0.71464
0.714621
0.714602
0.714583
0.714564
0.714544
0.714525
0.714506
0.714487
0.714468
0.714449
0.71443
0.71441
0.714391
0.714372
0.714353
0.714334
0.714315
0.714296
0.714262
0.714239
0.714149
0.714048
0.713952
0.713888
0.71387
0.713908
0.714006
0.714166
0.714384
0.714655
0.714972
0.715325
0.715702
0.716091
0.716475
0.716832
0.717142
0.717386
0.717556
0.717656
0.717703
0.717714
0.717704
0.717684
0.717658
0.717632
0.717605
0.71758
0.717555
0.717531
0.717509
0.717486
0.717465
0.717443
0.717423
0.717402
0.717382
0.717362
0.717342
0.717322
0.717302
0.717283
0.717263
0.717244
0.717225
0.717205
0.717186
0.717167
0.717148
0.717129
0.717109
0.71709
0.717071
0.717052
0.717033
0.717014
0.716994
0.716975
0.716956
0.716937
0.716918
0.716899
0.71688
0.71686
0.716841
0.716822
0.716803
0.716784
0.716765
0.716746
0.716726
0.716707
0.716688
0.716669
0.71665
0.716631
0.716612
0.716592
0.716573
0.716554
0.716535
0.716516
0.716497
0.716478
0.716458
0.716439
0.71642
0.716401
0.716382
0.716363
0.716344
0.716324
0.716305
0.716286
0.716267
0.716248
0.716229
0.71621
0.71619
0.716171
0.716152
0.716133
0.716114
0.716095
0.716076
0.716056
0.716037
0.716018
0.715999
0.71598
0.715961
0.715942
0.715922
0.715903
0.715884
0.715865
0.715846
0.715827
0.715808
0.715789
0.715769
0.71575
0.715731
0.715712
0.715693
0.715674
0.715655
0.715635
0.715616
0.715597
0.715578
0.715559
0.71554
0.715521
0.715501
0.715482
0.715463
0.715444
0.715425
0.715406
0.715387
0.715367
0.715348
0.715329
0.71531
0.715291
0.715272
0.715253
0.715233
0.715214
0.715195
0.715176
0.715157
0.715138
0.715119
0.715099
0.71508
0.715061
0.715042
0.715023
0.715004
0.714985
0.714965
0.714946
0.714927
0.714908
0.714889
0.71487
0.714851
0.714831
0.714812
0.714793
0.714774
0.714755
0.714736
0.714717
0.714698
0.714678
0.714659
0.71464
0.714621
0.714602
0.714583
0.714564
0.714544
0.714525
0.714506
0.714487
0.714468
0.714449
0.71443
0.71441
0.714391
0.714372
0.714353
0.714334
0.714315
0.714296
0.714302
0.714289
0.714184
0.714062
0.713946
0.713866
0.713834
0.71386
0.713947
0.714097
0.714304
0.714566
0.714874
0.715221
0.715596
0.715989
0.716383
0.716758
0.71709
0.717356
0.717543
0.717653
0.717702
0.717711
0.717697
0.717674
0.717647
0.717621
0.717595
0.71757
0.717547
0.717524
0.717502
0.717481
0.71746
0.71744
0.71742
0.7174
0.71738
0.71736
0.717341
0.717321
0.717302
0.717282
0.717263
0.717244
0.717224
0.717205
0.717186
0.717167
0.717148
0.717128
0.717109
0.71709
0.717071
0.717052
0.717033
0.717014
0.716994
0.716975
0.716956
0.716937
0.716918
0.716899
0.71688
0.71686
0.716841
0.716822
0.716803
0.716784
0.716765
0.716746
0.716726
0.716707
0.716688
0.716669
0.71665
0.716631
0.716612
0.716592
0.716573
0.716554
0.716535
0.716516
0.716497
0.716478
0.716458
0.716439
0.71642
0.716401
0.716382
0.716363
0.716344
0.716324
0.716305
0.716286
0.716267
0.716248
0.716229
0.71621
0.71619
0.716171
0.716152
0.716133
0.716114
0.716095
0.716076
0.716056
0.716037
0.716018
0.715999
0.71598
0.715961
0.715942
0.715922
0.715903
0.715884
0.715865
0.715846
0.715827
0.715808
0.715789
0.715769
0.71575
0.715731
0.715712
0.715693
0.715674
0.715655
0.715635
0.715616
0.715597
0.715578
0.715559
0.71554
0.715521
0.715501
0.715482
0.715463
0.715444
0.715425
0.715406
0.715387
0.715367
0.715348
0.715329
0.71531
0.715291
0.715272
0.715253
0.715233
0.715214
0.715195
0.715176
0.715157
0.715138
0.715119
0.715099
0.71508
0.715061
0.715042
0.715023
0.715004
0.714985
0.714965
0.714946
0.714927
0.714908
0.714889
0.71487
0.714851
0.714831
0.714812
0.714793
0.714774
0.714755
0.714736
0.714717
0.714698
0.714678
0.714659
0.71464
0.714621
0.714602
0.714583
0.714564
0.714544
0.714525
0.714506
0.714487
0.714468
0.714449
0.71443
0.71441
0.714391
0.714372
0.714353
0.714334
0.714315
0.714296
0.714208
0.714339
0.714236
0.714114
0.713984
0.713891
0.713849
0.713867
0.713947
0.714089
0.714289
0.714542
0.714841
0.715179
0.715547
0.715934
0.716327
0.716706
0.717046
0.717324
0.717522
0.717639
0.71769
0.717697
0.717682
0.717658
0.717631
0.717606
0.717581
0.717559
0.717537
0.717516
0.717496
0.717476
0.717456
0.717436
0.717417
0.717397
0.717378
0.717359
0.717339
0.71732
0.717301
0.717282
0.717263
0.717243
0.717224
0.717205
0.717186
0.717167
0.717148
0.717128
0.717109
0.71709
0.717071
0.717052
0.717033
0.717014
0.716994
0.716975
0.716956
0.716937
0.716918
0.716899
0.71688
0.71686
0.716841
0.716822
0.716803
0.716784
0.716765
0.716746
0.716726
0.716707
0.716688
0.716669
0.71665
0.716631
0.716612
0.716592
0.716573
0.716554
0.716535
0.716516
0.716497
0.716478
0.716458
0.716439
0.71642
0.716401
0.716382
0.716363
0.716344
0.716324
0.716305
0.716286
0.716267
0.716248
0.716229
0.71621
0.71619
0.716171
0.716152
0.716133
0.716114
0.716095
0.716076
0.716056
0.716037
0.716018
0.715999
0.71598
0.715961
0.715942
0.715922
0.715903
0.715884
0.715865
0.715846
0.715827
0.715808
0.715789
0.715769
0.71575
0.715731
0.715712
0.715693
0.715674
0.715655
0.715635
0.715616
0.715597
0.715578
0.715559
0.71554
0.715521
0.715501
0.715482
0.715463
0.715444
0.715425
0.715406
0.715387
0.715367
0.715348
0.715329
0.71531
0.715291
0.715272
0.715253
0.715233
0.715214
0.715195
0.715176
0.715157
0.715138
0.715119
0.715099
0.71508
0.715061
0.715042
0.715023
0.715004
0.714985
0.714965
0.714946
0.714927
0.714908
0.714889
0.71487
0.714851
0.714831
0.714812
0.714793
0.714774
0.714755
0.714736
0.714717
0.714698
0.714678
0.714659
0.71464
0.714621
0.714602
0.714583
0.714564
0.714544
0.714525
0.714506
0.714487
0.714468
0.714449
0.71443
0.71441
0.714391
0.714372
0.714353
0.714334
0.714315
0.714296
0.715094
0.715034
0.714967
0.714893
0.714812
0.714723
0.714624
0.714484
0.715107
0.715056
0.714988
0.714912
0.714831
0.714741
0.714634
0.714515
0.715119
0.715077
0.715015
0.714944
0.714869
0.714789
0.714708
0.714624
0.715139
0.715104
0.71505
0.714987
0.71492
0.714852
0.714783
0.714718
0.715162
0.715131
0.715083
0.715028
0.714971
0.714915
0.714863
0.714817
0.715187
0.715157
0.715113
0.715064
0.715015
0.714969
0.714929
0.714896
0.715211
0.715178
0.715133
0.715087
0.715044
0.715004
0.714971
0.714946
0.715225
0.715182
0.715138
0.715094
0.715054
0.715018
0.714988
0.714965
0.714406
0.714397
0.714296
0.714165
0.714041
0.713952
0.713913
0.713933
0.714013
0.714153
0.714347
0.714592
0.71488
0.715204
0.715557
0.715928
0.716305
0.71667
0.717
0.717273
0.717472
0.717594
0.717651
0.717664
0.717653
0.717632
0.717609
0.717586
0.717565
0.717545
0.717526
0.717507
0.717488
0.71747
0.717451
0.717433
0.717414
0.717395
0.717376
0.717357
0.717338
0.717319
0.7173
0.717281
0.717262
0.717243
0.717224
0.717205
0.717186
0.717167
0.717147
0.717128
0.717109
0.71709
0.717071
0.717052
0.717033
0.717013
0.716994
0.716975
0.716956
0.716937
0.716918
0.716899
0.71688
0.71686
0.716841
0.716822
0.716803
0.716784
0.716765
0.716746
0.716726
0.716707
0.716688
0.716669
0.71665
0.716631
0.716612
0.716592
0.716573
0.716554
0.716535
0.716516
0.716497
0.716478
0.716458
0.716439
0.71642
0.716401
0.716382
0.716363
0.716344
0.716324
0.716305
0.716286
0.716267
0.716248
0.716229
0.71621
0.71619
0.716171
0.716152
0.716133
0.716114
0.716095
0.716076
0.716056
0.716037
0.716018
0.715999
0.71598
0.715961
0.715942
0.715922
0.715903
0.715884
0.715865
0.715846
0.715827
0.715808
0.715789
0.715769
0.71575
0.715731
0.715712
0.715693
0.715674
0.715655
0.715635
0.715616
0.715597
0.715578
0.715559
0.71554
0.715521
0.715501
0.715482
0.715463
0.715444
0.715425
0.715406
0.715387
0.715367
0.715348
0.715329
0.71531
0.715291
0.715272
0.715253
0.715233
0.715214
0.715195
0.715176
0.715157
0.715138
0.715119
0.715099
0.71508
0.715061
0.715042
0.715023
0.715004
0.714985
0.714965
0.714946
0.714927
0.714908
0.714889
0.71487
0.714851
0.714831
0.714812
0.714793
0.714774
0.714755
0.714736
0.714717
0.714698
0.714678
0.714659
0.71464
0.714621
0.714602
0.714583
0.714564
0.714544
0.714525
0.714506
0.714487
0.714468
0.714449
0.71443
0.71441
0.714391
0.714372
0.714353
0.714334
0.714315
0.714296
0.714414
0.71439
0.714328
0.714239
0.71415
0.714088
0.714068
0.714098
0.714182
0.714318
0.714503
0.714733
0.715001
0.7153
0.715625
0.715964
0.716306
0.716636
0.716934
0.717185
0.717375
0.717502
0.717571
0.717599
0.717602
0.717592
0.717578
0.717562
0.717546
0.71753
0.717514
0.717498
0.717481
0.717464
0.717447
0.717429
0.717411
0.717393
0.717374
0.717356
0.717337
0.717318
0.717299
0.717281
0.717262
0.717243
0.717224
0.717205
0.717185
0.717166
0.717147
0.717128
0.717109
0.71709
0.717071
0.717052
0.717033
0.717013
0.716994
0.716975
0.716956
0.716937
0.716918
0.716899
0.71688
0.71686
0.716841
0.716822
0.716803
0.716784
0.716765
0.716746
0.716726
0.716707
0.716688
0.716669
0.71665
0.716631
0.716612
0.716592
0.716573
0.716554
0.716535
0.716516
0.716497
0.716478
0.716458
0.716439
0.71642
0.716401
0.716382
0.716363
0.716344
0.716324
0.716305
0.716286
0.716267
0.716248
0.716229
0.71621
0.71619
0.716171
0.716152
0.716133
0.716114
0.716095
0.716076
0.716056
0.716037
0.716018
0.715999
0.71598
0.715961
0.715942
0.715922
0.715903
0.715884
0.715865
0.715846
0.715827
0.715808
0.715789
0.715769
0.71575
0.715731
0.715712
0.715693
0.715674
0.715655
0.715635
0.715616
0.715597
0.715578
0.715559
0.71554
0.715521
0.715501
0.715482
0.715463
0.715444
0.715425
0.715406
0.715387
0.715367
0.715348
0.715329
0.71531
0.715291
0.715272
0.715253
0.715233
0.715214
0.715195
0.715176
0.715157
0.715138
0.715119
0.715099
0.71508
0.715061
0.715042
0.715023
0.715004
0.714985
0.714965
0.714946
0.714927
0.714908
0.714889
0.71487
0.714851
0.714831
0.714812
0.714793
0.714774
0.714755
0.714736
0.714717
0.714698
0.714678
0.714659
0.71464
0.714621
0.714602
0.714583
0.714564
0.714544
0.714525
0.714506
0.714487
0.714468
0.714449
0.71443
0.71441
0.714391
0.714372
0.714353
0.714334
0.714315
0.714296
0.714554
0.714502
0.714449
0.714391
0.714339
0.714307
0.714309
0.714352
0.714438
0.714567
0.714736
0.714943
0.71518
0.715443
0.715724
0.716014
0.716303
0.71658
0.716833
0.717053
0.717233
0.717368
0.717458
0.71751
0.717535
0.717543
0.717542
0.717536
0.717527
0.717515
0.717503
0.717489
0.717474
0.717458
0.717442
0.717425
0.717408
0.71739
0.717372
0.717354
0.717336
0.717317
0.717299
0.71728
0.717261
0.717242
0.717223
0.717204
0.717185
0.717166
0.717147
0.717128
0.717109
0.71709
0.717071
0.717052
0.717033
0.717013
0.716994
0.716975
0.716956
0.716937
0.716918
0.716899
0.71688
0.71686
0.716841
0.716822
0.716803
0.716784
0.716765
0.716746
0.716726
0.716707
0.716688
0.716669
0.71665
0.716631
0.716612
0.716592
0.716573
0.716554
0.716535
0.716516
0.716497
0.716478
0.716458
0.716439
0.71642
0.716401
0.716382
0.716363
0.716344
0.716324
0.716305
0.716286
0.716267
0.716248
0.716229
0.71621
0.71619
0.716171
0.716152
0.716133
0.716114
0.716095
0.716076
0.716056
0.716037
0.716018
0.715999
0.71598
0.715961
0.715942
0.715922
0.715903
0.715884
0.715865
0.715846
0.715827
0.715808
0.715789
0.715769
0.71575
0.715731
0.715712
0.715693
0.715674
0.715655
0.715635
0.715616
0.715597
0.715578
0.715559
0.71554
0.715521
0.715501
0.715482
0.715463
0.715444
0.715425
0.715406
0.715387
0.715367
0.715348
0.715329
0.71531
0.715291
0.715272
0.715253
0.715233
0.715214
0.715195
0.715176
0.715157
0.715138
0.715119
0.715099
0.71508
0.715061
0.715042
0.715023
0.715004
0.714985
0.714965
0.714946
0.714927
0.714908
0.714889
0.71487
0.714851
0.714831
0.714812
0.714793
0.714774
0.714755
0.714736
0.714717
0.714698
0.714678
0.714659
0.71464
0.714621
0.714602
0.714583
0.714564
0.714544
0.714525
0.714506
0.714487
0.714468
0.714449
0.71443
0.71441
0.714391
0.714372
0.714353
0.714334
0.714315
0.714296
0.714662
0.714621
0.714587
0.714558
0.71454
0.714542
0.71457
0.714628
0.714719
0.714842
0.714994
0.715171
0.71537
0.715585
0.715811
0.71604
0.716268
0.71649
0.716704
0.716903
0.71708
0.717228
0.71734
0.717417
0.717465
0.717493
0.717506
0.71751
0.717508
0.717501
0.717492
0.717481
0.717468
0.717454
0.717438
0.717422
0.717406
0.717388
0.717371
0.717353
0.717335
0.717317
0.717298
0.71728
0.717261
0.717242
0.717223
0.717204
0.717185
0.717166
0.717147
0.717128
0.717109
0.71709
0.717071
0.717052
0.717033
0.717013
0.716994
0.716975
0.716956
0.716937
0.716918
0.716899
0.71688
0.71686
0.716841
0.716822
0.716803
0.716784
0.716765
0.716746
0.716726
0.716707
0.716688
0.716669
0.71665
0.716631
0.716612
0.716592
0.716573
0.716554
0.716535
0.716516
0.716497
0.716478
0.716458
0.716439
0.71642
0.716401
0.716382
0.716363
0.716344
0.716324
0.716305
0.716286
0.716267
0.716248
0.716229
0.71621
0.71619
0.716171
0.716152
0.716133
0.716114
0.716095
0.716076
0.716056
0.716037
0.716018
0.715999
0.71598
0.715961
0.715942
0.715922
0.715903
0.715884
0.715865
0.715846
0.715827
0.715808
0.715789
0.715769
0.71575
0.715731
0.715712
0.715693
0.715674
0.715655
0.715635
0.715616
0.715597
0.715578
0.715559
0.71554
0.715521
0.715501
0.715482
0.715463
0.715444
0.715425
0.715406
0.715387
0.715367
0.715348
0.715329
0.71531
0.715291
0.715272
0.715253
0.715233
0.715214
0.715195
0.715176
0.715157
0.715138
0.715119
0.715099
0.71508
0.715061
0.715042
0.715023
0.715004
0.714985
0.714965
0.714946
0.714927
0.714908
0.714889
0.71487
0.714851
0.714831
0.714812
0.714793
0.714774
0.714755
0.714736
0.714717
0.714698
0.714678
0.714659
0.71464
0.714621
0.714602
0.714583
0.714564
0.714544
0.714525
0.714506
0.714487
0.714468
0.714449
0.71443
0.71441
0.714391
0.714372
0.714353
0.714334
0.714315
0.714296
0.71478
0.714755
0.71474
0.714737
0.714747
0.714773
0.71482
0.714887
0.714975
0.715083
0.71521
0.715352
0.715508
0.715672
0.715841
0.716014
0.716193
0.71638
0.716576
0.716775
0.716964
0.717127
0.717256
0.71735
0.717414
0.717455
0.717478
0.717489
0.717493
0.71749
0.717484
0.717475
0.717463
0.71745
0.717435
0.71742
0.717404
0.717387
0.71737
0.717352
0.717334
0.717316
0.717298
0.717279
0.717261
0.717242
0.717223
0.717204
0.717185
0.717166
0.717147
0.717128
0.717109
0.71709
0.717071
0.717052
0.717033
0.717013
0.716994
0.716975
0.716956
0.716937
0.716918
0.716899
0.71688
0.71686
0.716841
0.716822
0.716803
0.716784
0.716765
0.716746
0.716726
0.716707
0.716688
0.716669
0.71665
0.716631
0.716612
0.716592
0.716573
0.716554
0.716535
0.716516
0.716497
0.716478
0.716458
0.716439
0.71642
0.716401
0.716382
0.716363
0.716344
0.716324
0.716305
0.716286
0.716267
0.716248
0.716229
0.71621
0.71619
0.716171
0.716152
0.716133
0.716114
0.716095
0.716076
0.716056
0.716037
0.716018
0.715999
0.71598
0.715961
0.715942
0.715922
0.715903
0.715884
0.715865
0.715846
0.715827
0.715808
0.715789
0.715769
0.71575
0.715731
0.715712
0.715693
0.715674
0.715655
0.715635
0.715616
0.715597
0.715578
0.715559
0.71554
0.715521
0.715501
0.715482
0.715463
0.715444
0.715425
0.715406
0.715387
0.715367
0.715348
0.715329
0.71531
0.715291
0.715272
0.715253
0.715233
0.715214
0.715195
0.715176
0.715157
0.715138
0.715119
0.715099
0.71508
0.715061
0.715042
0.715023
0.715004
0.714985
0.714965
0.714946
0.714927
0.714908
0.714889
0.71487
0.714851
0.714831
0.714812
0.714793
0.714774
0.714755
0.714736
0.714717
0.714698
0.714678
0.714659
0.71464
0.714621
0.714602
0.714583
0.714564
0.714544
0.714525
0.714506
0.714487
0.714468
0.714449
0.71443
0.71441
0.714391
0.714372
0.714353
0.714334
0.714315
0.714296
0.714872
0.71486
0.71486
0.714873
0.714899
0.71494
0.714996
0.715066
0.715148
0.715242
0.715343
0.715448
0.715556
0.71567
0.715798
0.715947
0.71612
0.716314
0.716518
0.716722
0.716911
0.717076
0.717209
0.71731
0.717382
0.717429
0.717459
0.717475
0.717482
0.717483
0.717478
0.71747
0.717459
0.717447
0.717433
0.717418
0.717402
0.717386
0.717369
0.717352
0.717334
0.717316
0.717297
0.717279
0.71726
0.717242
0.717223
0.717204
0.717185
0.717166
0.717147
0.717128
0.717109
0.71709
0.717071
0.717052
0.717033
0.717013
0.716994
0.716975
0.716956
0.716937
0.716918
0.716899
0.71688
0.71686
0.716841
0.716822
0.716803
0.716784
0.716765
0.716746
0.716726
0.716707
0.716688
0.716669
0.71665
0.716631
0.716612
0.716592
0.716573
0.716554
0.716535
0.716516
0.716497
0.716478
0.716458
0.716439
0.71642
0.716401
0.716382
0.716363
0.716344
0.716324
0.716305
0.716286
0.716267
0.716248
0.716229
0.71621
0.71619
0.716171
0.716152
0.716133
0.716114
0.716095
0.716076
0.716056
0.716037
0.716018
0.715999
0.71598
0.715961
0.715942
0.715922
0.715903
0.715884
0.715865
0.715846
0.715827
0.715808
0.715789
0.715769
0.71575
0.715731
0.715712
0.715693
0.715674
0.715655
0.715635
0.715616
0.715597
0.715578
0.715559
0.71554
0.715521
0.715501
0.715482
0.715463
0.715444
0.715425
0.715406
0.715387
0.715367
0.715348
0.715329
0.71531
0.715291
0.715272
0.715253
0.715233
0.715214
0.715195
0.715176
0.715157
0.715138
0.715119
0.715099
0.71508
0.715061
0.715042
0.715023
0.715004
0.714985
0.714965
0.714946
0.714927
0.714908
0.714889
0.71487
0.714851
0.714831
0.714812
0.714793
0.714774
0.714755
0.714736
0.714717
0.714698
0.714678
0.714659
0.71464
0.714621
0.714602
0.714583
0.714564
0.714544
0.714525
0.714506
0.714487
0.714468
0.714449
0.71443
0.71441
0.714391
0.714372
0.714353
0.714334
0.714315
0.714296
0.714932
0.714929
0.714939
0.714963
0.714999
0.715048
0.715104
0.715163
0.715219
0.715274
0.715336
0.715414
0.715515
0.715639
0.715785
0.715948
0.716126
0.716317
0.716514
0.71671
0.716893
0.717054
0.717186
0.717289
0.717363
0.717415
0.717448
0.717467
0.717476
0.717478
0.717475
0.717467
0.717457
0.717446
0.717432
0.717417
0.717402
0.717385
0.717369
0.717351
0.717333
0.717315
0.717297
0.717279
0.71726
0.717242
0.717223
0.717204
0.717185
0.717166
0.717147
0.717128
0.717109
0.71709
0.717071
0.717052
0.717033
0.717013
0.716994
0.716975
0.716956
0.716937
0.716918
0.716899
0.71688
0.71686
0.716841
0.716822
0.716803
0.716784
0.716765
0.716746
0.716726
0.716707
0.716688
0.716669
0.71665
0.716631
0.716612
0.716592
0.716573
0.716554
0.716535
0.716516
0.716497
0.716478
0.716458
0.716439
0.71642
0.716401
0.716382
0.716363
0.716344
0.716324
0.716305
0.716286
0.716267
0.716248
0.716229
0.71621
0.71619
0.716171
0.716152
0.716133
0.716114
0.716095
0.716076
0.716056
0.716037
0.716018
0.715999
0.71598
0.715961
0.715942
0.715922
0.715903
0.715884
0.715865
0.715846
0.715827
0.715808
0.715789
0.715769
0.71575
0.715731
0.715712
0.715693
0.715674
0.715655
0.715635
0.715616
0.715597
0.715578
0.715559
0.71554
0.715521
0.715501
0.715482
0.715463
0.715444
0.715425
0.715406
0.715387
0.715367
0.715348
0.715329
0.71531
0.715291
0.715272
0.715253
0.715233
0.715214
0.715195
0.715176
0.715157
0.715138
0.715119
0.715099
0.71508
0.715061
0.715042
0.715023
0.715004
0.714985
0.714965
0.714946
0.714927
0.714908
0.714889
0.71487
0.714851
0.714831
0.714812
0.714793
0.714774
0.714755
0.714736
0.714717
0.714698
0.714678
0.714659
0.71464
0.714621
0.714602
0.714583
0.714564
0.714544
0.714525
0.714506
0.714487
0.714468
0.714449
0.71443
0.71441
0.714391
0.714372
0.714353
0.714334
0.714315
0.714296
0.714951
0.714948
0.714956
0.714973
0.715
0.715034
0.715075
0.715124
0.715182
0.715251
0.715332
0.715427
0.715536
0.71566
0.715801
0.715961
0.716137
0.716326
0.716521
0.716713
0.716892
0.717048
0.717178
0.717279
0.717354
0.717406
0.717441
0.717462
0.717472
0.717475
0.717472
0.717466
0.717456
0.717445
0.717431
0.717417
0.717401
0.717385
0.717368
0.717351
0.717333
0.717315
0.717297
0.717279
0.71726
0.717242
0.717223
0.717204
0.717185
0.717166
0.717147
0.717128
0.717109
0.71709
0.717071
0.717052
0.717033
0.717013
0.716994
0.716975
0.716956
0.716937
0.716918
0.716899
0.71688
0.71686
0.716841
0.716822
0.716803
0.716784
0.716765
0.716746
0.716726
0.716707
0.716688
0.716669
0.71665
0.716631
0.716612
0.716592
0.716573
0.716554
0.716535
0.716516
0.716497
0.716478
0.716458
0.716439
0.71642
0.716401
0.716382
0.716363
0.716344
0.716324
0.716305
0.716286
0.716267
0.716248
0.716229
0.71621
0.71619
0.716171
0.716152
0.716133
0.716114
0.716095
0.716076
0.716056
0.716037
0.716018
0.715999
0.71598
0.715961
0.715942
0.715922
0.715903
0.715884
0.715865
0.715846
0.715827
0.715808
0.715789
0.715769
0.71575
0.715731
0.715712
0.715693
0.715674
0.715655
0.715635
0.715616
0.715597
0.715578
0.715559
0.71554
0.715521
0.715501
0.715482
0.715463
0.715444
0.715425
0.715406
0.715387
0.715367
0.715348
0.715329
0.71531
0.715291
0.715272
0.715253
0.715233
0.715214
0.715195
0.715176
0.715157
0.715138
0.715119
0.715099
0.71508
0.715061
0.715042
0.715023
0.715004
0.714985
0.714965
0.714946
0.714927
0.714908
0.714889
0.71487
0.714851
0.714831
0.714812
0.714793
0.714774
0.714755
0.714736
0.714717
0.714698
0.714678
0.714659
0.71464
0.714621
0.714602
0.714583
0.714564
0.714544
0.714525
0.714506
0.714487
0.714468
0.714449
0.71443
0.71441
0.714391
0.714372
0.714353
0.714334
0.714315
0.714296
)
;

boundaryField
{
    inlet
    {
        type            zeroGradient;
    }
    outlet
    {