/*--------------------------------*- C++ -*----------------------------------*\
| =========                 |                                                 |
| \\      /  F ield         | OpenFOAM: The Open Source CFD Toolbox           |
|  \\    /   O peration     | Version:  4.1                                   |
|   \\  /    A nd           | Web:      www.OpenFOAM.org                      |
|    \\/     M anipulation  |                                                 |
\*---------------------------------------------------------------------------*/
FoamFile
{
    version     2.0;
    format      ascii;
    class       volVectorField;
    location    "825";
    object      U;
}
// * * * * * * * * * * * * * * * * * * * * * * * * * * * * * * * * * * * * * //

dimensions      [0 1 -1 0 0 0 0];

internalField   nonuniform List<vector> 
3264
(
(-2.66458e-06 -4.77295e-07 0)
(-0.000133197 3.05678e-05 0)
(-0.000389823 4.86688e-05 0)
(-0.000677079 5.10067e-05 0)
(-0.000978991 5.27297e-05 0)
(-0.00128492 5.21311e-05 0)
(-0.00158953 5.34242e-05 0)
(-0.00189416 5.40571e-05 0)
(-0.00219419 5.51463e-05 0)
(-0.00249033 5.57524e-05 0)
(-0.00277996 5.62847e-05 0)
(-0.00306326 5.64978e-05 0)
(-0.00333913 5.6553e-05 0)
(-0.00360761 5.64111e-05 0)
(-0.00386832 5.61436e-05 0)
(-0.00412133 5.57613e-05 0)
(-0.00436656 5.5301e-05 0)
(-0.00460411 5.47792e-05 0)
(-0.00483403 5.42161e-05 0)
(-0.00505642 5.36242e-05 0)
(-0.00527134 5.30145e-05 0)
(-0.00547888 5.23943e-05 0)
(-0.0056791 5.17687e-05 0)
(-0.00587203 5.11402e-05 0)
(-0.00605767 5.05093e-05 0)
(-0.00623601 4.98743e-05 0)
(-0.00640697 4.92313e-05 0)
(-0.00657046 4.85744e-05 0)
(-0.00672631 4.78952e-05 0)
(-0.00687433 4.71831e-05 0)
(-0.00701423 4.64252e-05 0)
(-0.00714571 4.56062e-05 0)
(-0.00726836 4.47082e-05 0)
(-0.00738174 4.37114e-05 0)
(-0.00748532 4.25938e-05 0)
(-0.00757852 4.13316e-05 0)
(-0.00766068 3.98995e-05 0)
(-0.00773108 3.82716e-05 0)
(-0.00778896 3.64216e-05 0)
(-0.0078335 3.43237e-05 0)
(-0.00786383 3.19533e-05 0)
(-0.00787907 2.92879e-05 0)
(-0.00787831 2.63082e-05 0)
(-0.00786065 2.29987e-05 0)
(-0.0078252 1.93487e-05 0)
(-0.00777109 1.53531e-05 0)
(-0.00769751 1.10131e-05 0)
(-0.00760373 6.33683e-06 0)
(-0.00748909 1.33946e-06 0)
(-0.00735303 -3.95629e-06 0)
(-0.00719513 -9.5203e-06 0)
(-0.00701508 -1.53153e-05 0)
(-0.00681276 -2.12971e-05 0)
(-0.00658816 -2.74156e-05 0)
(-0.00634149 -3.3615e-05 0)
(-0.00607312 -3.98355e-05 0)
(-0.00578359 -4.60139e-05 0)
(-0.00547363 -5.20847e-05 0)
(-0.00514418 -5.7982e-05 0)
(-0.00479631 -6.36402e-05 0)
(-0.00443129 -6.89958e-05 0)
(-0.00405053 -7.39883e-05 0)
(-0.00365561 -7.85619e-05 0)
(-0.0032482 -8.26661e-05 0)
(-0.00283011 -8.62572e-05 0)
(-0.00240323 -8.92991e-05 0)
(-0.00196953 -9.17637e-05 0)
(-0.00153099 -9.36319e-05 0)
(-0.00108965 -9.48934e-05 0)
(-0.00064754 -9.55472e-05 0)
(-0.000206653 -9.56015e-05 0)
(0.000231056 -9.5073e-05 0)
(0.000663704 -9.39869e-05 0)
(0.0010895 -9.23757e-05 0)
(0.00150675 -9.02789e-05 0)
(0.00191391 -8.77414e-05 0)
(0.00230956 -8.48128e-05 0)
(0.00269243 -8.15462e-05 0)
(0.00306142 -7.79968e-05 0)
(0.00341559 -7.42208e-05 0)
(0.00375417 -7.02742e-05 0)
(0.00407656 -6.62119e-05 0)
(0.00438234 -6.20863e-05 0)
(0.00467124 -5.79467e-05 0)
(0.00494315 -5.38386e-05 0)
(0.0051981 -4.9803e-05 0)
(0.00543627 -4.5876e-05 0)
(0.00565796 -4.20885e-05 0)
(0.00586356 -3.84664e-05 0)
(0.0060536 -3.50301e-05 0)
(0.00622864 -3.17954e-05 0)
(0.00638934 -2.87729e-05 0)
(0.0065364 -2.59692e-05 0)
(0.00667059 -2.33868e-05 0)
(0.00679266 -2.10246e-05 0)
(0.00690342 -1.88786e-05 0)
(0.00700366 -1.69424e-05 0)
(0.00709418 -1.52074e-05 0)
(0.00717575 -1.36635e-05 0)
(0.00724914 -1.22994e-05 0)
(0.0073151 -1.11029e-05 0)
(0.00737432 -1.00617e-05 0)
(0.00742748 -9.16285e-06 0)
(0.00747522 -8.39385e-06 0)
(0.00751813 -7.74231e-06 0)
(0.00755678 -7.19627e-06 0)
(0.00759169 -6.74434e-06 0)
(0.00762332 -6.37571e-06 0)
(0.00765213 -6.08029e-06 0)
(0.0076785 -5.84869e-06 0)
(0.0077028 -5.67223e-06 0)
(0.00772535 -5.54298e-06 0)
(0.00774645 -5.4537e-06 0)
(0.00776636 -5.39784e-06 0)
(0.0077853 -5.36952e-06 0)
(0.00780348 -5.36345e-06 0)
(0.00782106 -5.37495e-06 0)
(0.0078382 -5.39986e-06 0)
(0.00785503 -5.43455e-06 0)
(0.00787166 -5.47582e-06 0)
(0.00788817 -5.52091e-06 0)
(0.00790464 -5.56746e-06 0)
(0.00792112 -5.61345e-06 0)
(0.00793767 -5.65717e-06 0)
(0.00795431 -5.69722e-06 0)
(0.00797108 -5.73243e-06 0)
(0.00798797 -5.76188e-06 0)
(0.00800501 -5.78486e-06 0)
(0.00802218 -5.80084e-06 0)
(0.00803949 -5.80943e-06 0)
(0.00805692 -5.8104e-06 0)
(0.00807445 -5.80365e-06 0)
(0.00809208 -5.78917e-06 0)
(0.00810977 -5.76705e-06 0)
(0.00812751 -5.73744e-06 0)
(0.00814526 -5.70059e-06 0)
(0.00816302 -5.65678e-06 0)
(0.00818074 -5.60633e-06 0)
(0.00819841 -5.54961e-06 0)
(0.00821599 -5.48701e-06 0)
(0.00823347 -5.41893e-06 0)
(0.00825082 -5.3458e-06 0)
(0.00826801 -5.26805e-06 0)
(0.00828503 -5.1861e-06 0)
(0.00830185 -5.1004e-06 0)
(0.00831844 -5.01135e-06 0)
(0.0083348 -4.91938e-06 0)
(0.0083509 -4.82489e-06 0)
(0.00836673 -4.72828e-06 0)
(0.00838228 -4.62991e-06 0)
(0.00839752 -4.53014e-06 0)
(0.00841245 -4.42932e-06 0)
(0.00842706 -4.32777e-06 0)
(0.00844134 -4.22578e-06 0)
(0.00845529 -4.12364e-06 0)
(0.00846888 -4.02162e-06 0)
(0.00848213 -3.91996e-06 0)
(0.00849503 -3.81887e-06 0)
(0.00850757 -3.71857e-06 0)
(0.00851975 -3.61925e-06 0)
(0.00853158 -3.52106e-06 0)
(0.00854305 -3.42416e-06 0)
(0.00855417 -3.32868e-06 0)
(0.00856494 -3.23474e-06 0)
(0.00857536 -3.14244e-06 0)
(0.00858543 -3.05185e-06 0)
(0.00859517 -2.96306e-06 0)
(0.00860458 -2.87611e-06 0)
(0.00861365 -2.79104e-06 0)
(0.00862241 -2.70788e-06 0)
(0.00863085 -2.62665e-06 0)
(0.00863899 -2.54733e-06 0)
(0.00864683 -2.46993e-06 0)
(0.00865438 -2.39439e-06 0)
(0.00866165 -2.32068e-06 0)
(0.00866864 -2.24874e-06 0)
(0.00867537 -2.17848e-06 0)
(0.00868184 -2.10979e-06 0)
(0.00868806 -2.04254e-06 0)
(0.00869404 -1.97655e-06 0)
(0.00869978 -1.91162e-06 0)
(0.0087053 -1.84747e-06 0)
(0.00871059 -1.78373e-06 0)
(0.00871567 -1.71995e-06 0)
(0.00872053 -1.65548e-06 0)
(0.00872518 -1.58948e-06 0)
(0.00872961 -1.52077e-06 0)
(0.00873383 -1.44779e-06 0)
(0.0087378 -1.36805e-06 0)
(0.00874153 -1.2791e-06 0)
(0.00874498 -1.17395e-06 0)
(0.0087481 -1.0533e-06 0)
(0.00875085 -8.88072e-07 0)
(0.00875304 -7.14819e-07 0)
(0.00875483 -4.01277e-07 0)
(0.00875518 -1.43548e-07 0)
(0.00875601 4.50034e-07 0)
(0.00875167 1.1375e-06 0)
(0.00875273 1.45387e-06 0)
(0.0087378 5.50666e-06 0)
(-8.33592e-05 0.00013642 0)
(-0.000582919 0.000379263 0)
(-0.00131137 0.000518332 0)
(-0.00208599 0.000562419 0)
(-0.00286568 0.000583377 0)
(-0.00363356 0.000585074 0)
(-0.00437631 0.000584993 0)
(-0.00509678 0.00057827 0)
(-0.00578777 0.000569297 0)
(-0.00645146 0.000557062 0)
(-0.00708513 0.000543354 0)
(-0.00769019 0.000528352 0)
(-0.00826626 0.000512778 0)
(-0.00881444 0.000496859 0)
(-0.00933522 0.000480873 0)
(-0.00982951 0.000464941 0)
(-0.010298 0.000449163 0)
(-0.0107414 0.000433579 0)
(-0.0111604 0.000418207 0)
(-0.0115554 0.000403041 0)
(-0.0119271 0.000388059 0)
(-0.0122757 0.000373225 0)
(-0.0126015 0.000358491 0)
(-0.0129048 0.000343801 0)
(-0.0131855 0.000329088 0)
(-0.0134436 0.000314277 0)
(-0.0136791 0.000299284 0)
(-0.0138915 0.000284019 0)
(-0.0140807 0.000268382 0)
(-0.0142462 0.000252267 0)
(-0.0143873 0.000235564 0)
(-0.0145034 0.000218156 0)
(-0.0145938 0.000199925 0)
(-0.0146575 0.000180751 0)
(-0.0146938 0.000160516 0)
(-0.0147014 0.000139107 0)
(-0.0146795 0.000116416 0)
(-0.0146269 9.23483e-05 0)
(-0.0145424 6.68197e-05 0)
(-0.0144249 3.97645e-05 0)
(-0.0142733 1.11367e-05 0)
(-0.0140865 -1.90866e-05 0)
(-0.0138634 -5.09027e-05 0)
(-0.0136031 -8.42806e-05 0)
(-0.0133048 -0.00011916 0)
(-0.0129677 -0.000155448 0)
(-0.0125913 -0.000193024 0)
(-0.0121751 -0.000231731 0)
(-0.011719 -0.000271386 0)
(-0.011223 -0.000311775 0)
(-0.0106873 -0.000352657 0)
(-0.0101123 -0.00039377 0)
(-0.0094987 -0.000434828 0)
(-0.00884756 -0.000475532 0)
(-0.00816002 -0.000515569 0)
(-0.00743755 -0.000554621 0)
(-0.00668185 -0.000592366 0)
(-0.00589486 -0.000628484 0)
(-0.00507875 -0.000662665 0)
(-0.00423592 -0.000694609 0)
(-0.00336894 -0.000724036 0)
(-0.00248059 -0.000750685 0)
(-0.00157379 -0.000774325 0)
(-0.000651601 -0.000794752 0)
(0.000282814 -0.000811796 0)
(0.0012262 -0.000825325 0)
(0.00217527 -0.000835242 0)
(0.00312668 -0.000841493 0)
(0.00407713 -0.000844063 0)
(0.00502333 -0.000842978 0)
(0.00596207 -0.000838305 0)
(0.00689022 -0.00083015 0)
(0.00780479 -0.000818655 0)
(0.00870293 -0.000803998 0)
(0.00958195 -0.000786387 0)
(0.0104394 -0.000766057 0)
(0.0112729 -0.000743267 0)
(0.0120805 -0.000718296 0)
(0.0128604 -0.000691433 0)
(0.0136109 -0.00066298 0)
(0.0143309 -0.000633241 0)
(0.0150191 -0.000602518 0)
(0.0156749 -0.000571112 0)
(0.0162976 -0.000539309 0)
(0.016887 -0.000507386 0)
(0.017443 -0.000475601 0)
(0.0179657 -0.000444192 0)
(0.0184555 -0.000413378 0)
(0.018913 -0.000383352 0)
(0.0193388 -0.000354283 0)
(0.0197338 -0.000326316 0)
(0.020099 -0.000299571 0)
(0.0204356 -0.000274142 0)
(0.0207448 -0.000250102 0)
(0.0210279 -0.000227499 0)
(0.0212861 -0.000206364 0)
(0.021521 -0.000186705 0)
(0.021734 -0.000168516 0)
(0.0219265 -0.000151775 0)
(0.0220998 -0.000136448 0)
(0.0222555 -0.00012249 0)
(0.022395 -0.000109845 0)
(0.0225195 -9.84521e-05 0)
(0.0226304 -8.8245e-05 0)
(0.0227289 -7.9153e-05 0)
(0.0228162 -7.11029e-05 0)
(0.0228935 -6.40208e-05 0)
(0.0229618 -5.78325e-05 0)
(0.0230221 -5.24648e-05 0)
(0.0230754 -4.78461e-05 0)
(0.0231225 -4.39069e-05 0)
(0.0231643 -4.05809e-05 0)
(0.0232013 -3.78046e-05 0)
(0.0232344 -3.5518e-05 0)
(0.0232642 -3.36648e-05 0)
(0.0232911 -3.21924e-05 0)
(0.0233156 -3.10518e-05 0)
(0.0233383 -3.0198e-05 0)
(0.0233594 -2.95894e-05 0)
(0.0233794 -2.91882e-05 0)
(0.0233984 -2.896e-05 0)
(0.0234169 -2.88736e-05 0)
(0.0234349 -2.89011e-05 0)
(0.0234528 -2.90173e-05 0)
(0.0234705 -2.92002e-05 0)
(0.0234883 -2.94299e-05 0)
(0.0235063 -2.96894e-05 0)
(0.0235245 -2.99636e-05 0)
(0.023543 -3.02396e-05 0)
(0.0235618 -3.05063e-05 0)
(0.0235809 -3.07545e-05 0)
(0.0236004 -3.09763e-05 0)
(0.0236203 -3.11656e-05 0)
(0.0236405 -3.13172e-05 0)
(0.023661 -3.14271e-05 0)
(0.0236819 -3.14927e-05 0)
(0.023703 -3.15118e-05 0)
(0.0237243 -3.14833e-05 0)
(0.0237457 -3.14067e-05 0)
(0.0237674 -3.12822e-05 0)
(0.0237891 -3.11105e-05 0)
(0.0238108 -3.08927e-05 0)
(0.0238325 -3.06303e-05 0)
(0.0238542 -3.0325e-05 0)
(0.0238758 -2.99791e-05 0)
(0.0238972 -2.95948e-05 0)
(0.0239185 -2.91745e-05 0)
(0.0239395 -2.87208e-05 0)
(0.0239602 -2.82363e-05 0)
(0.0239806 -2.77239e-05 0)
(0.0240007 -2.71861e-05 0)
(0.0240204 -2.66258e-05 0)
(0.0240397 -2.60456e-05 0)
(0.0240585 -2.54482e-05 0)
(0.0240769 -2.48362e-05 0)
(0.0240948 -2.42121e-05 0)
(0.0241121 -2.35784e-05 0)
(0.024129 -2.29374e-05 0)
(0.0241453 -2.22915e-05 0)
(0.0241611 -2.16426e-05 0)
(0.0241763 -2.0993e-05 0)
(0.024191 -2.03445e-05 0)
(0.0242051 -1.96989e-05 0)
(0.0242186 -1.90579e-05 0)
(0.0242315 -1.84232e-05 0)
(0.0242439 -1.77962e-05 0)
(0.0242557 -1.71782e-05 0)
(0.024267 -1.65704e-05 0)
(0.0242777 -1.59741e-05 0)
(0.0242879 -1.539e-05 0)
(0.0242975 -1.48192e-05 0)
(0.0243066 -1.42623e-05 0)
(0.0243152 -1.372e-05 0)
(0.0243233 -1.31928e-05 0)
(0.024331 -1.26809e-05 0)
(0.0243381 -1.21847e-05 0)
(0.0243449 -1.17041e-05 0)
(0.0243512 -1.12389e-05 0)
(0.0243571 -1.0789e-05 0)
(0.0243625 -1.03536e-05 0)
(0.0243677 -9.93203e-06 0)
(0.0243724 -9.52297e-06 0)
(0.0243768 -9.1248e-06 0)
(0.0243809 -8.73529e-06 0)
(0.0243846 -8.35144e-06 0)
(0.0243881 -7.96915e-06 0)
(0.0243912 -7.58292e-06 0)
(0.024394 -7.18507e-06 0)
(0.0243965 -6.76516e-06 0)
(0.0243987 -6.30882e-06 0)
(0.0244005 -5.79304e-06 0)
(0.0244019 -5.19955e-06 0)
(0.0244029 -4.44829e-06 0)
(0.0244032 -3.5998e-06 0)
(0.0244028 -2.25305e-06 0)
(0.0244014 -1.02918e-06 0)
(0.024399 1.64149e-06 0)
(0.0243931 4.06892e-06 0)
(0.0243897 6.92621e-06 0)
(0.0243717 1.80396e-05 0)
(-0.000178833 0.000644983 0)
(-0.00104295 0.00125401 0)
(-0.00216762 0.0015329 0)
(-0.00330474 0.00157431 0)
(-0.00439287 0.00156943 0)
(-0.00542137 0.0015261 0)
(-0.00637456 0.00148244 0)
(-0.00726353 0.00143002 0)
(-0.00808487 0.00137669 0)
(-0.00884671 0.00132078 0)
(-0.00955042 0.00126483 0)
(-0.0102011 0.00120899 0)
(-0.0108012 0.00115409 0)
(-0.0113542 0.00110032 0)
(-0.0118622 0.00104786 0)
(-0.0123276 0.000996737 0)
(-0.0127522 0.000946909 0)
(-0.0131376 0.000898279 0)
(-0.0134852 0.000850718 0)
(-0.013796 0.000804075 0)
(-0.014071 0.000758183 0)
(-0.0143108 0.000712863 0)
(-0.014516 0.000667928 0)
(-0.0146869 0.000623184 0)
(-0.0148238 0.000578429 0)
(-0.0149267 0.000533456 0)
(-0.0149955 0.000488052 0)
(-0.01503 0.000442003 0)
(-0.01503 0.00039509 0)
(-0.014995 0.000347093 0)
(-0.0149245 0.000297796 0)
(-0.0148179 0.000246987 0)
(-0.0146746 0.000194461 0)
(-0.0144939 0.000140028 0)
(-0.0142749 8.35108e-05 0)
(-0.0140171 2.47561e-05 0)
(-0.0137195 -3.63654e-05 0)
(-0.0133814 -9.99524e-05 0)
(-0.0130022 -0.000166069 0)
(-0.0125811 -0.00023474 0)
(-0.0121175 -0.000305948 0)
(-0.011611 -0.00037963 0)
(-0.0110611 -0.000455672 0)
(-0.0104677 -0.000533914 0)
(-0.00983056 -0.00061414 0)
(-0.00914982 -0.000696087 0)
(-0.00842573 -0.000779442 0)
(-0.00765871 -0.000863842 0)
(-0.00684944 -0.000948882 0)
(-0.00599878 -0.00103412 0)
(-0.00510782 -0.00111906 0)
(-0.00417789 -0.0012032 0)
(-0.00321053 -0.00128601 0)
(-0.00220751 -0.00136693 0)
(-0.00117083 -0.00144539 0)
(-0.000102714 -0.00152084 0)
(0.000994431 -0.00159271 0)
(0.00211798 -0.00166046 0)
(0.00326514 -0.00172356 0)
(0.00443294 -0.00178151 0)
(0.00561827 -0.00183386 0)
(0.00681788 -0.00188019 0)
(0.00802844 -0.00192012 0)
(0.00924651 -0.00195335 0)
(0.0104686 -0.00197961 0)
(0.0116912 -0.00199873 0)
(0.0129109 -0.00201058 0)
(0.014124 -0.0020151 0)
(0.0153273 -0.00201231 0)
(0.0165173 -0.0020023 0)
(0.0176907 -0.00198523 0)
(0.0188445 -0.00196132 0)
(0.0199758 -0.00193085 0)
(0.0210817 -0.00189419 0)
(0.0221596 -0.00185172 0)
(0.0232072 -0.00180391 0)
(0.0242224 -0.00175123 0)
(0.0252032 -0.00169421 0)
(0.0261481 -0.0016334 0)
(0.0270556 -0.00156937 0)
(0.0279246 -0.00150269 0)
(0.0287542 -0.00143394 0)
(0.029544 -0.00136368 0)
(0.0302933 -0.00129247 0)
(0.0310023 -0.00122084 0)
(0.0316709 -0.0011493 0)
(0.0322995 -0.00107833 0)
(0.0328886 -0.00100836 0)
(0.0334389 -0.00093979 0)
(0.0339512 -0.000872982 0)
(0.0344267 -0.000808247 0)
(0.0348665 -0.000745856 0)
(0.0352718 -0.000686035 0)
(0.0356441 -0.000628966 0)
(0.0359846 -0.000574791 0)
(0.0362951 -0.000523611 0)
(0.0365769 -0.000475491 0)
(0.0368318 -0.00043046 0)
(0.0370612 -0.000388518 0)
(0.0372669 -0.000349634 0)
(0.0374503 -0.000313754 0)
(0.037613 -0.000280802 0)
(0.0377567 -0.000250683 0)
(0.0378827 -0.000223288 0)
(0.0379926 -0.000198494 0)
(0.0380877 -0.00017617 0)
(0.0381694 -0.000156178 0)
(0.038239 -0.000138374 0)
(0.0382976 -0.000122614 0)
(0.0383464 -0.000108751 0)
(0.0383865 -9.664e-05 0)
(0.0384189 -8.61391e-05 0)
(0.0384444 -7.71093e-05 0)
(0.0384641 -6.94166e-05 0)
(0.0384787 -6.29321e-05 0)
(0.0384888 -5.75332e-05 0)
(0.0384953 -5.31037e-05 0)
(0.0384986 -4.95341e-05 0)
(0.0384994 -4.67218e-05 0)
(0.0384981 -4.45714e-05 0)
(0.0384951 -4.29945e-05 0)
(0.0384909 -4.19095e-05 0)
(0.0384858 -4.12416e-05 0)
(0.0384801 -4.09227e-05 0)
(0.038474 -4.08909e-05 0)
(0.0384678 -4.10902e-05 0)
(0.0384616 -4.14705e-05 0)
(0.0384556 -4.19871e-05 0)
(0.03845 -4.26003e-05 0)
(0.0384448 -4.32752e-05 0)
(0.0384401 -4.39812e-05 0)
(0.038436 -4.46919e-05 0)
(0.0384325 -4.53846e-05 0)
(0.0384296 -4.60402e-05 0)
(0.0384273 -4.66424e-05 0)
(0.0384257 -4.71782e-05 0)
(0.0384247 -4.76367e-05 0)
(0.0384243 -4.80099e-05 0)
(0.0384244 -4.82915e-05 0)
(0.0384251 -4.84771e-05 0)
(0.0384262 -4.8564e-05 0)
(0.0384278 -4.85511e-05 0)
(0.0384298 -4.84384e-05 0)
(0.0384321 -4.82271e-05 0)
(0.0384347 -4.79192e-05 0)
(0.0384375 -4.75176e-05 0)
(0.0384405 -4.70261e-05 0)
(0.0384437 -4.64487e-05 0)
(0.0384469 -4.579e-05 0)
(0.0384501 -4.50551e-05 0)
(0.0384533 -4.42492e-05 0)
(0.0384564 -4.33778e-05 0)
(0.0384595 -4.24465e-05 0)
(0.0384624 -4.14611e-05 0)
(0.038465 -4.04271e-05 0)
(0.0384675 -3.93504e-05 0)
(0.0384697 -3.82365e-05 0)
(0.0384717 -3.7091e-05 0)
(0.0384733 -3.59193e-05 0)
(0.0384746 -3.47267e-05 0)
(0.0384755 -3.35183e-05 0)
(0.038476 -3.22991e-05 0)
(0.0384762 -3.10737e-05 0)
(0.038476 -2.98467e-05 0)
(0.0384753 -2.86223e-05 0)
(0.0384743 -2.74047e-05 0)
(0.0384728 -2.61977e-05 0)
(0.0384709 -2.50047e-05 0)
(0.0384686 -2.38293e-05 0)
(0.0384659 -2.26744e-05 0)
(0.0384627 -2.15428e-05 0)
(0.0384592 -2.04371e-05 0)
(0.0384552 -1.93596e-05 0)
(0.0384509 -1.83122e-05 0)
(0.0384462 -1.72966e-05 0)
(0.0384412 -1.63142e-05 0)
(0.0384358 -1.5366e-05 0)
(0.03843 -1.44526e-05 0)
(0.038424 -1.35743e-05 0)
(0.0384177 -1.27307e-05 0)
(0.0384111 -1.19211e-05 0)
(0.0384042 -1.11439e-05 0)
(0.0383971 -1.0397e-05 0)
(0.0383898 -9.67701e-06 0)
(0.0383823 -8.9792e-06 0)
(0.0383746 -8.29717e-06 0)
(0.0383667 -7.62211e-06 0)
(0.0383587 -6.94173e-06 0)
(0.0383505 -6.23969e-06 0)
(0.0383421 -5.4917e-06 0)
(0.0383336 -4.66724e-06 0)
(0.0383248 -3.71786e-06 0)
(0.0383158 -2.57599e-06 0)
(0.0383066 -1.1828e-06 0)
(0.0382969 7.36454e-07 0)
(0.0382867 2.91822e-06 0)
(0.0382756 6.70109e-06 0)
(0.0382633 1.06221e-05 0)
(0.0382511 1.58983e-05 0)
(0.0382289 3.11543e-05 0)
(-0.000305524 0.00126146 0)
(-0.00151615 0.00231482 0)
(-0.00286979 0.00272283 0)
(-0.00413661 0.00273266 0)
(-0.00523527 0.00266037 0)
(-0.00621492 0.00253083 0)
(-0.00706172 0.00240156 0)
(-0.00780929 0.00226614 0)
(-0.00845915 0.00213552 0)
(-0.00902806 0.00200823 0)
(-0.00952128 0.00188655 0)
(-0.0099478 0.00177008 0)
(-0.0103125 0.00165889 0)
(-0.0106207 0.00155256 0)
(-0.010876 0.00145066 0)
(-0.0110819 0.0013527 0)
(-0.0112409 0.00125821 0)
(-0.0113552 0.00116671 0)
(-0.0114265 0.00107775 0)
(-0.0114562 0.000990881 0)
(-0.0114455 0.000905701 0)
(-0.0113953 0.000821809 0)
(-0.0113062 0.000738823 0)
(-0.0111786 0.000656375 0)
(-0.0110129 0.000574106 0)
(-0.0108091 0.000491672 0)
(-0.0105675 0.000408736 0)
(-0.0102878 0.000324972 0)
(-0.00996993 0.000240066 0)
(-0.00961362 0.000153718 0)
(-0.00921856 6.56436e-05 0)
(-0.00878441 -2.4422e-05 0)
(-0.00831081 -0.00011672 0)
(-0.00779737 -0.000211466 0)
(-0.00724371 -0.000308839 0)
(-0.00664948 -0.000408986 0)
(-0.00601437 -0.000512008 0)
(-0.00533813 -0.000617962 0)
(-0.00462058 -0.000726852 0)
(-0.00386161 -0.000838625 0)
(-0.00306125 -0.000953173 0)
(-0.00221963 -0.00107032 0)
(-0.00133702 -0.00118984 0)
(-0.000413826 -0.00131142 0)
(0.000549363 -0.00143471 0)
(0.00155181 -0.00155927 0)
(0.00259258 -0.00168461 0)
(0.00367058 -0.0018102 0)
(0.00478449 -0.00193543 0)
(0.00593283 -0.00205967 0)
(0.00711389 -0.00218221 0)
(0.0083258 -0.00230236 0)
(0.00956645 -0.00241936 0)
(0.0108336 -0.00253246 0)
(0.0121248 -0.00264089 0)
(0.0134373 -0.0027439 0)
(0.0147684 -0.00284073 0)
(0.0161152 -0.00293066 0)
(0.0174745 -0.00301301 0)
(0.0188432 -0.00308712 0)
(0.0202179 -0.00315241 0)
(0.0215953 -0.00320834 0)
(0.0229719 -0.00325445 0)
(0.0243442 -0.00329036 0)
(0.0257088 -0.00331577 0)
(0.0270622 -0.00333048 0)
(0.0284009 -0.00333437 0)
(0.0297217 -0.00332743 0)
(0.0310213 -0.00330975 0)
(0.0322966 -0.0032815 0)
(0.0335445 -0.00324297 0)
(0.0347624 -0.00319452 0)
(0.0359476 -0.00313662 0)
(0.0370978 -0.00306982 0)
(0.0382108 -0.00299473 0)
(0.0392846 -0.00291202 0)
(0.0403178 -0.00282245 0)
(0.0413088 -0.00272679 0)
(0.0422565 -0.00262584 0)
(0.0431602 -0.00252046 0)
(0.0440193 -0.00241148 0)
(0.0448334 -0.00229973 0)
(0.0456024 -0.00218607 0)
(0.0463265 -0.00207128 0)
(0.0470062 -0.00195613 0)
(0.047642 -0.00184138 0)
(0.0482346 -0.00172769 0)
(0.0487852 -0.00161571 0)
(0.0492947 -0.00150601 0)
(0.0497644 -0.0013991 0)
(0.0501958 -0.00129544 0)
(0.0505902 -0.00119541 0)
(0.0509491 -0.00109936 0)
(0.0512743 -0.00100754 0)
(0.0515674 -0.000920155 0)
(0.0518299 -0.000837368 0)
(0.0520637 -0.000759273 0)
(0.0522704 -0.000685921 0)
(0.0524517 -0.000617319 0)
(0.0526092 -0.000553431 0)
(0.0527446 -0.000494187 0)
(0.0528596 -0.000439485 0)
(0.0529555 -0.000389197 0)
(0.0530341 -0.000343171 0)
(0.0530966 -0.000301237 0)
(0.0531446 -0.000263209 0)
(0.0531792 -0.00022889 0)
(0.0532018 -0.000198077 0)
(0.0532137 -0.000170558 0)
(0.0532158 -0.000146121 0)
(0.0532093 -0.000124553 0)
(0.0531951 -0.000105643 0)
(0.0531743 -8.91841e-05 0)
(0.0531476 -7.49738e-05 0)
(0.0531158 -6.28166e-05 0)
(0.0530798 -5.25241e-05 0)
(0.0530401 -4.39162e-05 0)
(0.0529974 -3.68219e-05 0)
(0.0529522 -3.10792e-05 0)
(0.052905 -2.65361e-05 0)
(0.0528564 -2.30499e-05 0)
(0.0528067 -2.0488e-05 0)
(0.0527562 -1.87273e-05 0)
(0.0527053 -1.76544e-05 0)
(0.0526543 -1.71652e-05 0)
(0.0526035 -1.71644e-05 0)
(0.052553 -1.75656e-05 0)
(0.0525029 -1.82904e-05 0)
(0.0524536 -1.92686e-05 0)
(0.052405 -2.04372e-05 0)
(0.0523573 -2.17403e-05 0)
(0.0523106 -2.31285e-05 0)
(0.0522649 -2.45586e-05 0)
(0.0522203 -2.5993e-05 0)
(0.0521768 -2.73993e-05 0)
(0.0521344 -2.87501e-05 0)
(0.0520931 -3.00223e-05 0)
(0.0520528 -3.11967e-05 0)
(0.0520137 -3.2258e-05 0)
(0.0519756 -3.31941e-05 0)
(0.0519385 -3.39958e-05 0)
(0.0519024 -3.46567e-05 0)
(0.0518673 -3.51726e-05 0)
(0.051833 -3.55415e-05 0)
(0.0517996 -3.57632e-05 0)
(0.0517669 -3.58391e-05 0)
(0.051735 -3.5772e-05 0)
(0.0517038 -3.5566e-05 0)
(0.0516732 -3.5226e-05 0)
(0.0516431 -3.47577e-05 0)
(0.0516136 -3.41679e-05 0)
(0.0515846 -3.34634e-05 0)
(0.051556 -3.2652e-05 0)
(0.0515278 -3.17413e-05 0)
(0.0514999 -3.07396e-05 0)
(0.0514723 -2.9655e-05 0)
(0.051445 -2.84959e-05 0)
(0.0514179 -2.72705e-05 0)
(0.051391 -2.59872e-05 0)
(0.0513642 -2.46541e-05 0)
(0.0513375 -2.32792e-05 0)
(0.0513109 -2.18704e-05 0)
(0.0512844 -2.04353e-05 0)
(0.051258 -1.89813e-05 0)
(0.0512315 -1.75155e-05 0)
(0.0512051 -1.60447e-05 0)
(0.0511787 -1.45755e-05 0)
(0.0511523 -1.31141e-05 0)
(0.0511258 -1.16663e-05 0)
(0.0510993 -1.02377e-05 0)
(0.0510728 -8.8334e-06 0)
(0.0510462 -7.45818e-06 0)
(0.0510196 -6.11643e-06 0)
(0.050993 -4.81209e-06 0)
(0.0509663 -3.54871e-06 0)
(0.0509397 -2.32934e-06 0)
(0.050913 -1.15656e-06 0)
(0.0508862 -3.23954e-08 0)
(0.0508595 1.0417e-06 0)
(0.0508329 2.06497e-06 0)
(0.0508062 3.03737e-06 0)
(0.0507796 3.9598e-06 0)
(0.050753 4.83419e-06 0)
(0.0507265 5.66382e-06 0)
(0.0507001 6.45362e-06 0)
(0.0506737 7.21068e-06 0)
(0.0506475 7.94496e-06 0)
(0.0506214 8.6702e-06 0)
(0.0505955 9.40572e-06 0)
(0.0505697 1.01776e-05 0)
(0.050544 1.10237e-05 0)
(0.0505185 1.19944e-05 0)
(0.0504931 1.31668e-05 0)
(0.0504678 1.46366e-05 0)
(0.0504427 1.65904e-05 0)
(0.0504177 1.91053e-05 0)
(0.0503925 2.29488e-05 0)
(0.0503674 2.75227e-05 0)
(0.0503424 3.42407e-05 0)
(0.0503112 5.07442e-05 0)
(-0.000404965 0.00246859 0)
(-0.00171878 0.00379498 0)
(-0.00298676 0.00413966 0)
(-0.00404963 0.00388822 0)
(-0.00482664 0.00361487 0)
(-0.00542867 0.00331209 0)
(-0.00585267 0.00304784 0)
(-0.00615823 0.00280101 0)
(-0.00635463 0.00257668 0)
(-0.00646803 0.00236858 0)
(-0.00650696 0.00217554 0)
(-0.00648344 0.00199507 0)
(-0.00640334 0.00182555 0)
(-0.00627278 0.0016654 0)
(-0.00609556 0.00151328 0)
(-0.00587511 0.00136799 0)
(-0.00561383 0.00122849 0)
(-0.00531376 0.00109385 0)
(-0.00497639 0.000963247 0)
(-0.00460292 0.000835931 0)
(-0.00419425 0.000711226 0)
(-0.00375104 0.000588516 0)
(-0.00327376 0.00046723 0)
(-0.00276274 0.000346839 0)
(-0.00221813 0.000226848 0)
(-0.00164 0.000106796 0)
(-0.00102834 -1.37512e-05 0)
(-0.000383034 -0.000135199 0)
(0.000296057 -0.000257924 0)
(0.00100912 -0.000382274 0)
(0.00175637 -0.000508566 0)
(0.002538 -0.000637083 0)
(0.00335423 -0.000768068 0)
(0.00420523 -0.000901723 0)
(0.00509112 -0.0010382 0)
(0.006012 -0.00117762 0)
(0.00696786 -0.00132001 0)
(0.00795864 -0.00146537 0)
(0.00898416 -0.00161363 0)
(0.0100441 -0.00176463 0)
(0.0111382 -0.00191817 0)
(0.0122658 -0.00207395 0)
(0.0134263 -0.00223162 0)
(0.0146188 -0.00239075 0)
(0.0158423 -0.00255081 0)
(0.0170958 -0.00271123 0)
(0.0183779 -0.00287136 0)
(0.0196872 -0.00303049 0)
(0.0210219 -0.00318785 0)
(0.0223802 -0.00334262 0)
(0.0237601 -0.00349393 0)
(0.0251594 -0.0036409 0)
(0.0265758 -0.00378259 0)
(0.0280067 -0.00391808 0)
(0.0294494 -0.00404643 0)
(0.0309011 -0.00416671 0)
(0.032359 -0.00427802 0)
(0.0338197 -0.00437949 0)
(0.0352803 -0.00447028 0)
(0.0367374 -0.00454965 0)
(0.0381877 -0.00461688 0)
(0.0396279 -0.00467137 0)
(0.0410545 -0.00471259 0)
(0.0424642 -0.00474013 0)
(0.0438536 -0.00475368 0)
(0.0452196 -0.00475305 0)
(0.0465588 -0.00473816 0)
(0.0478683 -0.00470908 0)
(0.0491451 -0.00466599 0)
(0.0503865 -0.00460921 0)
(0.0515899 -0.00453916 0)
(0.0527531 -0.0044564 0)
(0.053874 -0.00436161 0)
(0.0549507 -0.00425554 0)
(0.0559817 -0.00413907 0)
(0.0569656 -0.00401314 0)
(0.0579016 -0.00387876 0)
(0.0587889 -0.00373698 0)
(0.059627 -0.00358891 0)
(0.0604159 -0.00343567 0)
(0.0611555 -0.00327838 0)
(0.0618464 -0.00311816 0)
(0.062489 -0.00295609 0)
(0.0630841 -0.00279324 0)
(0.0636329 -0.00263061 0)
(0.0641365 -0.00246915 0)
(0.0645963 -0.00230974 0)
(0.0650137 -0.0021532 0)
(0.0653903 -0.00200024 0)
(0.0657279 -0.00185153 0)
(0.0660281 -0.00170762 0)
(0.0662929 -0.00156901 0)
(0.0665241 -0.00143608 0)
(0.0667235 -0.00130916 0)
(0.0668931 -0.00118849 0)
(0.0670346 -0.00107424 0)
(0.06715 -0.000966524 0)
(0.067241 -0.000865373 0)
(0.0673094 -0.000770774 0)
(0.0673569 -0.000682663 0)
(0.0673851 -0.000600928 0)
(0.0673958 -0.000525419 0)
(0.0673903 -0.000455953 0)
(0.0673702 -0.000392319 0)
(0.0673368 -0.000334282 0)
(0.0672915 -0.00028159 0)
(0.0672355 -0.000233977 0)
(0.0671699 -0.000191167 0)
(0.067096 -0.000152878 0)
(0.0670146 -0.000118826 0)
(0.0669268 -8.87256e-05 0)
(0.0668334 -6.2296e-05 0)
(0.0667353 -3.92602e-05 0)
(0.0666332 -1.93482e-05 0)
(0.0665278 -2.29835e-06 0)
(0.0664198 1.21415e-05 0)
(0.0663097 2.42127e-05 0)
(0.0661981 3.41454e-05 0)
(0.0660855 4.21577e-05 0)
(0.0659722 4.84554e-05 0)
(0.0658587 5.32318e-05 0)
(0.0657453 5.66675e-05 0)
(0.0656323 5.89307e-05 0)
(0.06552 6.01773e-05 0)
(0.0654086 6.05509e-05 0)
(0.0652983 6.01835e-05 0)
(0.0651893 5.91958e-05 0)
(0.0650817 5.76976e-05 0)
(0.0649757 5.57881e-05 0)
(0.0648713 5.3557e-05 0)
(0.0647686 5.10843e-05 0)
(0.0646677 4.84414e-05 0)
(0.0645687 4.56916e-05 0)
(0.0644714 4.28902e-05 0)
(0.064376 4.00856e-05 0)
(0.0642825 3.73196e-05 0)
(0.0641908 3.46277e-05 0)
(0.064101 3.20402e-05 0)
(0.0640129 2.95819e-05 0)
(0.0639267 2.72731e-05 0)
(0.0638421 2.51301e-05 0)
(0.0637592 2.31652e-05 0)
(0.063678 2.13874e-05 0)
(0.0635984 1.98024e-05 0)
(0.0635203 1.84137e-05 0)
(0.0634437 1.7222e-05 0)
(0.0633685 1.62262e-05 0)
(0.0632947 1.54232e-05 0)
(0.0632223 1.48084e-05 0)
(0.063151 1.43759e-05 0)
(0.063081 1.41186e-05 0)
(0.0630122 1.40286e-05 0)
(0.0629444 1.40972e-05 0)
(0.0628777 1.43149e-05 0)
(0.062812 1.4672e-05 0)
(0.0627472 1.51582e-05 0)
(0.0626834 1.57632e-05 0)
(0.0626204 1.64763e-05 0)
(0.0625582 1.7287e-05 0)
(0.0624968 1.81846e-05 0)
(0.0624362 1.91585e-05 0)
(0.0623763 2.01985e-05 0)
(0.062317 2.12943e-05 0)
(0.0622584 2.24359e-05 0)
(0.0622004 2.36136e-05 0)
(0.062143 2.48181e-05 0)
(0.0620862 2.60402e-05 0)
(0.0620299 2.72713e-05 0)
(0.0619741 2.85031e-05 0)
(0.0619189 2.97276e-05 0)
(0.0618641 3.09373e-05 0)
(0.0618099 3.21254e-05 0)
(0.0617561 3.32851e-05 0)
(0.0617027 3.44105e-05 0)
(0.0616499 3.5496e-05 0)
(0.0615975 3.65367e-05 0)
(0.0615455 3.75282e-05 0)
(0.061494 3.84668e-05 0)
(0.0614429 3.93496e-05 0)
(0.0613923 4.01742e-05 0)
(0.0613421 4.09394e-05 0)
(0.0612924 4.16449e-05 0)
(0.0612432 4.22916e-05 0)
(0.0611944 4.28819e-05 0)
(0.0611461 4.34198e-05 0)
(0.0610982 4.39117e-05 0)
(0.0610509 4.43669e-05 0)
(0.061004 4.47984e-05 0)
(0.0609577 4.52243e-05 0)
(0.0609119 4.56699e-05 0)
(0.0608665 4.61701e-05 0)
(0.0608218 4.67731e-05 0)
(0.0607776 4.75508e-05 0)
(0.060734 4.85932e-05 0)
(0.0606911 5.00611e-05 0)
(0.0606489 5.21141e-05 0)
(0.0606075 5.52237e-05 0)
(0.060567 5.92949e-05 0)
(0.0605274 6.61141e-05 0)
(0.0604863 8.02219e-05 0)
(-0.000693457 0.00309351 0)
(-0.00209162 0.00472145 0)
(-0.00255524 0.00495036 0)
(-0.00279437 0.0045033 0)
(-0.00263102 0.00403085 0)
(-0.00238428 0.00356414 0)
(-0.00199237 0.00316016 0)
(-0.00153974 0.00280218 0)
(-0.00101762 0.00248577 0)
(-0.000451589 0.00220232 0)
(0.000156418 0.0019453 0)
(0.000797086 0.0017099 0)
(0.00146781 0.00149185 0)
(0.00216469 0.00128816 0)
(0.002886 0.00109616 0)
(0.00362999 0.000913844 0)
(0.00439572 0.000739466 0)
(0.00518243 0.00057161 0)
(0.00598973 0.000409043 0)
(0.00681737 0.000250716 0)
(0.00766531 9.57003e-05 0)
(0.00853359 -5.68197e-05 0)
(0.00942238 -0.000207577 0)
(0.0103319 -0.000357231 0)
(0.0112625 -0.000506381 0)
(0.0122144 -0.000655572 0)
(0.013188 -0.000805302 0)
(0.0141837 -0.00095602 0)
(0.0152019 -0.00110814 0)
(0.0162428 -0.00126201 0)
(0.0173069 -0.00141796 0)
(0.0183943 -0.00157627 0)
(0.0195054 -0.00173714 0)
(0.0206402 -0.00190075 0)
(0.021799 -0.0020672 0)
(0.0229817 -0.00223655 0)
(0.0241882 -0.00240877 0)
(0.0254184 -0.00258378 0)
(0.0266719 -0.00276141 0)
(0.0279483 -0.00294141 0)
(0.0292471 -0.00312349 0)
(0.0305676 -0.00330722 0)
(0.0319088 -0.00349213 0)
(0.0332698 -0.00367766 0)
(0.0346495 -0.00386315 0)
(0.0360465 -0.0040479 0)
(0.0374593 -0.0042311 0)
(0.0388862 -0.00441188 0)
(0.0403254 -0.00458934 0)
(0.041775 -0.00476248 0)
(0.0432327 -0.00493028 0)
(0.0446962 -0.00509169 0)
(0.0461631 -0.00524562 0)
(0.0476307 -0.00539099 0)
(0.0490964 -0.0055267 0)
(0.0505571 -0.00565169 0)
(0.05201 -0.00576491 0)
(0.053452 -0.00586537 0)
(0.05488 -0.00595213 0)
(0.0562908 -0.00602433 0)
(0.0576811 -0.0060812 0)
(0.059048 -0.00612208 0)
(0.0603881 -0.00614642 0)
(0.0616984 -0.00615378 0)
(0.062976 -0.0061439 0)
(0.0642179 -0.00611662 0)
(0.0654215 -0.00607198 0)
(0.0665842 -0.00601013 0)
(0.0677037 -0.00593141 0)
(0.068778 -0.0058363 0)
(0.0698052 -0.00572543 0)
(0.0707837 -0.00559959 0)
(0.0717122 -0.00545969 0)
(0.0725899 -0.00530676 0)
(0.073416 -0.00514195 0)
(0.0741902 -0.00496648 0)
(0.0749123 -0.00478167 0)
(0.0755826 -0.00458887 0)
(0.0762016 -0.00438948 0)
(0.07677 -0.00418489 0)
(0.0772888 -0.00397651 0)
(0.0777592 -0.00376572 0)
(0.0781826 -0.00355384 0)
(0.0785605 -0.00334217 0)
(0.0788946 -0.0031319 0)