/*--------------------------------*- C++ -*----------------------------------*\
| =========                 |                                                 |
| \\      /  F ield         | OpenFOAM: The Open Source CFD Toolbox           |
|  \\    /   O peration     | Version:  4.1                                   |
|   \\  /    A nd           | Web:      www.OpenFOAM.org                      |
|    \\/     M anipulation  |                                                 |
\*---------------------------------------------------------------------------*/
FoamFile
{
    version     2.0;
    format      ascii;
    class       volScalarField;
    location    "636";
    object      p;
}
// * * * * * * * * * * * * * * * * * * * * * * * * * * * * * * * * * * * * * //

dimensions      [1 -1 -2 0 0 0 0];

internalField   nonuniform List<scalar> 
3264
(
0.712507
0.712506
0.712505
0.712504
0.712504
0.712505
0.712506
0.712508
0.71251
0.712514
0.712518
0.712524
0.71253
0.712537
0.712545
0.712555
0.712565
0.712576
0.712589
0.712602
0.712617
0.712633
0.71265
0.712667
0.712687
0.712707
0.712728
0.712751
0.712774
0.712799
0.712825
0.712853
0.712881
0.712911
0.712943
0.712975
0.713009
0.713044
0.713081
0.713119
0.713158
0.713199
0.713241
0.713284
0.713328
0.713374
0.71342
0.713468
0.713516
0.713565
0.713615
0.713665
0.713715
0.713766
0.713816
0.713866
0.713915
0.713964
0.714012
0.714059
0.714104
0.714149
0.714191
0.714232
0.714271
0.714308
0.714343
0.714376
0.714406
0.714435
0.714461
0.714486
0.714508
0.714528
0.714546
0.714562
0.714577
0.71459
0.714601
0.714611
0.71462
0.714627
0.714634
0.71464
0.714644
0.714649
0.714652
0.714655
0.714658
0.71466
0.714662
0.714664
0.714665
0.714667
0.714668
0.71467
0.714671
0.714672
0.714673
0.714674
0.714676
0.714677
0.714678
0.714679
0.71468
0.714682
0.714683
0.714684
0.714685
0.714686
0.714687
0.714688
0.714689
0.714689
0.71469
0.71469
0.714691
0.714691
0.714691
0.714691
0.714691
0.714691
0.71469
0.71469
0.714689
0.714688
0.714687
0.714686
0.714684
0.714683
0.714681
0.714679
0.714677
0.714675
0.714672
0.71467
0.714667
0.714664
0.714661
0.714658
0.714655
0.714651
0.714648
0.714644
0.71464
0.714636
0.714632
0.714627
0.714623
0.714618
0.714614
0.714609
0.714604
0.714599
0.714594
0.714588
0.714583
0.714577
0.714572
0.714566
0.71456
0.714554
0.714548
0.714542
0.714536
0.71453
0.714524
0.714518
0.714511
0.714505
0.714498
0.714492
0.714485
0.714478
0.714471
0.714465
0.714458
0.714451
0.714444
0.714437
0.71443
0.714423
0.714416
0.714409
0.714401
0.714394
0.714387
0.71438
0.714372
0.714365
0.714358
0.71435
0.714343
0.714335
0.714328
0.714321
0.714313
0.714306
0.714298
0.714291
0.712509
0.712507
0.712507
0.712507
0.712507
0.712507
0.712508
0.71251
0.712513
0.712516
0.71252
0.712525
0.712532
0.712539
0.712547
0.712556
0.712566
0.712578
0.71259
0.712603
0.712618
0.712634
0.71265
0.712668
0.712687
0.712707
0.712729
0.712751
0.712775
0.712799
0.712825
0.712853
0.712881
0.712911
0.712942
0.712975
0.713008
0.713043
0.71308
0.713118
0.713157
0.713197
0.713239
0.713282
0.713326
0.713371
0.713418
0.713465
0.713513
0.713562
0.713611
0.713661
0.713711
0.713762
0.713812
0.713862
0.713911
0.71396
0.714008
0.714054
0.7141
0.714144
0.714187
0.714227
0.714266
0.714303
0.714338
0.714371
0.714402
0.714431
0.714457
0.714481
0.714504
0.714524
0.714542
0.714559
0.714573
0.714587
0.714598
0.714608
0.714617
0.714625
0.714632
0.714637
0.714642
0.714647
0.71465
0.714654
0.714656
0.714659
0.714661
0.714663
0.714665
0.714666
0.714668
0.714669
0.714671
0.714672
0.714673
0.714675
0.714676
0.714677
0.714678
0.71468
0.714681
0.714682
0.714683
0.714684
0.714685
0.714686
0.714687
0.714688
0.714689
0.71469
0.71469
0.714691
0.714691
0.714691
0.714692
0.714692
0.714691
0.714691
0.714691
0.71469
0.714689
0.714688
0.714687
0.714686
0.714685
0.714683
0.714681
0.714679
0.714677
0.714675
0.714673
0.71467
0.714667
0.714665
0.714662
0.714658
0.714655
0.714652
0.714648
0.714644
0.71464
0.714636
0.714632
0.714628
0.714623
0.714618
0.714614
0.714609
0.714604
0.714599
0.714594
0.714588
0.714583
0.714577
0.714572
0.714566
0.71456
0.714554
0.714548
0.714542
0.714536
0.71453
0.714524
0.714517
0.714511
0.714505
0.714498
0.714491
0.714485
0.714478
0.714471
0.714464
0.714458
0.714451
0.714444
0.714437
0.71443
0.714423
0.714415
0.714408
0.714401
0.714394
0.714387
0.714379
0.714372
0.714365
0.714357
0.71435
0.714343
0.714335
0.714328
0.71432
0.714313
0.714306
0.714297
0.714292
0.712511
0.712508
0.712507
0.712507
0.712506
0.712507
0.712508
0.712509
0.712512
0.712515
0.712519
0.712524
0.71253
0.712537
0.712546
0.712555
0.712565
0.712576
0.712589
0.712602
0.712617
0.712632
0.712649
0.712667
0.712686
0.712706
0.712727
0.712749
0.712773
0.712798
0.712824
0.712851
0.712879
0.712909
0.71294
0.712973
0.713006
0.713041
0.713078
0.713115
0.713154
0.713195
0.713236
0.713279
0.713323
0.713368
0.713415
0.713462
0.71351
0.713559
0.713608
0.713658
0.713708
0.713758
0.713809
0.713858
0.713908
0.713956
0.714004
0.714051
0.714097
0.714141
0.714183
0.714224
0.714263
0.7143
0.714335
0.714368
0.714399
0.714427
0.714454
0.714478
0.7145
0.714521
0.714539
0.714555
0.71457
0.714583
0.714595
0.714605
0.714614
0.714622
0.714629
0.714635
0.71464
0.714644
0.714648
0.714652
0.714654
0.714657
0.714659
0.714661
0.714663
0.714665
0.714667
0.714668
0.71467
0.714671
0.714673
0.714674
0.714675
0.714677
0.714678
0.71468
0.714681
0.714682
0.714683
0.714685
0.714686
0.714687
0.714688
0.714689
0.714689
0.71469
0.714691
0.714691
0.714692
0.714692
0.714692
0.714692
0.714692
0.714692
0.714691
0.71469
0.71469
0.714689
0.714688
0.714686
0.714685
0.714683
0.714682
0.71468
0.714678
0.714676
0.714673
0.714671
0.714668
0.714665
0.714662
0.714659
0.714655
0.714652
0.714648
0.714644
0.71464
0.714636
0.714632
0.714628
0.714623
0.714619
0.714614
0.714609
0.714604
0.714599
0.714594
0.714588
0.714583
0.714578
0.714572
0.714566
0.71456
0.714555
0.714549
0.714543
0.714536
0.71453
0.714524
0.714518
0.714511
0.714505
0.714498
0.714491
0.714485
0.714478
0.714471
0.714464
0.714458
0.714451
0.714444
0.714437
0.71443
0.714423
0.714415
0.714408
0.714401
0.714394
0.714387
0.714379
0.714372
0.714365
0.714357
0.71435
0.714342
0.714335
0.714328
0.71432
0.714313
0.714305
0.714297
0.714292
0.712505
0.712504
0.712503
0.712504
0.712504
0.712504
0.712505
0.712507
0.712509
0.712513
0.712517
0.712522
0.712528
0.712535
0.712543
0.712553
0.712563
0.712574
0.712587
0.7126
0.712615
0.71263
0.712647
0.712665
0.712684
0.712704
0.712725
0.712747
0.712771
0.712796
0.712821
0.712849
0.712877
0.712907
0.712937
0.71297
0.713003
0.713038
0.713074
0.713112
0.713151
0.713191
0.713232
0.713275
0.713319
0.713364
0.71341
0.713457
0.713505
0.713554
0.713603
0.713653
0.713703
0.713753
0.713803
0.713853
0.713902
0.713951
0.713998
0.714045
0.71409
0.714134
0.714177
0.714217
0.714256
0.714293
0.714328
0.71436
0.714391
0.714419
0.714446
0.71447
0.714492
0.714512
0.714531
0.714547
0.714562
0.714575
0.714587
0.714597
0.714606
0.714614
0.714621
0.714628
0.714633
0.714638
0.714642
0.714646
0.714649
0.714652
0.714655
0.714657
0.714659
0.714661
0.714663
0.714665
0.714667
0.714669
0.714671
0.714672
0.714674
0.714676
0.714677
0.714679
0.71468
0.714682
0.714683
0.714685
0.714686
0.714687
0.714688
0.714689
0.71469
0.714691
0.714691
0.714692
0.714692
0.714693
0.714693
0.714693
0.714693
0.714692
0.714692
0.714691
0.714691
0.71469
0.714689
0.714687
0.714686
0.714684
0.714683
0.714681
0.714679
0.714676
0.714674
0.714671
0.714669
0.714666
0.714663
0.714659
0.714656
0.714652
0.714649
0.714645
0.714641
0.714637
0.714633
0.714628
0.714624
0.714619
0.714614
0.71461
0.714605
0.714599
0.714594
0.714589
0.714583
0.714578
0.714572
0.714567
0.714561
0.714555
0.714549
0.714543
0.714537
0.71453
0.714524
0.714518
0.714511
0.714505
0.714498
0.714492
0.714485
0.714478
0.714471
0.714465
0.714458
0.714451
0.714444
0.714437
0.71443
0.714423
0.714415
0.714408
0.714401
0.714394
0.714387
0.714379
0.714372
0.714365
0.714357
0.71435
0.714342
0.714335
0.714327
0.71432
0.714312
0.714305
0.714297
0.714292
0.712502
0.712502
0.7125
0.7125
0.712499
0.712499
0.7125
0.712502
0.712505
0.712508
0.712513
0.712518
0.712525
0.712532
0.71254
0.71255
0.71256
0.712571
0.712584
0.712597
0.712612
0.712628
0.712645
0.712662
0.712681
0.712701
0.712723
0.712745
0.712768
0.712793
0.712819
0.712846
0.712874
0.712904
0.712935
0.712967
0.713001
0.713035
0.713072
0.713109
0.713148
0.713188
0.71323
0.713272
0.713316
0.713361
0.713407
0.713454
0.713502
0.713551
0.7136
0.713649
0.713699
0.713749
0.713799
0.713848
0.713897
0.713945
0.713992
0.714038
0.714083
0.714126
0.714168
0.714208
0.714246
0.714282
0.714317
0.714349
0.714379
0.714407
0.714433
0.714456
0.714478
0.714498
0.714516
0.714532
0.714547
0.71456
0.714572
0.714583
0.714592
0.7146
0.714608
0.714614
0.71462
0.714626
0.71463
0.714635
0.714639
0.714642
0.714645
0.714648
0.714651
0.714654
0.714657
0.714659
0.714662
0.714664
0.714666
0.714669
0.714671
0.714673
0.714675
0.714677
0.714679
0.71468
0.714682
0.714684
0.714685
0.714687
0.714688
0.714689
0.71469
0.714691
0.714692
0.714693
0.714693
0.714694
0.714694
0.714694
0.714694
0.714694
0.714693
0.714693
0.714692
0.714691
0.71469
0.714688
0.714687
0.714685
0.714684
0.714682
0.71468
0.714677
0.714675
0.714672
0.71467
0.714667
0.714664
0.71466
0.714657
0.714653
0.71465
0.714646
0.714642
0.714638
0.714633
0.714629
0.714625
0.71462
0.714615
0.71461
0.714605
0.7146
0.714595
0.71459
0.714584
0.714579
0.714573
0.714567
0.714561
0.714556
0.71455
0.714543
0.714537
0.714531
0.714525
0.714518
0.714512
0.714505
0.714499
0.714492
0.714485
0.714479
0.714472
0.714465
0.714458
0.714451
0.714444
0.714437
0.71443
0.714423
0.714416
0.714409
0.714401
0.714394
0.714387
0.714379
0.714372
0.714365
0.714357
0.71435
0.714342
0.714335
0.714327
0.71432
0.714312
0.714305
0.714297
0.714291
0.71247
0.712485
0.712485
0.712491
0.712492
0.712494
0.712496
0.712499
0.712502
0.712506
0.71251
0.712516
0.712522
0.71253
0.712538
0.712548
0.712558
0.71257
0.712582
0.712596
0.712611
0.712626
0.712643
0.712661
0.71268
0.7127
0.712721
0.712744
0.712767
0.712792
0.712818
0.712845
0.712873
0.712903
0.712934
0.712966
0.713
0.713035
0.713071
0.713108
0.713147
0.713187
0.713229
0.713271
0.713315
0.71336
0.713406
0.713453
0.7135
0.713549
0.713598
0.713647
0.713696
0.713745
0.713794
0.713843
0.713891
0.713938
0.713984
0.71403
0.714073
0.714116
0.714156
0.714195
0.714232
0.714267
0.7143
0.714331
0.71436
0.714387
0.714412
0.714435
0.714456
0.714476
0.714493
0.714509
0.714524
0.714537
0.714549
0.71456
0.71457
0.714578
0.714586
0.714594
0.7146
0.714606
0.714612
0.714617
0.714622
0.714626
0.714631
0.714635
0.714639
0.714642
0.714646
0.714649
0.714653
0.714656
0.714659
0.714662
0.714665
0.714668
0.714671
0.714673
0.714676
0.714678
0.71468
0.714682
0.714684
0.714686
0.714688
0.714689
0.71469
0.714692
0.714693
0.714693
0.714694
0.714695
0.714695
0.714695
0.714695
0.714695
0.714695
0.714694
0.714693
0.714692
0.714691
0.71469
0.714689
0.714687
0.714685
0.714683
0.714681
0.714679
0.714676
0.714674
0.714671
0.714668
0.714665
0.714662
0.714658
0.714655
0.714651
0.714647
0.714643
0.714639
0.714635
0.71463
0.714626
0.714621
0.714616
0.714611
0.714606
0.714601
0.714596
0.714591
0.714585
0.71458
0.714574
0.714568
0.714562
0.714556
0.71455
0.714544
0.714538
0.714532
0.714526
0.714519
0.714513
0.714506
0.7145
0.714493
0.714486
0.71448
0.714473
0.714466
0.714459
0.714452
0.714445
0.714438
0.714431
0.714424
0.714416
0.714409
0.714402
0.714395
0.714387
0.71438
0.714372
0.714365
0.714358
0.71435
0.714342
0.714335
0.714327
0.71432
0.714312
0.714304
0.714297
0.71429
0.71247
0.712486
0.712484
0.712488
0.712488
0.712491
0.712493
0.712496
0.712499
0.712504
0.712509
0.712515
0.712522
0.712529
0.712538
0.712548
0.712558
0.71257
0.712582
0.712596
0.712611
0.712627
0.712644
0.712662
0.712681
0.712701
0.712722
0.712745
0.712768
0.712793
0.712819
0.712847
0.712875
0.712905
0.712936
0.712969
0.713002
0.713037
0.713074
0.713111
0.71315
0.713191
0.713232
0.713275
0.713319
0.713363
0.713409
0.713456
0.713503
0.713551
0.713599
0.713647
0.713696
0.713744
0.713792
0.71384
0.713886
0.713932
0.713977
0.71402
0.714063
0.714103
0.714142
0.714179
0.714214
0.714248
0.714279
0.714309
0.714336
0.714362
0.714385
0.714407
0.714428
0.714446
0.714463
0.714479
0.714493
0.714506
0.714518
0.714529
0.71454
0.714549
0.714558
0.714566
0.714574
0.714581
0.714587
0.714594
0.7146
0.714606
0.714611
0.714617
0.714622
0.714627
0.714632
0.714636
0.714641
0.714645
0.714649
0.714653
0.714657
0.714661
0.714665
0.714668
0.714671
0.714674
0.714677
0.71468
0.714682
0.714684
0.714687
0.714688
0.71469
0.714692
0.714693
0.714694
0.714695
0.714696
0.714696
0.714696
0.714697
0.714697
0.714696
0.714696
0.714695
0.714694
0.714693
0.714692
0.71469
0.714689
0.714687
0.714685
0.714683
0.714681
0.714678
0.714675
0.714673
0.71467
0.714667
0.714663
0.71466
0.714656
0.714652
0.714649
0.714645
0.71464
0.714636
0.714632
0.714627
0.714622
0.714618
0.714613
0.714608
0.714603
0.714597
0.714592
0.714586
0.714581
0.714575
0.71457
0.714564
0.714558
0.714552
0.714546
0.714539
0.714533
0.714527
0.71452
0.714514
0.714507
0.714501
0.714494
0.714487
0.714481
0.714474
0.714467
0.71446
0.714453
0.714446
0.714439
0.714432
0.714425
0.714417
0.71441
0.714403
0.714395
0.714388
0.714381
0.714373
0.714366
0.714358
0.714351
0.714343
0.714335
0.714328
0.71432
0.714312
0.714304
0.714296
0.714289
0.712316
0.712454
0.712471
0.712492
0.712495
0.712498
0.712499
0.712502
0.712505
0.712508
0.712513
0.712519
0.712525
0.712532
0.712541
0.71255
0.712561
0.712573
0.712585
0.712599
0.712614
0.71263
0.712647
0.712665
0.712684
0.712705
0.712726
0.712749
0.712773
0.712798
0.712825
0.712852
0.712881
0.712912
0.712943
0.712976
0.71301
0.713046
0.713082
0.71312
0.71316
0.7132
0.713242
0.713284
0.713328
0.713373
0.713418
0.713464
0.713511
0.713558
0.713605
0.713653
0.7137
0.713747
0.713793
0.713839
0.713884
0.713928
0.71397
0.714012
0.714052
0.71409
0.714126
0.714161
0.714194
0.714225
0.714254
0.714282
0.714307
0.714331
0.714353
0.714374
0.714393
0.714411
0.714427
0.714442
0.714457
0.71447
0.714482
0.714494
0.714505
0.714515
0.714525
0.714534
0.714543
0.714552
0.71456
0.714568
0.714575
0.714583
0.71459
0.714597
0.714603
0.71461
0.714616
0.714622
0.714628
0.714633
0.714639
0.714644
0.714649
0.714653
0.714658
0.714662
0.714666
0.71467
0.714674
0.714677
0.71468
0.714683
0.714685
0.714688
0.71469
0.714692
0.714693
0.714695
0.714696
0.714697
0.714697
0.714698
0.714698
0.714698
0.714698
0.714698
0.714697
0.714696
0.714695
0.714694
0.714693
0.714691
0.714689
0.714687
0.714685
0.714683
0.71468
0.714677
0.714675
0.714672
0.714668
0.714665
0.714662
0.714658
0.714654
0.71465
0.714646
0.714642
0.714638
0.714633
0.714629
0.714624
0.714619
0.714614
0.714609
0.714604
0.714599
0.714594
0.714588
0.714582
0.714577
0.714571
0.714565
0.714559
0.714553
0.714547
0.714541
0.714535
0.714528
0.714522
0.714516
0.714509
0.714502
0.714496
0.714489
0.714482
0.714475
0.714468
0.714461
0.714454
0.714447
0.71444
0.714433
0.714426
0.714419
0.714411
0.714404
0.714397
0.714389
0.714382
0.714374
0.714367
0.714359
0.714351
0.714344
0.714336
0.714328
0.71432
0.714312
0.714304
0.714296
0.714288
0.713038
0.712982
0.71292
0.712853
0.71278
0.712703
0.712616
0.712499
0.713044
0.712998
0.712935
0.712866
0.712793
0.712716
0.712626
0.71253
0.713048
0.713009
0.712951
0.712886
0.712817
0.712745
0.712675
0.712605
0.713058
0.713024
0.712971
0.71291
0.712846
0.712781
0.712718
0.71266
0.71307
0.713038
0.712989
0.712932
0.712873
0.712816
0.712762
0.712713
0.713084
0.713051
0.713003
0.712949
0.712894
0.712842
0.712794
0.712751
0.713099
0.713062
0.713012
0.712959
0.712908
0.712859
0.712815
0.712775
0.713107
0.713059
0.713009
0.712959
0.71291
0.712864
0.712821
0.712781
0.712439
0.712459
0.71248
0.712491
0.712496
0.7125
0.712502
0.712505
0.712508
0.712512
0.712516
0.712522
0.712529
0.712536
0.712545
0.712555
0.712565
0.712577
0.71259
0.712604
0.712619
0.712636
0.712653
0.712672
0.712692
0.712713
0.712735
0.712758
0.712783
0.712808
0.712836
0.712864
0.712893
0.712924
0.712957
0.71299
0.713025
0.713061
0.713098
0.713137
0.713176
0.713217
0.713259
0.713302
0.713345
0.71339
0.713435
0.71348
0.713526
0.713572
0.713618
0.713664
0.71371
0.713755
0.713799
0.713842
0.713885
0.713926
0.713966
0.714004
0.714041
0.714077
0.71411
0.714142
0.714172
0.714201
0.714227
0.714253
0.714276
0.714298
0.714319
0.714338
0.714357
0.714374
0.71439
0.714405
0.714419
0.714433
0.714446
0.714458
0.71447
0.714482
0.714493
0.714503
0.714513
0.714523
0.714533
0.714543
0.714552
0.714561
0.714569
0.714577
0.714586
0.714593
0.714601
0.714608
0.714615
0.714622
0.714629
0.714635
0.714641
0.714646
0.714652
0.714657
0.714662
0.714666
0.71467
0.714674
0.714678
0.714681
0.714684
0.714687
0.71469
0.714692
0.714694
0.714695
0.714697
0.714698
0.714699
0.7147
0.7147
0.7147
0.7147
0.7147
0.714699
0.714698
0.714697
0.714696
0.714695
0.714693
0.714691
0.714689
0.714687
0.714685
0.714682
0.71468
0.714677
0.714674
0.71467
0.714667
0.714664
0.71466
0.714656
0.714652
0.714648
0.714644
0.71464
0.714635
0.714631
0.714626
0.714621
0.714616
0.714611
0.714606
0.714601
0.714595
0.71459
0.714584
0.714579
0.714573
0.714567
0.714561
0.714555
0.714549
0.714543
0.714536
0.71453
0.714524
0.714517
0.714511
0.714504
0.714497
0.714491
0.714484
0.714477
0.71447
0.714463
0.714456
0.714449
0.714442
0.714435
0.714427
0.71442
0.714413
0.714405
0.714398
0.71439
0.714383
0.714375
0.714368
0.71436
0.714352
0.714344
0.714337
0.714329
0.714321
0.714313
0.714304
0.714296
0.714288
0.712459
0.712469
0.712483
0.712495
0.712502
0.712507
0.71251
0.712513
0.712516
0.71252
0.712524
0.71253
0.712536
0.712544
0.712553
0.712563
0.712574
0.712586
0.712599
0.712613
0.712629
0.712646
0.712664
0.712683
0.712704
0.712725
0.712748
0.712772
0.712798
0.712825
0.712853
0.712882
0.712912
0.712944
0.712977
0.713012
0.713047
0.713084
0.713122
0.713161
0.713201
0.713242
0.713284
0.713327
0.71337
0.713414
0.713458
0.713503
0.713548
0.713592
0.713637
0.713681
0.713724
0.713767
0.713808
0.713849
0.713888
0.713926
0.713963
0.713998
0.714032
0.714064
0.714095
0.714124
0.714151
0.714177
0.714201
0.714224
0.714246
0.714267
0.714287
0.714305
0.714323
0.71434
0.714356
0.714371
0.714386
0.7144
0.714414
0.714428
0.714441
0.714453
0.714466
0.714478
0.714489
0.714501
0.714512
0.714522
0.714533
0.714543
0.714553
0.714563
0.714572
0.714581
0.714589
0.714598
0.714606
0.714614
0.714621
0.714628
0.714635
0.714641
0.714647
0.714653
0.714658
0.714663
0.714668
0.714673
0.714677
0.71468
0.714684
0.714687
0.71469
0.714692
0.714695
0.714696
0.714698
0.714699
0.7147
0.714701
0.714702
0.714702
0.714702
0.714702
0.714701
0.7147
0.714699
0.714698
0.714697
0.714695
0.714693
0.714691
0.714689
0.714687
0.714684
0.714682
0.714679
0.714676
0.714672
0.714669
0.714665
0.714662
0.714658
0.714654
0.71465
0.714646
0.714641
0.714637
0.714632
0.714628
0.714623
0.714618
0.714613
0.714608
0.714602
0.714597
0.714591
0.714586
0.71458
0.714574
0.714569
0.714563
0.714557
0.714551
0.714544
0.714538
0.714532
0.714525
0.714519
0.714512
0.714506
0.714499
0.714492
0.714485
0.714479
0.714472
0.714465
0.714457
0.71445
0.714443
0.714436
0.714429
0.714421
0.714414
0.714406
0.714399
0.714391
0.714384
0.714376
0.714369
0.714361
0.714353
0.714345
0.714337
0.714329
0.714321
0.714313
0.714305
0.714296
0.714288
0.712553
0.712529
0.712523
0.712523
0.712524
0.712525
0.712526
0.712527
0.712529
0.712532
0.712536
0.712541
0.712547
0.712555
0.712563
0.712573
0.712585
0.712597
0.712611
0.712626
0.712642
0.71266
0.712678
0.712698
0.71272
0.712742
0.712766
0.712791
0.712818
0.712846
0.712875
0.712905
0.712937
0.712969
0.713004
0.713039
0.713075
0.713113
0.713151
0.713191
0.713231
0.713272
0.713314
0.713357
0.7134
0.713443
0.713486
0.713529
0.713572
0.713615
0.713657
0.713699
0.71374
0.713779
0.713818
0.713856
0.713892
0.713927
0.71396
0.713993
0.714023
0.714052
0.71408
0.714107
0.714132
0.714156
0.714179
0.714201
0.714221
0.714241
0.71426
0.714279
0.714297
0.714314
0.71433
0.714346
0.714362
0.714377
0.714392
0.714406
0.71442
0.714434
0.714447
0.71446
0.714473
0.714485
0.714498
0.714509
0.714521
0.714532
0.714543
0.714553
0.714563
0.714573
0.714582
0.714591
0.7146
0.714608
0.714616
0.714624
0.714631
0.714638
0.714645
0.714651
0.714657
0.714662
0.714667
0.714672
0.714676
0.71468
0.714684
0.714687
0.71469
0.714693
0.714695
0.714697
0.714699
0.714701
0.714702
0.714703
0.714703
0.714704
0.714704
0.714703
0.714703
0.714702
0.714701
0.7147
0.714699
0.714697
0.714695
0.714693
0.714691
0.714689
0.714686
0.714683
0.71468
0.714677
0.714674
0.714671
0.714667
0.714663
0.71466
0.714656
0.714652
0.714647
0.714643
0.714638
0.714634
0.714629
0.714624
0.714619
0.714614
0.714609
0.714604
0.714598
0.714593
0.714587
0.714582
0.714576
0.71457
0.714564
0.714558
0.714552
0.714546
0.71454
0.714533
0.714527
0.71452
0.714514
0.714507
0.7145
0.714494
0.714487
0.71448
0.714473
0.714466
0.714459
0.714452
0.714444
0.714437
0.71443
0.714423
0.714415
0.714408
0.7144
0.714392
0.714385
0.714377
0.714369
0.714362
0.714354
0.714346
0.714338
0.71433
0.714322
0.714314
0.714305
0.714297
0.714288
0.712614
0.712586
0.712571
0.712563
0.712558
0.712554
0.712551
0.71255
0.71255
0.712551
0.712553
0.712557
0.712562
0.712569
0.712577
0.712587
0.712598
0.712611
0.712625
0.71264
0.712657
0.712675
0.712694
0.712715
0.712737
0.712761
0.712785
0.712812
0.712839
0.712868
0.712898
0.712929
0.712962
0.712995
0.71303
0.713066
0.713103
0.713141
0.71318
0.71322
0.713261
0.713302
0.713343
0.713385
0.713427
0.713469
0.713511
0.713552
0.713594
0.713634
0.713674
0.713713
0.713752
0.713789
0.713825
0.713859
0.713893
0.713925
0.713956
0.713986
0.714014
0.714042
0.714068
0.714093
0.714117
0.71414
0.714162
0.714183
0.714204
0.714224
0.714243
0.714262
0.71428
0.714298
0.714315
0.714332
0.714348
0.714364
0.714379
0.714394
0.714409
0.714423
0.714437
0.714451
0.714464
0.714477
0.71449
0.714502
0.714514
0.714526
0.714537
0.714548
0.714558
0.714569
0.714578
0.714588
0.714597
0.714606
0.714614
0.714622
0.71463
0.714637
0.714644
0.71465
0.714656
0.714662
0.714667
0.714672
0.714677
0.714681
0.714685
0.714688
0.714691
0.714694
0.714696
0.714699
0.7147
0.714702
0.714703
0.714704
0.714705
0.714705
0.714705
0.714705
0.714704
0.714704
0.714703
0.714702
0.7147
0.714699
0.714697
0.714695
0.714693
0.71469
0.714688
0.714685
0.714682
0.714679
0.714676
0.714672
0.714669
0.714665
0.714661
0.714657
0.714653
0.714649
0.714644
0.71464
0.714635
0.71463
0.714626
0.714621
0.714615
0.71461
0.714605
0.7146
0.714594
0.714589
0.714583
0.714577
0.714571
0.714565
0.714559
0.714553
0.714547
0.714541
0.714534
0.714528
0.714521
0.714515
0.714508
0.714502
0.714495
0.714488
0.714481
0.714474
0.714467
0.71446
0.714453
0.714445
0.714438
0.714431
0.714423
0.714416
0.714408
0.714401
0.714393
0.714386
0.714378
0.71437
0.714362
0.714354
0.714346
0.714338
0.71433
0.714322
0.714314
0.714306
0.714297
0.714288
0.712674
0.712644
0.712624
0.712609
0.712597
0.712588
0.712581
0.712576
0.712572
0.71257
0.712571
0.712573
0.712577
0.712583
0.71259
0.712599
0.71261
0.712623
0.712637
0.712653
0.71267
0.712688
0.712708
0.71273
0.712753
0.712777
0.712802
0.712829
0.712857
0.712887
0.712918
0.71295
0.712983
0.713017
0.713053
0.713089
0.713126
0.713165
0.713203
0.713243
0.713283
0.713324
0.713364
0.713405
0.713446
0.713487
0.713527
0.713567
0.713607
0.713646
0.713684
0.713721
0.713757
0.713792
0.713826
0.713859
0.713891
0.713921
0.713951
0.713979
0.714007
0.714033
0.714059
0.714083
0.714107
0.71413
0.714152
0.714174
0.714194
0.714215
0.714234
0.714253
0.714272
0.71429
0.714307
0.714325
0.714341
0.714358
0.714373
0.714389
0.714404
0.714419
0.714433
0.714447
0.71446
0.714474
0.714487
0.714499
0.714511
0.714523
0.714535
0.714546
0.714557
0.714567
0.714577
0.714587
0.714596
0.714605
0.714613
0.714621
0.714629
0.714636
0.714643
0.71465
0.714656
0.714662
0.714667
0.714672
0.714677
0.714681
0.714685
0.714689
0.714692
0.714695
0.714697
0.714699
0.714701
0.714703
0.714704
0.714705
0.714706
0.714706
0.714706
0.714706
0.714706
0.714705
0.714704
0.714703
0.714701
0.7147
0.714698
0.714696
0.714694
0.714691
0.714689
0.714686
0.714683
0.71468
0.714677
0.714673
0.71467
0.714666
0.714662
0.714658
0.714654
0.71465
0.714645
0.714641
0.714636
0.714631
0.714626
0.714621
0.714616
0.714611
0.714606
0.7146
0.714595
0.714589
0.714584
0.714578
0.714572
0.714566
0.71456
0.714554
0.714548
0.714542
0.714535
0.714529
0.714522
0.714516
0.714509
0.714502
0.714495
0.714489
0.714482
0.714475
0.714468
0.71446
0.714453
0.714446
0.714439
0.714431
0.714424
0.714416
0.714409
0.714401
0.714394
0.714386
0.714378
0.71437
0.714363
0.714355
0.714347
0.714339
0.714331
0.714322
0.714314
0.714306
0.714298
0.714288
0.712715
0.712685
0.712661
0.712642
0.712625
0.712612
0.712601
0.712592
0.712586
0.712582
0.712581
0.712582
0.712585
0.71259
0.712597
0.712606
0.712617
0.71263
0.712644
0.71266
0.712677
0.712696
0.712716
0.712738
0.712762
0.712786
0.712812
0.71284
0.712868
0.712898
0.712929
0.712961
0.712995
0.713029
0.713065
0.713101
0.713138
0.713176
0.713215
0.713254
0.713294
0.713334
0.713373
0.713414
0.713453
0.713493
0.713532
0.713571
0.71361
0.713647
0.713684
0.71372
0.713755
0.713789
0.713822
0.713854
0.713886
0.713916
0.713945
0.713973
0.714001
0.714027
0.714053
0.714078
0.714102
0.714125
0.714147
0.714169
0.71419
0.714211
0.714231
0.71425
0.714269
0.714287
0.714305
0.714322
0.714339
0.714355
0.714371
0.714387
0.714402
0.714417
0.714431
0.714445
0.714459
0.714473
0.714486
0.714498
0.714511
0.714523
0.714534
0.714545
0.714556
0.714567
0.714577
0.714586
0.714596
0.714605
0.714613
0.714621
0.714629
0.714637
0.714644
0.71465
0.714656
0.714662
0.714668
0.714673
0.714678
0.714682
0.714686
0.714689
0.714693
0.714696
0.714698
0.7147
0.714702
0.714704
0.714705
0.714706
0.714707
0.714707
0.714707
0.714707
0.714707
0.714706
0.714705
0.714704
0.714702
0.714701
0.714699
0.714697
0.714695
0.714692
0.71469
0.714687
0.714684
0.714681
0.714677
0.714674
0.71467
0.714667
0.714663
0.714659
0.714655
0.71465
0.714646
0.714641
0.714637
0.714632
0.714627
0.714622
0.714617
0.714612
0.714607
0.714601
0.714596
0.71459
0.714584
0.714579
0.714573
0.714567
0.714561
0.714555
0.714548
0.714542
0.714536
0.714529
0.714523
0.714516
0.714509
0.714503
0.714496
0.714489
0.714482
0.714475
0.714468
0.714461
0.714454
0.714446
0.714439
0.714432
0.714424
0.714417
0.714409
0.714401
0.714394
0.714386
0.714378
0.71437
0.714363
0.714355
0.714347
0.714339
0.714331
0.714322
0.714314
0.714306
0.714298
0.714288
0.712739
0.712709
0.712682
0.712659
0.71264
0.712624
0.71261
0.7126
0.712592
0.712587
0.712585
0.712586
0.712588
0.712593
0.7126
0.712609
0.71262
0.712633
0.712647
0.712663
0.71268
0.712699
0.71272
0.712742
0.712765
0.71279
0.712816
0.712844
0.712872
0.712902
0.712933
0.712966
0.712999
0.713033
0.713069
0.713105
0.713142
0.713179
0.713218
0.713256
0.713295
0.713335
0.713374
0.713414
0.713453
0.713492
0.713531
0.713569
0.713607
0.713644
0.713681
0.713717
0.713752
0.713786
0.713819
0.713851
0.713883
0.713913
0.713942
0.713971
0.713998
0.714025
0.71405
0.714075
0.714099
0.714123
0.714145
0.714167
0.714188
0.714209
0.714229
0.714248
0.714267
0.714286
0.714304
0.714321
0.714338
0.714354
0.71437
0.714386
0.714401
0.714416
0.714431
0.714445
0.714459
0.714472
0.714485
0.714498
0.71451
0.714522
0.714534
0.714545
0.714556
0.714567
0.714577
0.714587
0.714596
0.714605
0.714613
0.714622
0.71463
0.714637
0.714644
0.714651
0.714657
0.714663
0.714668
0.714673
0.714678
0.714682
0.714686
0.71469
0.714693
0.714696
0.714699
0.714701
0.714703
0.714704
0.714706
0.714706
0.714707
0.714708
0.714708
0.714707
0.714707
0.714706
0.714705
0.714704
0.714703
0.714701
0.714699
0.714697
0.714695
0.714693
0.71469
0.714687
0.714684
0.714681
0.714678
0.714674
0.714671
0.714667
0.714663
0.714659
0.714655
0.714651
0.714646
0.714642
0.714637
0.714632
0.714627
0.714622
0.714617
0.714612
0.714607
0.714601
0.714596
0.71459
0.714585
0.714579
0.714573
0.714567
0.714561
0.714555
0.714549
0.714542
0.714536
0.714529
0.714523
0.714516
0.71451
0.714503
0.714496
0.714489
0.714482
0.714475
0.714468
0.714461
0.714454
0.714446
0.714439
0.714432
0.714424
0.714417
0.714409
0.714401
0.714394
0.714386
0.714378
0.71437
0.714363
0.714355
0.714347
0.714339
0.714331
0.714322
0.714314
0.714306
0.714298
0.714289
0.712745
0.712713
0.712684
0.712659
0.712638
0.71262
0.712606
0.712595
0.712587
0.712582
0.71258
0.712581
0.712583
0.712588
0.712595
0.712604
0.712615
0.712628
0.712642
0.712658
0.712676
0.712695
0.712716
0.712738
0.712761
0.712786
0.712812
0.712839
0.712868
0.712898
0.712929
0.712961
0.712994
0.713028
0.713063
0.713099
0.713136
0.713174
0.713212
0.71325
0.713289
0.713329
0.713368
0.713408
0.713447
0.713487
0.713526
0.713564
0.713602
0.71364
0.713676
0.713712
0.713747
0.713782
0.713815
0.713847
0.713879
0.713909
0.713939
0.713968
0.713995
0.714022
0.714048
0.714073
0.714098
0.714121
0.714144
0.714166
0.714187
0.714208
0.714228
0.714248
0.714267
0.714285
0.714303
0.714321
0.714338
0.714354
0.714371
0.714386
0.714402
0.714417
0.714431
0.714446
0.714459
0.714473
0.714486
0.714499
0.714511
0.714523
0.714535
0.714546
0.714557
0.714568
0.714578
0.714588
0.714597
0.714606
0.714615
0.714623
0.714631
0.714638
0.714645
0.714652
0.714658
0.714664
0.714669
0.714674
0.714679
0.714683
0.714687
0.714691
0.714694
0.714697
0.7147
0.714702
0.714704
0.714705
0.714707
0.714708
0.714708
0.714709
0.714709
0.714708
0.714708
0.714707
0.714706
0.714705
0.714704
0.714702
0.7147
0.714698
0.714696
0.714694
0.714691
0.714688
0.714685
0.714682
0.714679
0.714675
0.714672
0.714668
0.714664
0.71466
0.714656
0.714651
0.714647
0.714642
0.714638
0.714633
0.714628
0.714623
0.714618
0.714613
0.714607
0.714602
0.714596
0.714591
0.714585
0.714579
0.714573
0.714567
0.714561
0.714555
0.714549
0.714543
0.714536
0.71453
0.714523
0.714517
0.71451
0.714503
0.714496
0.714489
0.714482
0.714475
0.714468
0.714461
0.714454
0.714446
0.714439
0.714432
0.714424
0.714417
0.714409
0.714401
0.714394
0.714386
0.714378
0.71437
0.714362
0.714355
0.714347
0.714338
0.71433
0.714322
0.714314
0.714306
0.714298
0.714289
)
;

boundaryField
{
    inlet
    {
        type            zeroGradient;
    }
    outlet
    {