/*--------------------------------*- C++ -*----------------------------------*\
| =========                 |                                                 |
| \\      /  F ield         | OpenFOAM: The Open Source CFD Toolbox           |
|  \\    /   O peration     | Version:  4.1                                   |
|   \\  /    A nd           | Web:      www.OpenFOAM.org                      |
|    \\/     M anipulation  |                                                 |
\*---------------------------------------------------------------------------*/
FoamFile
{
    version     2.0;
    format      ascii;
    class       volVectorField;
    location    "597";
    object      U;
}
// * * * * * * * * * * * * * * * * * * * * * * * * * * * * * * * * * * * * * //

dimensions      [0 1 -1 0 0 0 0];

internalField   nonuniform List<vector> 
3264
(
(-2.64671e-06 -4.91716e-07 0)
(-0.00013315 3.05542e-05 0)
(-0.000389785 4.86576e-05 0)
(-0.000677098 5.09952e-05 0)
(-0.00097913 5.27206e-05 0)
(-0.00128526 5.21258e-05 0)
(-0.00159017 5.34263e-05 0)
(-0.00189523 5.40704e-05 0)
(-0.00219584 5.51757e-05 0)
(-0.00249273 5.58041e-05 0)
(-0.00278334 5.63661e-05 0)
(-0.00306788 5.66181e-05 0)
(-0.0033453 5.67233e-05 0)
(-0.00361571 5.66449e-05 0)
(-0.0038788 5.64578e-05 0)
(-0.00413471 5.61764e-05 0)
(-0.00438347 5.58417e-05 0)
(-0.00462527 5.54753e-05 0)
(-0.00486028 5.51032e-05 0)
(-0.0050887 5.47439e-05 0)
(-0.00531076 5.44153e-05 0)
(-0.00552667 5.41314e-05 0)
(-0.00573663 5.39045e-05 0)
(-0.0059408 5.37434e-05 0)
(-0.00613933 5.36545e-05 0)
(-0.00633232 5.36401e-05 0)
(-0.00651977 5.36987e-05 0)
(-0.00670164 5.38236e-05 0)
(-0.00687778 5.40025e-05 0)
(-0.00704793 5.42164e-05 0)
(-0.0072117 5.44394e-05 0)
(-0.00736858 5.46373e-05 0)
(-0.00751788 5.47681e-05 0)
(-0.00765876 5.47816e-05 0)
(-0.00779019 5.46198e-05 0)
(-0.00791099 5.42181e-05 0)
(-0.0080198 5.3506e-05 0)
(-0.00811508 5.24098e-05 0)
(-0.00819515 5.08543e-05 0)
(-0.00825821 4.87656e-05 0)
(-0.00830235 4.60746e-05 0)
(-0.00832558 4.27192e-05 0)
(-0.00832589 3.86484e-05 0)
(-0.00830128 3.38244e-05 0)
(-0.00824979 2.82253e-05 0)
(-0.00816959 2.18474e-05 0)
(-0.00805897 1.47064e-05 0)
(-0.00791642 6.83811e-06 0)
(-0.0077407 -1.70133e-06 0)
(-0.0075308 -1.08362e-05 0)
(-0.00728605 -2.04725e-05 0)
(-0.00700611 -3.04996e-05 0)
(-0.00669102 -4.07929e-05 0)
(-0.00634118 -5.12166e-05 0)
(-0.00595739 -6.16263e-05 0)
(-0.00554084 -7.18732e-05 0)
(-0.00509311 -8.18067e-05 0)
(-0.00461614 -9.12784e-05 0)
(-0.00411223 -0.000100145 0)
(-0.00358402 -0.000108273 0)
(-0.00303442 -0.00011554 0)
(-0.00246662 -0.000121838 0)
(-0.00188403 -0.000127077 0)
(-0.00129021 -0.000131185 0)
(-0.000688871 -0.000134113 0)
(-8.37734e-05 -0.000135833 0)
(0.000521292 -0.000136338 0)
(0.00112257 -0.000135648 0)
(0.0017164 -0.0001338 0)
(0.00229925 -0.000130855 0)
(0.00286779 -0.000126893 0)
(0.0034189 -0.00012201 0)
(0.00394975 -0.000116317 0)
(0.00445781 -0.000109935 0)
(0.00494088 -0.000102993 0)
(0.00539713 -9.56248e-05 0)
(0.00582507 -8.79636e-05 0)
(0.00622361 -8.01402e-05 0)
(0.006592 -7.22794e-05 0)
(0.00692988 -6.44971e-05 0)
(0.00723721 -5.68978e-05 0)
(0.00751429 -4.95731e-05 0)
(0.0077617 -4.26005e-05 0)
(0.0079803 -3.60422e-05 0)
(0.00817115 -2.99457e-05 0)
(0.00833554 -2.43437e-05 0)
(0.0084749 -1.92552e-05 0)
(0.00859076 -1.46867e-05 0)
(0.00868478 -1.06337e-05 0)
(0.00875863 -7.08232e-06 0)
(0.00881403 -4.01091e-06 0)
(0.00885269 -1.39209e-06 0)
(0.00887629 8.05832e-07 0)
(0.00888646 2.61724e-06 0)
(0.00888478 4.07792e-06 0)
(0.00887273 5.2239e-06 0)
(0.00885172 6.09051e-06 0)
(0.00882307 6.7117e-06 0)
(0.008788 7.11947e-06 0)
(0.00874762 7.34357e-06 0)
(0.00870295 7.41125e-06 0)
(0.00865492 7.34722e-06 0)
(0.00860435 7.17362e-06 0)
(0.00855198 6.91018e-06 0)
(0.00849847 6.57428e-06 0)
(0.00844438 6.18118e-06 0)
(0.00839022 5.74414e-06 0)
(0.00833643 5.2747e-06 0)
(0.00828335 4.78276e-06 0)
(0.00823132 4.27683e-06 0)
(0.00818058 3.76417e-06 0)
(0.00813135 3.2509e-06 0)
(0.0080838 2.7422e-06 0)
(0.00803807 2.24237e-06 0)
(0.00799425 1.75497e-06 0)
(0.00795242 1.28289e-06 0)
(0.00791262 8.28428e-07 0)
(0.00787489 3.93387e-07 0)
(0.00783922 -2.08843e-08 0)
(0.00780562 -4.13425e-07 0)
(0.00777407 -7.83615e-07 0)
(0.00774452 -1.13113e-06 0)
(0.00771695 -1.4559e-06 0)
(0.0076913 -1.75808e-06 0)
(0.00766752 -2.038e-06 0)
(0.00764556 -2.29616e-06 0)
(0.00762536 -2.53318e-06 0)
(0.00760686 -2.7498e-06 0)
(0.00759 -2.94685e-06 0)
(0.00757471 -3.12522e-06 0)
(0.00756095 -3.28586e-06 0)
(0.00754865 -3.42975e-06 0)
(0.00753776 -3.55792e-06 0)
(0.00752822 -3.67139e-06 0)
(0.00751999 -3.77121e-06 0)
(0.00751301 -3.8584e-06 0)
(0.00750725 -3.93401e-06 0)
(0.00750266 -3.99904e-06 0)
(0.00749921 -4.05449e-06 0)
(0.00749686 -4.10132e-06 0)
(0.00749558 -4.14048e-06 0)
(0.00749534 -4.17288e-06 0)
(0.00749612 -4.19939e-06 0)
(0.0074979 -4.22086e-06 0)
(0.00750066 -4.23808e-06 0)
(0.00750439 -4.25184e-06 0)
(0.00750907 -4.26284e-06 0)
(0.00751468 -4.27178e-06 0)
(0.00752123 -4.27931e-06 0)
(0.00752871 -4.28603e-06 0)
(0.00753711 -4.2925e-06 0)
(0.00754643 -4.29926e-06 0)
(0.00755667 -4.30678e-06 0)
(0.00756783 -4.31552e-06 0)
(0.00757991 -4.32587e-06 0)
(0.00759291 -4.33821e-06 0)
(0.00760684 -4.35286e-06 0)
(0.00762169 -4.37011e-06 0)
(0.00763748 -4.39021e-06 0)
(0.0076542 -4.41338e-06 0)
(0.00767187 -4.43979e-06 0)
(0.00769047 -4.46957e-06 0)
(0.00771002 -4.50284e-06 0)
(0.00773052 -4.53966e-06 0)
(0.00775197 -4.58004e-06 0)
(0.00777436 -4.624e-06 0)
(0.0077977 -4.67147e-06 0)
(0.00782199 -4.72239e-06 0)
(0.00784722 -4.77664e-06 0)
(0.00787338 -4.83406e-06 0)
(0.00790046 -4.89447e-06 0)
(0.00792847 -4.95765e-06 0)
(0.00795737 -5.02335e-06 0)
(0.00798716 -5.09128e-06 0)
(0.00801783 -5.16111e-06 0)
(0.00804933 -5.2325e-06 0)
(0.00808167 -5.30507e-06 0)
(0.0081148 -5.37841e-06 0)
(0.0081487 -5.45208e-06 0)
(0.00818333 -5.52561e-06 0)
(0.00821866 -5.59851e-06 0)
(0.00825464 -5.67027e-06 0)
(0.00829124 -5.74034e-06 0)
(0.0083284 -5.80815e-06 0)
(0.00836608 -5.87314e-06 0)
(0.00840422 -5.93472e-06 0)
(0.00844277 -5.99244e-06 0)
(0.00848167 -6.04575e-06 0)
(0.00852085 -6.09549e-06 0)
(0.00856026 -6.13964e-06 0)
(0.00859984 -6.19064e-06 0)
(0.00863954 -6.22339e-06 0)
(0.00867924 -6.34152e-06 0)
(0.00871928 -6.32727e-06 0)
(0.0087585 -6.82792e-06 0)
(0.00880085 -6.66679e-06 0)
(0.0088362 -8.35915e-06 0)
(0.00889197 -9.44169e-06 0)
(0.00891067 -1.03627e-05 0)
(0.009011 -3.12212e-05 0)
(-8.33822e-05 0.000136366 0)
(-0.0005831 0.000379251 0)
(-0.00131183 0.00051841 0)
(-0.00208687 0.000562612 0)
(-0.00286718 0.000583724 0)
(-0.0036359 0.00058561 0)
(-0.00437976 0.000585759 0)
(-0.00510167 0.000579311 0)
(-0.00579449 0.000570671 0)
(-0.00646045 0.000558837 0)
(-0.00709689 0.000545608 0)
(-0.00770532 0.00053118 0)
(-0.00828543 0.000516287 0)
(-0.00883843 0.000501175 0)
(-0.00936489 0.000486138 0)
(-0.00986584 0.000471319 0)
(-0.0103421 0.000456832 0)
(-0.0107945 0.000442738 0)
(-0.0112237 0.000429072 0)
(-0.0116305 0.000415839 0)
(-0.0120154 0.000403027 0)
(-0.0123788 0.0003906 0)
(-0.012721 0.000378503 0)
(-0.0130422 0.000366657 0)
(-0.0133423 0.000354964 0)
(-0.0136212 0.000343298 0)
(-0.0138785 0.000331508 0)
(-0.0141136 0.000319414 0)
(-0.0143257 0.000306812 0)
(-0.0145138 0.000293466 0)
(-0.0146766 0.000279122 0)
(-0.0148125 0.000263499 0)
(-0.01492 0.000246304 0)
(-0.014997 0.000227233 0)
(-0.0150414 0.00020598 0)
(-0.0150509 0.000182248 0)
(-0.015023 0.000155757 0)
(-0.0149551 0.000126255 0)
(-0.0148448 9.3528e-05 0)
(-0.0146892 5.74132e-05 0)
(-0.0144859 1.78041e-05 0)
(-0.0142325 -2.5339e-05 0)
(-0.0139266 -7.19835e-05 0)
(-0.0135661 -0.000122021 0)
(-0.0131493 -0.000175262 0)
(-0.0126747 -0.000231442 0)
(-0.0121412 -0.000290218 0)
(-0.0115481 -0.000351176 0)
(-0.0108951 -0.000413835 0)
(-0.0101825 -0.000477658 0)
(-0.00941097 -0.000542057 0)
(-0.00858167 -0.000606409 0)
(-0.00769633 -0.000670058 0)
(-0.00675715 -0.000732335 0)
(-0.00576683 -0.000792565 0)
(-0.00472852 -0.00085008 0)
(-0.00364585 -0.000904227 0)
(-0.00252287 -0.000954386 0)
(-0.00136401 -0.000999974 0)
(-0.000174042 -0.00104046 0)
(0.00104193 -0.00107537 0)
(0.00227856 -0.00110429 0)
(0.00353029 -0.0011269 0)
(0.00479142 -0.00114294 0)
(0.00605614 -0.00115224 0)
(0.00731862 -0.00115474 0)
(0.00857306 -0.00115044 0)
(0.00981374 -0.00113944 0)
(0.0110351 -0.00112196 0)
(0.0122318 -0.00109825 0)
(0.0133987 -0.0010687 0)
(0.014531 -0.00103373 0)
(0.0156245 -0.000993837 0)
(0.0166749 -0.000949588 0)
(0.0176789 -0.000901579 0)
(0.0186334 -0.000850441 0)
(0.0195357 -0.000796824 0)
(0.0203838 -0.000741386 0)
(0.0211761 -0.000684776 0)
(0.0219116 -0.000627626 0)
(0.0225897 -0.000570539 0)
(0.0232104 -0.000514078 0)
(0.023774 -0.000458759 0)
(0.0242814 -0.000405043 0)
(0.0247337 -0.000353336 0)
(0.0251326 -0.000303977 0)
(0.0254798 -0.000257247 0)
(0.0257776 -0.000213363 0)
(0.0260283 -0.00017248 0)
(0.0262345 -0.000134698 0)
(0.0263988 -0.000100063 0)
(0.026524 -6.85737e-05 0)
(0.026613 -4.01867e-05 0)
(0.0266687 -1.48219e-05 0)
(0.0266939 7.63071e-06 0)
(0.0266914 2.73056e-05 0)
(0.0266641 4.43559e-05 0)
(0.0266145 5.89481e-05 0)
(0.0265451 7.12573e-05 0)
(0.0264586 8.14632e-05 0)
(0.0263571 8.97462e-05 0)
(0.0262428 9.62844e-05 0)
(0.0261178 0.000101251 0)
(0.0259839 0.000104814 0)
(0.0258427 0.00010713 0)
(0.025696 0.000108349 0)
(0.0255451 0.000108611 0)
(0.0253912 0.000108044 0)
(0.0252356 0.000106767 0)
(0.0250793 0.000104888 0)
(0.0249231 0.000102506 0)
(0.0247678 9.9707e-05 0)
(0.0246142 9.65717e-05 0)
(0.0244628 9.31699e-05 0)
(0.024314 8.95637e-05 0)
(0.0241684 8.58075e-05 0)
(0.0240263 8.19488e-05 0)
(0.0238879 7.80286e-05 0)
(0.0237535 7.40822e-05 0)
(0.0236232 7.01392e-05 0)
(0.0234972 6.62248e-05 0)
(0.0233756 6.23595e-05 0)
(0.0232584 5.85602e-05 0)
(0.0231457 5.48401e-05 0)
(0.0230374 5.12096e-05 0)
(0.0229336 4.7676e-05 0)
(0.0228342 4.42446e-05 0)
(0.0227391 4.09184e-05 0)
(0.0226484 3.76986e-05 0)
(0.0225619 3.4585e-05 0)
(0.0224796 3.15759e-05 0)
(0.0224015 2.86687e-05 0)
(0.0223274 2.58597e-05 0)
(0.0222572 2.31446e-05 0)
(0.022191 2.05185e-05 0)
(0.0221287 1.7976e-05 0)
(0.0220701 1.55114e-05 0)
(0.0220153 1.31188e-05 0)
(0.0219642 1.07923e-05 0)
(0.0219167 8.52574e-06 0)
(0.0218727 6.31326e-06 0)
(0.0218324 4.14898e-06 0)
(0.0217956 2.02721e-06 0)
(0.0217622 -5.75168e-08 0)
(0.0217323 -2.1104e-06 0)
(0.0217059 -4.13635e-06 0)
(0.0216829 -6.13998e-06 0)
(0.0216633 -8.12555e-06 0)
(0.0216471 -1.0097e-05 0)
(0.0216344 -1.20579e-05 0)
(0.021625 -1.40113e-05 0)
(0.0216191 -1.59602e-05 0)
(0.0216165 -1.7907e-05 0)
(0.0216173 -1.98536e-05 0)
(0.0216216 -2.18018e-05 0)
(0.0216293 -2.37529e-05 0)
(0.0216403 -2.57078e-05 0)
(0.0216548 -2.76669e-05 0)
(0.0216727 -2.96306e-05 0)
(0.0216939 -3.15984e-05 0)
(0.0217186 -3.357e-05 0)
(0.0217467 -3.55442e-05 0)
(0.0217782 -3.75197e-05 0)
(0.021813 -3.94949e-05 0)
(0.0218512 -4.14676e-05 0)
(0.0218927 -4.34354e-05 0)
(0.0219376 -4.53955e-05 0)
(0.0219857 -4.73446e-05 0)
(0.0220371 -4.92791e-05 0)
(0.0220916 -5.11952e-05 0)
(0.0221494 -5.30886e-05 0)
(0.0222102 -5.49546e-05 0)
(0.0222741 -5.67883e-05 0)
(0.0223409 -5.85844e-05 0)
(0.0224106 -6.03374e-05 0)
(0.0224832 -6.20414e-05 0)
(0.0225584 -6.36904e-05 0)
(0.0226363 -6.52783e-05 0)
(0.0227167 -6.67986e-05 0)
(0.0227995 -6.82448e-05 0)
(0.0228845 -6.96104e-05 0)
(0.0229717 -7.08888e-05 0)
(0.0230609 -7.20737e-05 0)
(0.0231519 -7.31586e-05 0)
(0.0232446 -7.41374e-05 0)
(0.0233388 -7.50042e-05 0)
(0.0234344 -7.57535e-05 0)
(0.0235311 -7.63809e-05 0)
(0.0236288 -7.68823e-05 0)
(0.0237273 -7.72569e-05 0)
(0.0238264 -7.75133e-05 0)
(0.0239259 -7.76259e-05 0)
(0.0240256 -7.77755e-05 0)
(0.0241252 -7.74891e-05 0)
(0.0242249 -7.84274e-05 0)
(0.0243242 -7.68835e-05 0)
(0.0244219 -8.16189e-05 0)
(0.0245264 -7.99073e-05 0)
(0.0246073 -8.38586e-05 0)
(0.0247499 -0.00011971 0)
(-0.000178924 0.000645192 0)
(-0.00104344 0.00125445 0)
(-0.0021687 0.0015336 0)
(-0.00330656 0.00157531 0)
(-0.00439564 0.00157083 0)
(-0.00542533 0.001528 0)
(-0.00637998 0.00148493 0)
(-0.00727068 0.00143321 0)
(-0.00809407 0.0013807 0)
(-0.00885829 0.00132575 0)
(-0.00956474 0.0012709 0)
(-0.0102185 0.00121635 0)
(-0.0108222 0.00116292 0)
(-0.011379 0.00111082 0)
(-0.0118914 0.00106027 0)
(-0.0123615 0.0010113 0)
(-0.0127911 0.00096387 0)
(-0.0131819 0.000917893 0)
(-0.0135351 0.000873232 0)
(-0.0138515 0.000829716 0)
(-0.0141321 0.000787144 0)
(-0.0143772 0.000745283 0)
(-0.0145871 0.000703874 0)
(-0.0147618 0.000662621 0)
(-0.014901 0.000621199 0)
(-0.0150044 0.000579249 0)
(-0.0150712 0.000536377 0)
(-0.0151006 0.000492159 0)
(-0.0150915 0.000446144 0)
(-0.0150425 0.000397858 0)
(-0.0149522 0.000346815 0)
(-0.0148189 0.000292522 0)
(-0.0146409 0.000234496 0)
(-0.0144163 0.000172271 0)
(-0.0141432 0.00010542 0)
(-0.0138194 3.35621e-05 0)
(-0.0134432 -4.36184e-05 0)
(-0.0130124 -0.000126359 0)
(-0.0125253 -0.000214807 0)
(-0.0119802 -0.000309006 0)
(-0.0113756 -0.00040889 0)
(-0.0107101 -0.000514275 0)
(-0.00998279 -0.000624858 0)
(-0.00919291 -0.000740212 0)
(-0.00834008 -0.000859795 0)
(-0.0074243 -0.000982948 0)
(-0.00644595 -0.00110891 0)
(-0.00540582 -0.00123682 0)
(-0.00430513 -0.00136574 0)
(-0.00314552 -0.00149464 0)
(-0.00192907 -0.00162247 0)
(-0.000658297 -0.00174811 0)
(0.000663849 -0.00187043 0)
(0.00203401 -0.00198828 0)
(0.00344842 -0.00210053 0)
(0.00490294 -0.00220608 0)
(0.00639307 -0.00230384 0)
(0.00791398 -0.00239283 0)
(0.00946055 -0.00247209 0)
(0.0110274 -0.00254079 0)
(0.012609 -0.00259818 0)
(0.0141994 -0.00264363 0)
(0.015793 -0.00267664 0)
(0.0173837 -0.00269684 0)
(0.0189655 -0.002704 0)
(0.0205326 -0.00269806 0)
(0.0220792 -0.00267908 0)
(0.0235995 -0.00264729 0)
(0.0250881 -0.00260308 0)
(0.0265399 -0.00254695 0)
(0.0279499 -0.00247959 0)
(0.0293136 -0.00240175 0)
(0.0306269 -0.00231436 0)
(0.0318862 -0.00221838 0)
(0.033088 -0.0021149 0)
(0.0342298 -0.00200504 0)
(0.0353092 -0.00188996 0)
(0.0363244 -0.00177085 0)
(0.0372742 -0.00164888 0)
(0.0381577 -0.00152522 0)
(0.0389747 -0.00140097 0)
(0.0397252 -0.0012772 0)
(0.0404097 -0.00115491 0)
(0.0410293 -0.00103499 0)
(0.041585 -0.000918263 0)
(0.0420787 -0.000805457 0)
(0.0425121 -0.000697189 0)
(0.0428874 -0.000593979 0)
(0.043207 -0.000496245 0)
(0.0434733 -0.000404304 0)
(0.0436892 -0.000318384 0)
(0.0438573 -0.000238622 0)
(0.0439805 -0.000165073 0)
(0.0440618 -9.77211e-05 0)
(0.044104 -3.64826e-05 0)
(0.0441101 1.87819e-05 0)
(0.0440831 6.82605e-05 0)
(0.0440257 0.000112182 0)
(0.0439407 0.000150807 0)
(0.0438308 0.000184421 0)
(0.0436987 0.000213329 0)
(0.0435468 0.000237845 0)
(0.0433775 0.000258291 0)
(0.043193 0.00027499 0)
(0.0429955 0.000288261 0)
(0.042787 0.000298415 0)
(0.0425692 0.000305756 0)
(0.0423439 0.000310573 0)
(0.0421127 0.000313143 0)
(0.0418771 0.000313725 0)
(0.0416383 0.000312564 0)
(0.0413975 0.000309886 0)
(0.0411558 0.0003059 0)
(0.0409142 0.000300798 0)
(0.0406735 0.000294755 0)
(0.0404346 0.00028793 0)
(0.0401979 0.000280464 0)
(0.0399642 0.000272484 0)
(0.039734 0.000264104 0)
(0.0395076 0.000255423 0)
(0.0392854 0.000246526 0)
(0.0390678 0.000237489 0)
(0.0388549 0.000228376 0)
(0.038647 0.00021924 0)
(0.0384443 0.000210126 0)
(0.0382468 0.000201073 0)
(0.0380547 0.000192108 0)
(0.037868 0.000183255 0)
(0.0376869 0.000174531 0)
(0.0375112 0.000165948 0)
(0.0373412 0.000157514 0)
(0.0371766 0.000149232 0)
(0.0370177 0.000141103 0)
(0.0368642 0.000133124 0)
(0.0367164 0.000125291 0)
(0.036574 0.000117597 0)
(0.0364372 0.000110035 0)
(0.0363059 0.000102594 0)
(0.03618 9.52653e-05 0)
(0.0360597 8.80384e-05 0)
(0.0359448 8.09023e-05 0)
(0.0358355 7.38464e-05 0)
(0.0357316 6.68601e-05 0)
(0.0356332 5.9933e-05 0)
(0.0355404 5.30555e-05 0)
(0.035453 4.62182e-05 0)
(0.0353712 3.94128e-05 0)
(0.035295 3.26313e-05 0)
(0.0352243 2.58668e-05 0)
(0.0351592 1.91133e-05 0)
(0.0350998 1.23657e-05 0)
(0.035046 5.61956e-06 0)
(0.0349979 -1.12828e-06 0)
(0.0349555 -7.88021e-06 0)
(0.0349189 -1.46376e-05 0)
(0.034888 -2.1401e-05 0)
(0.0348628 -2.81697e-05 0)
(0.0348434 -3.49425e-05 0)
(0.0348298 -4.1717e-05 0)
(0.034822 -4.84899e-05 0)
(0.0348201 -5.52571e-05 0)
(0.0348238 -6.20134e-05 0)
(0.0348334 -6.87531e-05 0)
(0.0348488 -7.54693e-05 0)
(0.0348698 -8.21543e-05 0)
(0.0348966 -8.87997e-05 0)
(0.034929 -9.5396e-05 0)
(0.0349671 -0.000101933 0)
(0.0350107 -0.0001084 0)
(0.0350598 -0.000114785 0)
(0.0351142 -0.000121075 0)
(0.035174 -0.000127257 0)
(0.0352391 -0.000133317 0)
(0.0353092 -0.00013924 0)
(0.0353843 -0.00014501 0)
(0.0354643 -0.000150613 0)
(0.0355489 -0.00015603 0)
(0.0356381 -0.000161246 0)
(0.0357317 -0.000166243 0)
(0.0358296 -0.000171005 0)
(0.0359314 -0.000175513 0)
(0.036037 -0.00017975 0)
(0.0361463 -0.000183699 0)
(0.0362589 -0.000187344 0)
(0.0363746 -0.000190669 0)
(0.0364932 -0.000193657 0)
(0.0366145 -0.000196295 0)
(0.0367381 -0.000198569 0)
(0.0368639 -0.000200466 0)
(0.0369914 -0.000201981 0)
(0.0371205 -0.000203099 0)
(0.0372508 -0.000203842 0)
(0.037382 -0.000204212 0)
(0.0375137 -0.00020416 0)
(0.0376458 -0.000204343 0)
(0.0377773 -0.000202822 0)
(0.0379094 -0.00020586 0)
(0.0380389 -0.000201492 0)
(0.0381623 -0.000207303 0)
(0.0383162 -0.000228224 0)
(-0.000305679 0.00126189 0)
(-0.00151688 0.0023157 0)
(-0.00287118 0.00272415 0)
(-0.00413866 0.00273447 0)
(-0.005238 0.00266279 0)
(-0.00621833 0.00253393 0)
(-0.00706579 0.00240544 0)
(-0.00781399 0.0022709 0)
(-0.00846439 0.00214126 0)
(-0.00903369 0.00201507 0)
(-0.0095271 0.00189462 0)
(-0.00995352 0.0017795 0)
(-0.0103177 0.00166982 0)
(-0.0106249 0.00156511 0)
(-0.0108786 0.00146498 0)
(-0.011082 0.0013689 0)
(-0.0112374 0.00127638 0)
(-0.0113468 0.00118692 0)
(-0.0114116 0.00109999 0)
(-0.011433 0.00101511 0)
(-0.0114115 0.000931769 0)
(-0.0113478 0.000849456 0)
(-0.0112418 0.000767654 0)
(-0.0110936 0.000685828 0)
(-0.0109027 0.000603428 0)
(-0.0106688 0.000519886 0)
(-0.0103909 0.000434617 0)
(-0.0100684 0.000347021 0)
(-0.00970012 0.000256493 0)
(-0.009285 0.000162423 0)
(-0.00882181 6.42153e-05 0)
(-0.00830929 -3.87074e-05 0)
(-0.00774612 -0.000146885 0)
(-0.00713101 -0.000260809 0)
(-0.00646269 -0.000380902 0)
(-0.00573995 -0.000507506 0)
(-0.00496169 -0.000640867 0)
(-0.00412695 -0.000781118 0)
(-0.00323492 -0.000928268 0)
(-0.002285 -0.00108219 0)
(-0.00127682 -0.00124262 0)
(-0.000210237 -0.00140915 0)
(0.000914582 -0.00158122 0)
(0.00209719 -0.00175812 0)
(0.0033368 -0.001939 0)
(0.00463232 -0.00212288 0)
(0.0059823 -0.00230867 0)
(0.00738492 -0.00249513 0)
(0.00883801 -0.00268097 0)
(0.010339 -0.0028648 0)
(0.0118851 -0.00304515 0)
(0.0134729 -0.00322054 0)
(0.015099 -0.00338944 0)
(0.0167592 -0.00355033 0)
(0.0184493 -0.0037017 0)
(0.0201649 -0.0038421 0)
(0.0219009 -0.00397011 0)
(0.0236522 -0.00408442 0)
(0.0254136 -0.0041838 0)
(0.0271795 -0.00426716 0)
(0.0289443 -0.00433354 0)
(0.0307021 -0.00438215 0)
(0.0324472 -0.00441235 0)
(0.0341738 -0.00442373 0)
(0.0358761 -0.00441604 0)
(0.0375485 -0.00438926 0)
(0.0391856 -0.00434358 0)
(0.0407822 -0.00427939 0)
(0.0423333 -0.0041973 0)
(0.0438343 -0.00409812 0)
(0.0452811 -0.00398285 0)
(0.0466698 -0.00385267 0)
(0.0479971 -0.00370889 0)
(0.0492601 -0.00355299 0)
(0.0504566 -0.00338651 0)
(0.0515847 -0.0032111 0)
(0.052643 -0.00302845 0)
(0.0536307 -0.00284024 0)
(0.0545475 -0.00264817 0)
(0.0553934 -0.0024539 0)
(0.0561691 -0.00225901 0)
(0.0568754 -0.00206501 0)
(0.0575136 -0.00187329 0)
(0.0580854 -0.00168515 0)
(0.0585926 -0.00150173 0)
(0.0590374 -0.00132406 0)
(0.0594222 -0.00115302 0)
(0.0597493 -0.000989329 0)
(0.0600215 -0.0008336 0)
(0.0602413 -0.000686294 0)
(0.0604118 -0.000547748 0)
(0.0605355 -0.00041818 0)
(0.0606154 -0.000297698 0)
(0.0606542 -0.000186313 0)
(0.0606548 -8.39442e-05 0)
(0.0606199 9.56397e-06 0)
(0.0605521 9.44352e-05 0)
(0.0604542 0.000170949 0)
(0.0603285 0.000239432 0)
(0.0601777 0.000300246 0)
(0.0600039 0.000353784 0)
(0.0598096 0.000400457 0)
(0.0595968 0.00044069 0)
(0.0593675 0.000474915 0)
(0.0591238 0.000503566 0)
(0.0588675 0.000527074 0)
(0.0586002 0.000545859 0)
(0.0583236 0.000560334 0)
(0.0580393 0.000570895 0)
(0.0577485 0.000577923 0)
(0.0574527 0.000581779 0)
(0.057153 0.000582807 0)
(0.0568505 0.000581328 0)
(0.0565463 0.000577642 0)
(0.0562412 0.000572029 0)
(0.0559361 0.000564747 0)
(0.0556317 0.00055603 0)
(0.0553287 0.000546095 0)
(0.0550278 0.000535137 0)
(0.0547295 0.00052333 0)
(0.0544341 0.000510831 0)
(0.0541423 0.00049778 0)
(0.0538542 0.000484298 0)
(0.0535704 0.000470492 0)
(0.0532909 0.000456453 0)
(0.0530161 0.00044226 0)
(0.0527462 0.000427978 0)
(0.0524813 0.000413663 0)
(0.0522217 0.000399357 0)
(0.0519674 0.000385095 0)
(0.0517185 0.000370905 0)
(0.0514752 0.000356804 0)
(0.0512375 0.000342806 0)
(0.0510055 0.000328917 0)
(0.0507793 0.000315139 0)
(0.0505589 0.000301471 0)
(0.0503444 0.000287907 0)
(0.0501358 0.000274439 0)
(0.0499333 0.000261058 0)
(0.0497369 0.000247752 0)
(0.0495465 0.000234508 0)
(0.0493624 0.000221314 0)
(0.0491845 0.000208156 0)
(0.049013 0.000195021 0)
(0.0488478 0.000181897 0)
(0.0486891 0.000168771 0)
(0.0485369 0.000155634 0)
(0.0483914 0.000142476 0)
(0.0482525 0.000129288 0)
(0.0481204 0.000116063 0)
(0.0479951 0.000102797 0)
(0.0478768 8.94855e-05 0)
(0.0477654 7.61268e-05 0)
(0.0476611 6.27206e-05 0)
(0.047564 4.92682e-05 0)
(0.047474 3.57728e-05 0)
(0.0473913 2.2239e-05 0)
(0.0473159 8.67316e-06 0)
(0.0472478 -4.91667e-06 0)
(0.0471872 -1.8521e-05 0)
(0.047134 -3.21287e-05 0)
(0.0470882 -4.57273e-05 0)
(0.0470499 -5.93027e-05 0)
(0.0470191 -7.28394e-05 0)
(0.0469958 -8.63208e-05 0)
(0.0469799 -9.97286e-05 0)
(0.0469714 -0.000113043 0)
(0.0469702 -0.000126244 0)
(0.0469764 -0.00013931 0)
(0.0469899 -0.000152217 0)
(0.0470105 -0.000164941 0)
(0.0470381 -0.000177457 0)
(0.0470728 -0.000189738 0)
(0.0471143 -0.000201758 0)
(0.0471625 -0.000213488 0)
(0.0472172 -0.0002249 0)
(0.0472783 -0.000235965 0)
(0.0473457 -0.000246652 0)
(0.0474191 -0.000256931 0)
(0.0474982 -0.000266773 0)
(0.047583 -0.000276148 0)
(0.0476731 -0.000285024 0)
(0.0477683 -0.000293374 0)
(0.0478684 -0.000301168 0)
(0.0479731 -0.000308378 0)
(0.048082 -0.000314979 0)
(0.0481949 -0.000320944 0)
(0.0483116 -0.00032625 0)
(0.0484316 -0.000330875 0)
(0.0485547 -0.000334798 0)
(0.0486805 -0.000338006 0)
(0.0488087 -0.000340476 0)
(0.0489389 -0.000342219 0)
(0.0490707 -0.000343205 0)
(0.0492036 -0.000343586 0)
(0.0493372 -0.000342891 0)
(0.0494711 -0.000343365 0)
(0.0496027 -0.000338787 0)
(0.0497332 -0.00034359 0)
(0.0498765 -0.000344466 0)
(-0.000405109 0.00246975 0)
(-0.00171924 0.00379667 0)
(-0.00298743 0.00414169 0)
(-0.00405032 0.00389055 0)
(-0.00482703 0.00361762 0)
(-0.00542842 0.00331532 0)
(-0.00585136 0.0030516 0)
(-0.00615537 0.00280533 0)
(-0.00634961 0.00258159 0)
(-0.00646015 0.0023741 0)
(-0.00649538 0.00218167 0)
(-0.00646713 0.0020018 0)
(-0.00638111 0.00183284 0)
(-0.00624321 0.00167319 0)
(-0.00605698 0.00152145 0)
(-0.00582556 0.0013764 0)
(-0.00555104 0.00123693 0)
(-0.00523509 0.00110203 0)
(-0.00487879 0.000970783 0)
(-0.00448291 0.000842328 0)
(-0.00404784 0.000715856 0)
(-0.00357371 0.00059059 0)
(-0.00306042 0.000465777 0)
(-0.00250765 0.000340679 0)
(-0.00191492 0.000214567 0)
(-0.00128159 8.67221e-05 0)
(-0.000606934 -4.35704e-05 0)
(0.000109899 -0.000177013 0)
(0.000869807 -0.000314292 0)
(0.00167373 -0.00045607 0)
(0.00252262 -0.000602976 0)
(0.00341742 -0.00075559 0)
(0.00435901 -0.000914434 0)
(0.00534822 -0.00107995 0)
(0.00638579 -0.0012525 0)
(0.00747232 -0.00143233 0)
(0.00860827 -0.00161956 0)
(0.00979393 -0.0018142 0)
(0.0110294 -0.00201608 0)
(0.0123146 -0.00222491 0)
(0.013649 -0.00244022 0)
(0.0150323 -0.00266138 0)
(0.0164633 -0.00288759 0)
(0.0179411 -0.0031179 0)
(0.0194641 -0.0033512 0)
(0.0210306 -0.00358621 0)
(0.0226386 -0.00382156 0)
(0.0242856 -0.0040557 0)
(0.0259689 -0.00428703 0)
(0.0276856 -0.00451383 0)
(0.0294322 -0.0047343 0)
(0.0312051 -0.00494663 0)
(0.0330003 -0.00514896 0)
(0.0348135 -0.00533944 0)
(0.0366403 -0.00551624 0)
(0.0384757 -0.00567759 0)
(0.0403148 -0.00582177 0)
(0.0421522 -0.00594721 0)
(0.0439826 -0.00605244 0)
(0.0458005 -0.00613615 0)
(0.0476001 -0.00619722 0)
(0.0493759 -0.00623472 0)
(0.0511224 -0.00624797 0)
(0.0528338 -0.00623651 0)
(0.054505 -0.00620015 0)
(0.0561307 -0.00613898 0)
(0.057706 -0.00605335 0)
(0.0592265 -0.00594388 0)
(0.0606879 -0.0058115 0)
(0.0620865 -0.00565734 0)
(0.0634192 -0.00548283 0)
(0.0646831 -0.00528959 0)
(0.065876 -0.00507944 0)
(0.0669964 -0.00485435 0)
(0.068043 -0.00461642 0)
(0.0690154 -0.00436784 0)
(0.0699134 -0.00411084 0)
(0.0707376 -0.00384766 0)
(0.0714888 -0.00358049 0)
(0.0721684 -0.00331148 0)
(0.0727779 -0.00304266 0)
(0.0733195 -0.00277596 0)
(0.0737954 -0.00251314 0)
(0.0742081 -0.00225581 0)
(0.0745603 -0.00200539 0)
(0.0748547 -0.00176315 0)
(0.0750944 -0.00153014 0)
(0.0752821 -0.00130725 0)
(0.075421 -0.00109518 0)
(0.0755139 -0.00089446 0)
(0.0755638 -0.000705469 0)
(0.0755735 -0.000528434 0)
(0.0755459 -0.00036345 0)
(0.0754836 -0.000210489 0)
(0.0753893 -6.94191e-05 0)
(0.0752655 5.99838e-05 0)
(0.0751147 0.000178023 0)
(0.0749391 0.000285068 0)
(0.0747409 0.000381541 0)
(0.0745222 0.000467907 0)
(0.0742851 0.000544663 0)
(0.0740313 0.000612329 0)
(0.0737627 0.000671439 0)
(0.0734808 0.000722536 0)
(0.0731873 0.000766163 0)
(0.0728837 0.000802858 0)
(0.0725712 0.000833151 0)
(0.0722512 0.000857558 0)
(0.0719249 0.000876577 0)
(0.0715934 0.000890692 0)
(0.0712576 0.000900359 0)
(0.0709186 0.000906016 0)
(0.0705772 0.000908076 0)
(0.0702342 0.000906926 0)
(0.0698904 0.000902927 0)
(0.0695464 0.000896418 0)
(0.0692029 0.000887709 0)
(0.0688604 0.000877088 0)
(0.0685193 0.000864815 0)
(0.0681803 0.000851129 0)
(0.0678436 0.000836245 0)
(0.0675097 0.000820356 0)
(0.0671788 0.000803635 0)
(0.0668513 0.000786232 0)
(0.0665274 0.000768282 0)
(0.0662074 0.000749899 0)
(0.0658914 0.000731184 0)
(0.0655796 0.000712218 0)
(0.0652723 0.000693073 0)
(0.0649695 0.000673806 0)
(0.0646714 0.000654461 0)
(0.0643781 0.000635073 0)
(0.0640897 0.000615669 0)
(0.0638063 0.000596266 0)
(0.0635281 0.000576873 0)
(0.063255 0.000557494 0)
(0.0629872 0.000538129 0)
(0.0627248 0.000518773 0)
(0.0624679 0.000499415 0)
(0.0622166 0.000480044 0)
(0.0619709 0.000460648 0)
(0.061731 0.00044121 0)
(0.0614969 0.000421716 0)
(0.0612689 0.00040215 0)
(0.0610468 0.000382497 0)
(0.060831 0.000362743 0)
(0.0606215 0.000342875 0)
(0.0604184 0.000322882 0)
(0.0602218 0.000302753 0)
(0.0600319 0.000282482 0)
(0.0598488 0.000262063 0)
(0.0596725 0.000241494 0)
(0.0595033 0.000220774 0)
(0.0593412 0.000199906 0)
(0.0591864 0.000178895 0)
(0.0590389 0.000157748 0)
(0.0588989 0.000136477 0)
(0.0587665 0.000115093 0)
(0.0586418 9.3612e-05 0)
(0.0585248 7.20523e-05 0)
(0.0584156 5.04339e-05 0)
(0.0583143 2.87794e-05 0)
(0.058221 7.11373e-06 0)
(0.0581357 -1.45362e-05 0)
(0.0580584 -3.61413e-05 0)
(0.0579892 -5.76706e-05 0)
(0.057928 -7.90915e-05 0)
(0.0578749 -0.000100369 0)
(0.0578298 -0.000121468 0)
(0.0577928 -0.000142349 0)
(0.0577636 -0.000162975 0)
(0.0577424 -0.000183304 0)
(0.0577289 -0.000203294 0)
(0.0577231 -0.000222904 0)
(0.0577249 -0.000242089 0)
(0.0577341 -0.000260806 0)
(0.0577506 -0.000279009 0)
(0.0577743 -0.000296653 0)
(0.0578049 -0.000313693 0)
(0.0578422 -0.000330084 0)
(0.057886 -0.000345781 0)
(0.0579362 -0.00036074 0)
(0.0579924 -0.000374917 0)
(0.0580545 -0.000388272 0)
(0.0581221 -0.000400763 0)
(0.058195 -0.000412352 0)
(0.0582728 -0.000423002 0)
(0.0583553 -0.000432679 0)
(0.0584422 -0.00044135 0)
(0.0585332 -0.000448985 0)
(0.0586279 -0.000455551 0)
(0.0587259 -0.000461018 0)
(0.058827 -0.000465368 0)
(0.0589308 -0.000468519 0)
(0.0590367 -0.000470533 0)
(0.0591444 -0.000471121 0)
(0.0592531 -0.000470864 0)
(0.0593616 -0.000466905 0)
(0.0594705 -0.000468773 0)
(0.059584 -0.000452355 0)
(-0.000693693 0.00309428 0)
(-0.00209191 0.00472266 0)
(-0.0025547 0.00495178 0)
(-0.00279258 0.00450474 0)
(-0.00262731 0.00403232 0)
(-0.00237806 0.00356557 0)
(-0.00198291 0.00316148 0)
(-0.0015262 0.00280329 0)
(-0.000999046 0.00248657 0)
(-0.000426854 0.00220267 0)
(0.000188611 0.00194501 0)
(0.000838238 0.00170875 0)
(0.00151965 0.00148958 0)
(0.00222921 0.00128444 0)
(0.00296547 0.00109059 0)
(0.003727 0.000905944 0)
(0.00451323 0.00072866 0)
(0.00532378 0.000557211 0)
(0.00615869 0.000390234 0)
(0.00701818 0.000226533 0)
(0.00790269 6.50123e-05 0)
(0.00881281 -9.53334e-05 0)
(0.00974927 -0.000255447 0)
(0.0107129 -0.00041622 0)
(0.0117045 -0.000578503 0)
(0.0127252 -0.000743111 0)
(0.0137759 -0.000910825 0)
(0.0148576 -0.00108239 0)
(0.0159713 -0.00125852 0)
(0.0171179 -0.00143986 0)
(0.0182985 -0.00162703 0)
(0.0195137 -0.00182055 0)
(0.0207644 -0.0020209 0)
(0.0220512 -0.00222843 0)
(0.0233746 -0.0024434 0)
(0.0247348 -0.00266594 0)
(0.026132 -0.00289605 0)
(0.0275663 -0.00313359 0)
(0.0290372 -0.00337824 0)
(0.0305444 -0.00362954 0)
(0.032087 -0.00388682 0)
(0.0336641 -0.00414928 0)
(0.0352744 -0.00441589 0)
(0.0369164 -0.00468548 0)
(0.0385881 -0.00495671 0)
(0.0402876 -0.00522805 0)
(0.0420122 -0.00549786 0)
(0.0437594 -0.00576434 0)
(0.0455259 -0.00602557 0)
(0.0473085 -0.00627954 0)
(0.0491034 -0.00652418 0)
(0.0509068 -0.00675734 0)
(0.0527143 -0.00697685 0)
(0.0545215 -0.00718056 0)
(0.0563236 -0.00736635 0)
(0.0581155 -0.00753214 0)
(0.0598923 -0.00767598 0)
(0.0616485 -0.00779602 0)
(0.0633787 -0.00789061 0)
(0.0650776 -0.00795827 0)
(0.0667398 -0.00799776 0)
(0.0683598 -0.0080081 0)
(0.0699326 -0.00798859 0)
(0.0714532 -0.00793887 0)
(0.0729169 -0.00785886 0)
(0.0743195 -0.00774886 0)
(0.0756571 -0.0076095 0)
(0.0769263 -0.00744176 0)
(0.0781244 -0.00724697 0)
(0.079249 -0.00702673 0)
(0.0802984 -0.00678299 0)
(0.0812718 -0.00651792 0)
(0.0821686 -0.0062339 0)
(0.082989 -0.00593352 0)
(0.0837339 -0.00561946 0)
(0.0844043 -0.00529448 0)
(0.0850022 -0.00496136 0)
(0.0855298 -0.00462286 0)
(0.0859894 -0.00428165 0)
(0.086384 -0.00394028 0)
(0.0867167 -0.00360118 0)
(0.0869906 -0.00326656 0)
(0.0872091 -0.00293844 0)
(0.0873755 -0.00261865 0)
(0.0874931 -0.00230874 0)
(0.0875654 -0.00201008 0)
(0.0875955 -0.00172377 0)
(0.0875866 -0.00145071 0)
(0.0875416 -0.0011916 0)
(0.0874635 -0.000946908 0)
(0.087355 -0.000716954 0)
(0.0872186 -0.000501876 0)