/*--------------------------------*- C++ -*----------------------------------*\
| =========                 |                                                 |
| \\      /  F ield         | OpenFOAM: The Open Source CFD Toolbox           |
|  \\    /   O peration     | Version:  4.1                                   |
|   \\  /    A nd           | Web:      www.OpenFOAM.org                      |
|    \\/     M anipulation  |                                                 |
\*---------------------------------------------------------------------------*/
FoamFile
{
    version     2.0;
    format      ascii;
    class       volVectorField;
    location    "0.0009";
    object      U;
}
// * * * * * * * * * * * * * * * * * * * * * * * * * * * * * * * * * * * * * //

dimensions      [0 1 -1 0 0 0 0];

internalField   nonuniform List<vector> 
441
(
(-2.70938e-05 2.71943e-05 0)
(-8.80704e-05 3.14598e-05 0)
(-0.000145597 3.06604e-05 0)
(-0.000199485 2.85224e-05 0)
(-0.000248699 2.56714e-05 0)
(-0.000292205 2.22536e-05 0)
(-0.000329078 1.83661e-05 0)
(-0.000358555 1.41037e-05 0)
(-0.00038004 9.56143e-06 0)
(-0.000393109 4.83344e-06 0)
(-0.00039751 1.24329e-08 0)
(-0.000393157 -4.8098e-06 0)
(-0.000380131 -9.54138e-06 0)
(-0.000358682 -1.40893e-05 0)
(-0.00032923 -1.8359e-05 0)
(-0.000292368 -2.22549e-05 0)
(-0.000248859 -2.56815e-05 0)
(-0.000199628 -2.85407e-05 0)
(-0.000145709 -3.06857e-05 0)
(-8.81414e-05 -3.14895e-05 0)
(-2.7117e-05 -2.72219e-05 0)
(-3.28879e-05 8.94305e-05 0)
(-0.000113133 0.000109488 0)
(-0.000187562 0.000106704 0)
(-0.000257029 9.92038e-05 0)
(-0.000320372 8.92621e-05 0)
(-0.000376321 7.73628e-05 0)
(-0.000423708 6.38375e-05 0)
(-0.000461565 4.9015e-05 0)
(-0.000489144 3.32254e-05 0)
(-0.000505914 1.67947e-05 0)
(-0.00051156 4.31996e-08 0)
(-0.000505974 -1.67125e-05 0)
(-0.00048926 -3.31555e-05 0)
(-0.000461727 -4.89645e-05 0)
(-0.000423902 -6.38121e-05 0)
(-0.00037653 -7.73663e-05 0)
(-0.000320576 -8.92956e-05 0)
(-0.000257212 -9.92658e-05 0)
(-0.000187705 -0.00010679 0)
(-0.000113224 -0.000109589 0)
(-3.29161e-05 -8.95219e-05 0)
(-3.51537e-05 0.000152493 0)
(-0.000120934 0.00018722 0)
(-0.00020041 0.000182382 0)
(-0.00027454 0.000169486 0)
(-0.000342055 0.000152431 0)
(-0.000401612 0.00013205 0)
(-0.000451988 0.000108916 0)
(-0.000492185 8.35948e-05 0)
(-0.00052144 5.66496e-05 0)
(-0.000539219 2.8631e-05 0)
(-0.000545204 7.63028e-08 0)
(-0.000539291 -2.84858e-05 0)
(-0.000521578 -5.65259e-05 0)
(-0.000492378 -8.35053e-05 0)
(-0.000452219 -0.000108871 0)
(-0.00040186 -0.000132056 0)
(-0.000342299 -0.00015249 0)
(-0.000274759 -0.000169595 0)
(-0.000200582 -0.000182535 0)
(-0.000121043 -0.0001874 0)
(-3.5188e-05 -0.000152655 0)
(-3.76424e-05 0.00021893 0)
(-0.000129424 0.000268819 0)
(-0.000214373 0.000261763 0)
(-0.000293497 0.000243109 0)
(-0.000365425 0.000218493 0)
(-0.000428744 0.00018914 0)
(-0.000482189 0.000155895 0)
(-0.000524753 0.000119579 0)
(-0.000555682 8.09979e-05 0)
(-0.000574458 4.09277e-05 0)
(-0.000580781 1.15693e-07 0)
(-0.000574548 -4.07073e-05 0)
(-0.000555854 -8.08099e-05 0)
(-0.000524993 -0.000119442 0)
(-0.000482478 -0.000155825 0)
(-0.000429056 -0.000189147 0)
(-0.000365734 -0.000218581 0)
(-0.000293774 -0.000243275 0)
(-0.000214592 -0.000261995 0)
(-0.000129563 -0.000269093 0)
(-3.76861e-05 -0.000219178 0)
(-4.09871e-05 0.000290537 0)
(-0.000140878 0.000356622 0)
(-0.000233198 0.000347044 0)
(-0.000318998 0.000322033 0)
(-0.00039678 0.000289132 0)
(-0.000465041 0.000250021 0)
(-0.000522481 0.000205863 0)
(-0.000568097 0.000157767 0)
(-0.000601167 0.000106794 0)
(-0.000621213 5.39444e-05 0)
(-0.000627964 1.64644e-07 0)
(-0.000621328 -5.36305e-05 0)
(-0.000601388 -0.000106525 0)
(-0.000568407 -0.00015757 0)
(-0.000522855 -0.000205761 0)
(-0.000465448 -0.000250029 0)
(-0.000397184 -0.000289256 0)
(-0.000319362 -0.00032227 0)
(-0.000233486 -0.000347377 0)
(-0.000141062 -0.000357017 0)
(-4.10451e-05 -0.000290895 0)
(-4.53731e-05 0.00036917 0)
(-0.000155899 0.000452908 0)
(-0.000257838 0.000440353 0)
(-0.000352283 0.000408119 0)
(-0.000437565 0.000365898 0)
(-0.000512086 0.000315928 0)
(-0.00057452 0.000259756 0)
(-0.000623905 0.000198822 0)
(-0.000659592 0.00013446 0)
(-0.000681179 6.78874e-05 0)
(-0.000688448 2.26992e-07 0)
(-0.000681329 -6.74542e-05 0)
(-0.000659882 -0.000134087 0)
(-0.000624312 -0.000198548 0)
(-0.000575013 -0.000259611 0)
(-0.000512625 -0.000315934 0)
(-0.000438103 -0.000366067 0)
(-0.000352769 -0.000408446 0)
(-0.000258225 -0.000440817 0)
(-0.000156147 -0.000453461 0)
(-4.54516e-05 -0.000369672 0)
(-5.09808e-05 0.000456909 0)
(-0.000175085 0.000560155 0)
(-0.00028922 0.000543956 0)
(-0.000394506 0.000503285 0)
(-0.000489063 0.000450327 0)
(-0.000571193 0.000388026 0)
(-0.00063959 0.00031841 0)
(-0.000693397 0.000243305 0)
(-0.000732105 0.000164335 0)
(-0.00075545 8.29172e-05 0)
(-0.00076331 3.07355e-07 0)
(-0.000755647 -8.23296e-05 0)
(-0.000732486 -0.000163827 0)
(-0.000693935 -0.000242928 0)
(-0.000640246 -0.000318205 0)
(-0.000571913 -0.000388026 0)
(-0.000489787 -0.000450551 0)
(-0.000395166 -0.000503729 0)
(-0.000289749 -0.000544593 0)
(-0.000175425 -0.000560919 0)
(-5.10888e-05 -0.000457604 0)
(-5.80573e-05 0.000556212 0)
(-0.000199259 0.000681242 0)
(-0.000328605 0.000660417 0)
(-0.000447208 0.000609617 0)
(-0.000552932 0.000544002 0)
(-0.000644009 0.00046743 0)
(-0.000719238 0.000382554 0)
(-0.000777977 0.000291657 0)
(-0.000819977 0.000196659 0)
(-0.000845203 9.91387e-05 0)
(-0.000853691 4.11288e-07 0)
(-0.00084546 -9.83507e-05 0)
(-0.000820476 -0.000195974 0)
(-0.000778687 -0.00029114 0)
(-0.00072011 -0.000382265 0)
(-0.000644976 -0.000467415 0)
(-0.000553913 -0.000544291 0)
(-0.00044811 -0.000610212 0)
(-0.000329333 -0.000661284 0)
(-0.00019973 -0.000682293 0)
(-5.82075e-05 -0.000557173 0)
(-6.69559e-05 0.000670087 0)
(-0.000229593 0.000819629 0)
(-0.000377759 0.000792709 0)
(-0.0005125 0.000729403 0)
(-0.00063138 0.000648513 0)
(-0.000732647 0.000555132 0)
(-0.00081536 0.000452726 0)
(-0.000879288 0.000344115 0)
(-0.000924619 0.000231509 0)
(-0.000951693 0.000116568 0)
(-0.000960794 5.453e-07 0)
(-0.000952027 -0.00011552 0)
(-0.00092527 -0.00023059 0)
(-0.000880221 -0.00034341 0)
(-0.000816517 -0.000452315 0)
(-0.000733946 -0.000555085 0)
(-0.000632714 -0.000648877 0)
(-0.000513741 -0.000730192 0)
(-0.000378772 -0.000793886 0)
(-0.000230253 -0.000821074 0)
(-6.71675e-05 -0.000671416 0)
(-7.81945e-05 0.000802342 0)
(-0.000267792 0.000979596 0)
(-0.000439203 0.000944344 0)
(-0.000593306 0.000865133 0)
(-0.000727359 0.000765375 0)
(-0.000839804 0.000651859 0)
(-0.000930251 0.000529115 0)
(-0.000999189 0.00040058 0)
(-0.00104752 0.000268701 0)
(-0.00107616 0.00013508 0)
(-0.00108577 7.16681e-07 0)
(-0.00107659 -0.000133698 0)
(-0.00104836 -0.000267475 0)
(-0.00100041 -0.000399618 0)
(-0.00093178 -0.000528525 0)
(-0.000841546 -0.000651745 0)
(-0.000729177 -0.000765816 0)
(-0.000595026 -0.000866168 0)
(-0.000440628 -0.000945937 0)
(-0.00026873 -0.000981588 0)
(-7.84968e-05 -0.000804192 0)
(-9.25531e-05 0.000957984 0)
(-0.0003164 0.00116659 0)
(-0.00051661 0.00111952 0)
(-0.000693745 0.00101945 0)
(-0.000844841 0.000895835 0)
(-0.000968916 0.000757824 0)
(-0.00106663 0.000611316 0)
(-0.0011397 0.000460409 0)
(-0.00119011 0.000307648 0)
(-0.00121967 0.000154336 0)
(-0.00122957 9.32949e-07 0)
(-0.00122021 -0.00015253 0)
(-0.00119118 -0.000306022 0)
(-0.00114126 -0.000459098 0)
(-0.00106864 -0.000610464 0)
(-0.000971245 -0.000757582 0)
(-0.000847324 -0.000896339 0)
(-0.000696144 -0.00102079 0)
(-0.000518636 -0.00112167 0)
(-0.000317755 -0.00116936 0)
(-9.29933e-05 -0.000960581 0)
(-0.000111248 0.00114386 0)
(-0.000379335 0.00138779 0)
(-0.000615459 0.00132327 0)
(-0.000819704 0.00119499 0)
(-0.000989209 0.00104052 0)
(-0.00112433 0.00087231 0)
(-0.00122766 0.000697953 0)
(-0.00130285 0.000522122 0)
(-0.00135358 0.000347164 0)
(-0.00138287 0.000173691 0)
(-0.00139263 1.20063e-06 0)
(-0.00138354 -0.000171352 0)
(-0.00135492 -0.000345023 0)
(-0.00130484 -0.000520337 0)
(-0.00123026 -0.000696711 0)
(-0.00112743 -0.000871831 0)
(-0.000992605 -0.00104103 0)
(-0.000823081 -0.00119667 0)
(-0.000618386 -0.00132617 0)
(-0.000381334 -0.00139164 0)
(-0.000111905 -0.00114756 0)
(-0.000136255 0.0013698 0)
(-0.000462852 0.00165288 0)
(-0.000744158 0.00156165 0)
(-0.000979743 0.00139395 0)
(-0.00116778 0.00119876 0)
(-0.00131149 0.000993 0)
(-0.00141681 0.000786123 0)
(-0.00149047 0.000583009 0)
(-0.00153853 0.000385221 0)
(-0.00156562 0.00019207 0)
(-0.0015746 1.52312e-06 0)
(-0.00156642 -0.000189084 0)
(-0.00154016 -0.000382427 0)
(-0.00149294 -0.000580583 0)
(-0.00142012 -0.0007843 0)
(-0.00131557 -0.000992093 0)
(-0.00117243 -0.00119913 0)
(-0.00098454 -0.00139597 0)
(-0.00074847 -0.00156551 0)
(-0.000465885 -0.00165832 0)
(-0.000137267 -0.00137516 0)
(-0.000170928 0.0016506 0)
(-0.000577346 0.0019754 0)
(-0.000915948 0.00184155 0)
(-0.00118644 0.00161716 0)
(-0.00139044 0.00136739 0)
(-0.00153694 0.00111491 0)
(-0.0016376 0.000870618 0)
(-0.0017037 0.000638631 0)
(-0.00174447 0.000418674 0)
(-0.00176651 0.000207859 0)
(-0.00177373 1.89724e-06 0)
(-0.00176744 -0.000204108 0)
(-0.00174637 -0.000415073 0)
(-0.00170666 -0.000635352 0)
(-0.00164172 -0.000867936 0)
(-0.00154224 -0.00111325 0)
(-0.00139676 -0.00136734 0)
(-0.00119332 -0.00161939 0)
(-0.000922449 -0.00184662 0)
(-0.000582116 -0.00198316 0)
(-0.000172556 -0.00165861 0)
(-0.000221177 0.00201003 0)
(-0.000740681 0.0023747 0)
(-0.00115198 0.00217001 0)
(-0.00145804 0.00186195 0)
(-0.00166987 0.00153863 0)
(-0.00180773 0.00122877 0)
(-0.00189253 0.000942933 0)
(-0.00194186 0.000682297 0)
(-0.00196875 0.000443019 0)
(-0.00198184 0.000218806 0)
(-0.001986 2.30871e-06 0)
(-0.00198283 -0.000214197 0)
(-0.00197084 -0.00043846 0)
(-0.00194524 -0.000677912 0)
(-0.00189746 -0.000939005 0)
(-0.00181444 -0.00122583 0)
(-0.00167841 -0.00153756 0)
(-0.00146797 -0.00186396 0)
(-0.00116203 -0.0021764 0)
(-0.000748527 -0.00238588 0)
(-0.000223945 -0.00202245 0)
(-0.000296784 0.00248913 0)
(-0.000982374 0.00287937 0)
(-0.00148339 0.00255156 0)
(-0.00181702 0.00211783 0)
(-0.00201755 0.00169647 0)
(-0.00212611 0.00131886 0)
(-0.0021775 0.000990189 0)
(-0.00219703 0.000704673 0)
(-0.00220137 0.00045233 0)
(-0.00220063 0.000222048 0)
(-0.00220014 2.72811e-06 0)
(-0.0022016 -0.000216541 0)
(-0.00220347 -0.000446693 0)
(-0.00220059 -0.000698916 0)
(-0.00218302 -0.000984512 0)
(-0.00213419 -0.00131382 0)
(-0.00202872 -0.00169323 0)
(-0.00183128 -0.00211844 0)
(-0.00149926 -0.00255886 0)
(-0.00099591 -0.00289553 0)
(-0.000301778 -0.00250952 0)
(-0.000400813 0.0031645 0)
(-0.00132411 0.00353412 0)
(-0.0019198 0.00298158 0)
(-0.00224883 0.00235797 0)
(-0.00239759 0.00181106 0)
(-0.00244204 0.00136039 0)
(-0.00243461 0.000994432 0)
(-0.00240754 0.00069392 0)
(-0.00237914 0.000439591 0)
(-0.00235916 0.000214338 0)
(-0.00235227 3.1158e-06 0)
(-0.00235989 -0.00020797 0)
(-0.0023808 -0.000432825 0)
(-0.00241058 -0.00068655 0)
(-0.00243981 -0.000986406 0)
(-0.00245055 -0.00135205 0)
(-0.00241085 -0.00180361 0)
(-0.00226805 -0.00235434 0)
(-0.00194422 -0.00298745 0)
(-0.00134777 -0.0035569 0)
(-0.000409867 -0.00320077 0)
(-0.000374994 0.00419001 0)
(-0.00147463 0.00442223 0)
(-0.00207062 0.00343338 0)
(-0.00229243 0.00252461 0)
(-0.00230793 0.00183171 0)
(-0.00223358 0.00131785 0)
(-0.00213405 0.000933347 0)
(-0.00204145 0.00063698 0)
(-0.00197014 0.000397774 0)
(-0.00192596 0.000192633 0)
(-0.00191098 3.45872e-06 0)
(-0.00192575 -0.000185473 0)
(-0.00196989 -0.000389865 0)
(-0.00204154 -0.000627772 0)
(-0.00213528 -0.000922261 0)
(-0.00223738 -0.00130446 0)
(-0.0023167 -0.00181633 0)
(-0.00230951 -0.00251013 0)
(-0.00209846 -0.0034295 0)
(-0.00150794 -0.00445053 0)
(-0.000385499 -0.00426161 0)
(0.00156823 0.00575714 0)
(0.00183747 0.00562885 0)
(0.00195 0.0038074 0)
(0.00216684 0.00250263 0)
(0.00244771 0.00168074 0)
(0.00271963 0.00114716 0)
(0.00294832 0.000784051 0)
(0.00312322 0.000522711 0)
(0.0032448 0.000321853 0)
(0.00331651 0.0001551 0)
(0.00334129 3.89215e-06 0)
(0.00332027 -0.000146944 0)
(0.00325255 -0.00031251 0)
(0.00313544 -0.000511123 0)
(0.00296573 -0.000768694 0)
(0.00274298 -0.00112578 0)
(0.00247732 -0.00165037 0)
(0.00220109 -0.0024618 0)
(0.00198273 -0.00376718 0)
(0.0018596 -0.00564432 0)
(0.0016136 -0.00591767 0)
(0.0197972 0.00781512 0)
(0.0320916 0.0071053 0)
(0.0364998 0.0038328 0)
(0.0380991 0.0020927 0)
(0.0389582 0.00125987 0)
(0.0395096 0.000807045 0)
(0.039888 0.000531505 0)
(0.0401472 0.000346765 0)
(0.0403169 0.000211224 0)
(0.0404149 0.000101988 0)
(0.040451 4.49415e-06 0)
(0.0404286 -9.24911e-05 0)
(0.0403458 -0.000200062 0)
(0.0401949 -0.000332283 0)
(0.0399609 -0.000510928 0)
(0.039619 -0.000775248 0)
(0.0391225 -0.00120727 0)
(0.038344 -0.00200462 0)
(0.0368393 -0.00370559 0)
(0.0324686 -0.00704465 0)
(0.0201811 -0.00817062 0)
(0.148048 0.00163782 0)
(0.203795 0.000840881 0)
(0.220735 0.000924196 0)
(0.224984 0.000672769 0)
(0.226525 0.000424183 0)
(0.227243 0.00026874 0)
(0.227661 0.000174013 0)
(0.227925 0.000112733 0)
(0.228091 6.93897e-05 0)
(0.228186 3.5532e-05 0)
(0.228224 6.08863e-06 0)
(0.228208 -2.25984e-05 0)
(0.228137 -5.39417e-05 0)
(0.228001 -9.21185e-05 0)
(0.22778 -0.0001434 0)
(0.227427 -0.000218102 0)
(0.226811 -0.000331085 0)
(0.22543 -0.000488226 0)
(0.221342 -0.00057761 0)
(0.204279 -0.000442209 0)
(0.14757 -0.00254236 0)
)
;

boundaryField
{
    movingWall
    {
        type            fixedValue;
        value           uniform (0.5 0 0);
    }
    fixedWalls
    {
        type            noSlip;
    }
    frontAndBack
    {
        type            empty;
    }
}


// ************************************************************************* //
