/*--------------------------------*- C++ -*----------------------------------*\
| =========                 |                                                 |
| \\      /  F ield         | OpenFOAM: The Open Source CFD Toolbox           |
|  \\    /   O peration     | Version:  4.1                                   |
|   \\  /    A nd           | Web:      www.OpenFOAM.org                      |
|    \\/     M anipulation  |                                                 |
\*---------------------------------------------------------------------------*/
FoamFile
{
    version     2.0;
    format      ascii;
    class       volVectorField;
    location    "0.0198";
    object      U;
}
// * * * * * * * * * * * * * * * * * * * * * * * * * * * * * * * * * * * * * //

dimensions      [0 1 -1 0 0 0 0];

internalField   nonuniform List<vector> 
441
(
(-0.000110992 9.56352e-05 0)
(-0.000528256 0.000292088 0)
(-0.0011227 0.000470514 0)
(-0.00183444 0.000580366 0)
(-0.00259265 0.000618951 0)
(-0.0033324 0.000596882 0)
(-0.004001 0.000527719 0)
(-0.00455888 0.000424202 0)
(-0.004978 0.000297056 0)
(-0.00523978 0.000154991 0)
(-0.0053333 5.26723e-06 0)
(-0.00525417 -0.000145508 0)
(-0.00500441 -0.000290528 0)
(-0.00459304 -0.000421952 0)
(-0.00403757 -0.000530196 0)
(-0.00336606 -0.000603511 0)
(-0.00261926 -0.000628196 0)
(-0.00185197 -0.000590051 0)
(-0.0011316 -0.000478404 0)
(-0.000531042 -0.000296627 0)
(-0.000111127 -9.66642e-05 0)
(-0.000345282 0.000493235 0)
(-0.00151808 0.00136679 0)
(-0.00308585 0.00205124 0)
(-0.00490138 0.00245323 0)
(-0.00680134 0.00257665 0)
(-0.00863681 0.00246394 0)
(-0.0102862 0.00216759 0)
(-0.0116574 0.00173707 0)
(-0.012685 0.00121419 0)
(-0.0133255 0.00063295 0)
(-0.0135533 2.17345e-05 0)
(-0.0133584 -0.000593653 0)
(-0.0127456 -0.00118661 0)
(-0.0117362 -0.00172648 0)
(-0.0103712 -0.00217581 0)
(-0.00871612 -0.00248876 0)
(-0.00686539 -0.00261208 0)
(-0.00494509 -0.00249077 0)
(-0.00310954 -0.00208217 0)
(-0.00152677 -0.00138498 0)
(-0.000346327 -0.000497781 0)
(-0.000580962 0.00110253 0)
(-0.00241999 0.00290875 0)
(-0.00478699 0.00422794 0)
(-0.00746894 0.00497096 0)
(-0.0102404 0.00517131 0)
(-0.0128977 0.00491713 0)
(-0.0152746 0.00431052 0)
(-0.0172448 0.00344661 0)
(-0.0187187 0.00240562 0)
(-0.0196364 0.00125278 0)
(-0.019963 4.24588e-05 0)
(-0.0196847 -0.00117597 0)
(-0.0188079 -0.0023516 0)
(-0.0173615 -0.0034257 0)
(-0.0154015 -0.00432641 0)
(-0.0130176 -0.00496569 0)
(-0.0103389 -0.00524105 0)
(-0.00753792 -0.00504539 0)
(-0.00482607 -0.00428988 0)
(-0.00243569 -0.00294579 0)
(-0.000583517 -0.00111219 0)
(-0.000789767 0.00190376 0)
(-0.00321328 0.00487357 0)
(-0.00626658 0.00694333 0)
(-0.00967696 0.00806613 0)
(-0.0131662 0.00832934 0)
(-0.0164884 0.00788255 0)
(-0.0194453 0.0068887 0)
(-0.0218881 0.00549687 0)
(-0.0237117 0.00383186 0)
(-0.0248471 0.00199455 0)
(-0.0252536 6.85657e-05 0)
(-0.0249148 -0.00187043 0)
(-0.0238372 -0.00374438 0)
(-0.0220532 -0.00546281 0)
(-0.0196268 -0.00691435 0)
(-0.016662 -0.00796175 0)
(-0.0133114 -0.00844391 0)
(-0.00978124 -0.00818944 0)
(-0.00632796 -0.00704707 0)
(-0.00323961 -0.00493655 0)
(-0.000794708 -0.00192067 0)
(-0.000981189 0.00288185 0)
(-0.00394635 0.00723385 0)
(-0.00763482 0.0101679 0)
(-0.0117138 0.0117064 0)
(-0.0158529 0.0120146 0)
(-0.0197673 0.0113217 0)
(-0.0232327 0.00986473 0)
(-0.0260844 0.00785589 0)
(-0.0282088 0.00547037 0)
(-0.0295323 0.00284809 0)
(-0.0300118 0.00010359 0)
(-0.0296291 -0.00266022 0)
(-0.028389 -0.00533705 0)
(-0.0263234 -0.00780253 0)
(-0.0234982 -0.00990152 0)
(-0.0200251 -0.0114405 0)
(-0.0160729 -0.012189 0)
(-0.0118762 -0.0118966 0)
(-0.00773409 -0.0103302 0)
(-0.00399149 -0.00733431 0)
(-0.000990479 -0.00290985 0)
(-0.00117294 0.00403624 0)
(-0.0046875 0.00999291 0)
(-0.00902055 0.013909 0)
(-0.0137735 0.0158987 0)
(-0.0185589 0.0162292 0)
(-0.0230528 0.0152307 0)
(-0.0270072 0.0132305 0)
(-0.0302466 0.0105146 0)
(-0.032654 0.00731475 0)
(-0.0341561 0.00381244 0)
(-0.0347101 0.000153314 0)
(-0.0342967 -0.00353346 0)
(-0.0329173 -0.00711417 0)
(-0.0305986 -0.0104298 0)
(-0.027403 -0.0132777 0)
(-0.0234431 -0.0154002 0)
(-0.0188989 -0.0164846 0)
(-0.0140311 -0.0161827 0)
(-0.00918369 -0.0141564 0)
(-0.00476534 -0.01015 0)
(-0.00118998 -0.00408239 0)
(-0.00138302 0.00538388 0)
(-0.00550476 0.013189 0)
(-0.0105462 0.0182137 0)
(-0.0160307 0.0206876 0)
(-0.0215058 0.0210083 0)
(-0.0266053 0.0196331 0)
(-0.0310604 0.0169992 0)
(-0.0346895 0.0134797 0)
(-0.0373786 0.00936931 0)
(-0.0390601 0.00489294 0)
(-0.0396952 0.000225653 0)
(-0.039264 -0.00448043 0)
(-0.0377623 -0.00906725 0)
(-0.0352068 -0.0133421 0)
(-0.0316489 -0.0170522 0)
(-0.0271948 -0.0198666 0)
(-0.0220292 -0.021374 0)
(-0.0164371 -0.0211048 0)
(-0.0108115 -0.0185867 0)
(-0.00563617 -0.0134336 0)
(-0.00141296 -0.00546034 0)
(-0.00162719 0.0069587 0)
(-0.00645773 0.0168934 0)
(-0.0123154 0.0231643 0)
(-0.0186263 0.026148 0)
(-0.0248616 0.0264098 0)
(-0.0306106 0.0245673 0)
(-0.0355874 0.021193 0)
(-0.0396125 0.0167625 0)
(-0.0425835 0.011641 0)
(-0.0444458 0.00609687 0)
(-0.0451697 0.000330479 0)
(-0.0447359 -0.00548938 0)
(-0.0431319 -0.0111865 0)
(-0.0403583 -0.0165384 0)
(-0.0364461 -0.0212403 0)
(-0.0314838 -0.0248786 0)
(-0.0256515 -0.0269234 0)
(-0.0192534 -0.026753 0)
(-0.0127355 -0.0237216 0)
(-0.00667204 -0.0172724 0)
(-0.00167738 -0.00708509 0)
(-0.0019176 0.00880991 0)
(-0.00759228 0.0212048 0)
(-0.014403 0.028868 0)
(-0.0216517 0.0323707 0)
(-0.0287206 0.0324967 0)
(-0.0351543 0.0300684 0)
(-0.0406586 0.0258255 0)
(-0.0450683 0.0203649 0)
(-0.0483057 0.0141289 0)
(-0.0503398 0.00742752 0)
(-0.0511565 0.000479057 0)
(-0.0507397 -0.00654158 0)
(-0.0490658 -0.0134507 0)
(-0.0461112 -0.0200036 0)
(-0.0418741 -0.0258448 0)
(-0.0364097 -0.0304687 0)
(-0.0298774 -0.0332034 0)
(-0.0225898 -0.0332354 0)
(-0.0150463 -0.0296918 0)
(-0.00792866 -0.0217866 0)
(-0.00199796 -0.00901614 0)
(-0.00226068 0.0109994 0)
(-0.00893238 0.0262403 0)
(-0.016838 0.035442 0)
(-0.0251224 0.0394409 0)
(-0.0330667 0.0393124 0)
(-0.0401771 0.0361426 0)
(-0.0461669 0.0308787 0)
(-0.0509055 0.0242594 0)
(-0.0543573 0.0168098 0)
(-0.0565296 0.00887628 0)
(-0.057433 0.00068257 0)
(-0.0570582 -0.007606 0)
(-0.0553682 -0.0158146 0)
(-0.0523062 -0.0236897 0)
(-0.0478216 -0.0308312 0)
(-0.0419147 -0.0366348 0)
(-0.0346994 -0.0402605 0)
(-0.0264755 -0.040653 0)
(-0.0177874 -0.0366398 0)
(-0.0094402 -0.0271199 0)
(-0.00238399 -0.0113291 0)
(-0.00265292 0.0135974 0)
(-0.0104643 0.0321209 0)
(-0.0195731 0.0429866 0)
(-0.0289298 0.0474044 0)
(-0.0377089 0.0468437 0)
(-0.0453961 0.042732 0)
(-0.0517402 0.0362716 0)
(-0.056673 0.0283646 0)
(-0.0602257 0.0196208 0)
(-0.0624612 0.010412 0)
(-0.0634264 0.000949155 0)
(-0.0631237 -0.00863412 0)
(-0.0615014 -0.018195 0)
(-0.0584609 -0.0274921 0)
(-0.053885 -0.036095 0)
(-0.0476916 -0.0432999 0)
(-0.0399136 -0.0480736 0)
(-0.0308011 -0.0490599 0)
(-0.0209189 -0.0446897 0)
(-0.0112009 -0.0334227 0)
(-0.00283456 -0.0141109 0)
(-0.0030735 0.0166741 0)
(-0.0121087 0.0389446 0)
(-0.0224309 0.0515428 0)
(-0.0327614 0.056215 0)
(-0.0421792 0.0549664 0)
(-0.0501865 0.0496645 0)
(-0.0566109 0.0418194 0)
(-0.0614849 0.0325141 0)
(-0.064935 0.0224372 0)
(-0.0670988 0.0119678 0)
(-0.0680712 0.00127897 0)
(-0.067873 -0.00955598 0)
(-0.0664387 -0.0204564 0)
(-0.063622 -0.0312234 0)
(-0.0592232 -0.0414212 0)
(-0.0530473 -0.050258 0)
(-0.0450001 -0.0564906 0)
(-0.0352245 -0.0583988 0)
(-0.0242537 -0.0538944 0)
(-0.0131325 -0.0408201 0)
(-0.0033302 -0.0174509 0)
(-0.00347175 0.0202847 0)
(-0.0136744 0.0467432 0)
(-0.0250201 0.0610251 0)
(-0.0359821 0.0656563 0)
(-0.0455867 0.0633707 0)
(-0.0534193 0.0565913 0)
(-0.0594487 0.0471852 0)
(-0.0638529 0.0364215 0)
(-0.0668816 0.0250496 0)
(-0.0687629 0.013427 0)
(-0.0696485 0.0016574 0)
(-0.0695839 -0.0102791 0)
(-0.0684948 -0.0223999 0)
(-0.0661886 -0.0345871 0)
(-0.0623757 -0.0464391 0)
(-0.0567225 -0.0571075 0)
(-0.048956 -0.0651426 0)
(-0.0390323 -0.0684071 0)
(-0.02736 -0.0641509 0)
(-0.0150315 -0.0493571 0)
(-0.00381904 -0.0214229 0)
(-0.00374696 0.0244449 0)
(-0.0147865 0.0554117 0)
(-0.0266092 0.0711192 0)
(-0.0374649 0.0752342 0)
(-0.0464263 0.0714663 0)
(-0.0532677 0.0629147 0)
(-0.0581757 0.0518317 0)
(-0.061517 0.0396518 0)
(-0.0636809 0.0271463 0)
(-0.0649891 0.014612 0)
(-0.0656501 0.00204771 0)
(-0.0657374 -0.010693 0)
(-0.0651779 -0.0237607 0)
(-0.0637471 -0.0371623 0)
(-0.0610763 -0.0505848 0)
(-0.0566876 -0.0631817 0)
(-0.0500871 -0.0733398 0)
(-0.0409497 -0.0784874 0)
(-0.0294171 -0.0750739 0)
(-0.016487 -0.0589095 0)
(-0.00419465 -0.0260551 0)
(-0.0037133 0.0290902 0)
(-0.0147641 0.0646014 0)
(-0.0259316 0.0811386 0)
(-0.035358 0.0840383 0)
(-0.042346 0.0782795 0)
(-0.0470015 0.067727 0)
(-0.0498036 0.0549935 0)
(-0.0513259 0.0416134 0)
(-0.0520845 0.0283152 0)
(-0.0524721 0.0152859 0)
(-0.0527361 0.00238613 0)
(-0.0529747 -0.0106807 0)
(-0.0531306 -0.0242243 0)
(-0.0529796 -0.0384153 0)
(-0.0521163 -0.0530926 0)
(-0.0499536 -0.0675026 0)
(-0.0457745 -0.0799712 0)
(-0.0388937 -0.0875554 0)
(-0.0290023 -0.0858218 0)
(-0.0167476 -0.0690494 0)
(-0.00425879 -0.0312812 0)
(-0.00303094 0.0340102 0)
(-0.0123937 0.073558 0)
(-0.0208613 0.0898312 0)
(-0.0267494 0.0905923 0)
(-0.0298705 0.0823749 0)
(-0.0308053 0.0697958 0)
(-0.0303489 0.055703 0)
(-0.0292375 0.0416009 0)
(-0.0280461 0.0280833 0)
(-0.0271749 0.0151766 0)
(-0.026868 0.0025846 0)
(-0.0272327 -0.0101418 0)
(-0.0282446 -0.0234728 0)
(-0.0297306 -0.0377613 0)
(-0.031331 -0.0530544 0)
(-0.0324511 -0.0688062 0)
(-0.0322363 -0.0834593 0)
(-0.0296453 -0.0938969 0)
(-0.0237534 -0.0948807 0)
(-0.0144817 -0.0788473 0)
(-0.00365043 -0.0368611 0)
(-0.00104035 0.0387192 0)
(-0.00544009 0.0808568 0)
(-0.00781147 0.0951336 0)
(-0.00715159 0.0927349 0)
(-0.00407715 0.0818692 0)
(0.000337786 0.0676633 0)
(0.00510435 0.0529211 0)
(0.00948518 0.03892 0)
(0.0129921 0.0260146 0)
(0.0153264 0.0140377 0)
(0.0163168 0.00254753 0)
(0.0158749 -0.00902365 0)
(0.0139795 -0.0212677 0)
(0.0106919 -0.0346973 0)
(0.00620828 -0.0495891 0)
(0.000950747 -0.0657107 0)
(-0.00431562 -0.0818572 0)
(-0.00839768 -0.0951146 0)
(-0.00977953 -0.0998311 0)
(-0.00727975 -0.0865727 0)
(-0.00167858 -0.0422351 0)
(0.00371678 0.0422143 0)
(0.0105322 0.0840029 0)
(0.0194694 0.0939414 0)
(0.0303237 0.087673 0)
(0.0417675 0.0746801 0)
(0.0526242 0.0599623 0)
(0.0621155 0.0458357 0)
(0.0698179 0.0331271 0)
(0.0755458 0.0218808 0)
(0.0792376 0.0117507 0)
(0.0808721 0.00220779 0)
(0.0804161 -0.00735521 0)
(0.0778016 -0.0175654 0)
(0.0729314 -0.0290142 0)
(0.0657216 -0.0421581 0)
(0.0561954 -0.0571135 0)
(0.0446472 -0.0732424 0)
(0.0318816 -0.088351 0)
(0.0194491 -0.0972291 0)
(0.00950352 -0.0892895 0)
(0.00316107 -0.0462509 0)
(0.0153924 0.0421328 0)
(0.0451885 0.078416 0)
(0.0722541 0.0819034 0)
(0.0961518 0.0724204 0)
(0.116459 0.0591959 0)
(0.133103 0.0460488 0)
(0.146256 0.0343541 0)
(0.156209 0.0243746 0)
(0.163276 0.0158842 0)
(0.167722 0.00845416 0)
(0.169717 0.00157999 0)
(0.169308 -0.00526857 0)
(0.166395 -0.0126306 0)
(0.16073 -0.0210416 0)
(0.151914 -0.0309963 0)
(0.139418 -0.0428458 0)
(0.122668 -0.0565426 0)
(0.101216 -0.071023 0)
(0.0751473 -0.0827288 0)
(0.0456491 -0.0819953 0)
(0.0150847 -0.0463228 0)
(0.0493246 0.0344598 0)
(0.121574 0.0579864 0)
(0.171255 0.0551802 0)
(0.205654 0.045806 0)
(0.230489 0.0358951 0)
(0.248675 0.0271005 0)
(0.261966 0.0197756 0)
(0.271483 0.0137944 0)
(0.277989 0.00886559 0)
(0.281989 0.00465116 0)
(0.283778 0.000808864 0)
(0.28346 -0.00299776 0)
(0.280944 -0.00710318 0)
(0.275927 -0.0118456 0)
(0.267843 -0.0175647 0)
(0.255777 -0.0245788 0)
(0.2383 -0.0331153 0)
(0.213155 -0.0430951 0)
(0.176854 -0.0534223 0)
(0.123704 -0.0586896 0)
(0.0494113 -0.0379939 0)
(0.182829 0.00460006 0)
(0.296538 0.00801328 0)
(0.350115 0.0113166 0)
(0.376951 0.0108945 0)
(0.393033 0.00899282 0)
(0.403478 0.00691228 0)
(0.410562 0.00506424 0)
(0.415386 0.00352373 0)
(0.418569 0.00224725 0)
(0.420475 0.0011557 0)
(0.421304 0.000162302 0)
(0.421133 -0.00081868 0)
(0.419919 -0.00186953 0)
(0.417495 -0.00306577 0)
(0.413514 -0.00446517 0)
(0.407341 -0.00607738 0)
(0.397756 -0.00778716 0)
(0.382144 -0.009186 0)
(0.354587 -0.00923595 0)
(0.29806 -0.00677973 0)
(0.181104 -0.00723652 0)
)
;

boundaryField
{
    movingWall
    {
        type            fixedValue;
        value           uniform (0.5 0 0);
    }
    fixedWalls
    {
        type            noSlip;
    }
    frontAndBack
    {
        type            empty;
    }
}


// ************************************************************************* //
