/*--------------------------------*- C++ -*----------------------------------*\
| =========                 |                                                 |
| \\      /  F ield         | OpenFOAM: The Open Source CFD Toolbox           |
|  \\    /   O peration     | Version:  4.1                                   |
|   \\  /    A nd           | Web:      www.OpenFOAM.org                      |
|    \\/     M anipulation  |                                                 |
\*---------------------------------------------------------------------------*/
FoamFile
{
    version     2.0;
    format      ascii;
    class       volVectorField;
    location    "149";
    object      U;
}
// * * * * * * * * * * * * * * * * * * * * * * * * * * * * * * * * * * * * * //

dimensions      [0 1 -1 0 0 0 0];

internalField   nonuniform List<vector> 
3264
(
(2.5648e-05 -2.96446e-05 0)
(1.4595e-06 -1.01716e-05 0)
(-0.000143145 8.61685e-06 0)
(-0.000356718 1.52707e-05 0)
(-0.000623942 2.07226e-05 0)
(-0.000936557 2.36831e-05 0)
(-0.00128849 2.9492e-05 0)
(-0.00168406 3.66832e-05 0)
(-0.00212214 4.70098e-05 0)
(-0.00260744 6.00002e-05 0)
(-0.00314088 7.63e-05 0)
(-0.00372506 9.57935e-05 0)
(-0.00435983 0.000118504 0)
(-0.00504406 0.000144003 0)
(-0.00577381 0.000171615 0)
(-0.00654279 0.000200287 0)
(-0.00734182 0.000228695 0)
(-0.0081591 0.000255322 0)
(-0.00898042 0.000278605 0)
(-0.00978967 0.00029707 0)
(-0.0105694 0.00030946 0)
(-0.0113018 0.00031482 0)
(-0.0119687 0.000312547 0)
(-0.0125532 0.00030239 0)
(-0.0130394 0.000284426 0)
(-0.0134131 0.000259011 0)
(-0.0136623 0.000226731 0)
(-0.0137773 0.00018835 0)
(-0.0137505 0.000144766 0)
(-0.0135772 9.69743e-05 0)
(-0.0132549 4.60433e-05 0)
(-0.0127835 -6.90834e-06 0)
(-0.0121657 -6.07259e-05 0)
(-0.0114065 -0.000114231 0)
(-0.0105132 -0.000166232 0)
(-0.00949555 -0.000215538 0)
(-0.00836579 -0.000260971 0)
(-0.0071383 -0.000301385 0)
(-0.00582972 -0.000335698 0)
(-0.00445881 -0.000362919 0)
(-0.00304625 -0.000382196 0)
(-0.00161441 -0.000392866 0)
(-0.00018699 -0.000394515 0)
(0.00121143 -0.000387035 0)
(0.00255603 -0.000370685 0)
(0.00382246 -0.000346126 0)
(0.00498779 -0.000314438 0)
(0.00603144 -0.000277087 0)
(0.0069363 -0.000235846 0)
(0.00768968 -0.000192657 0)
(0.00828421 -0.000149457 0)
(0.00871836 -0.00010799 0)
(0.00899661 -6.96558e-05 0)
(0.00912912 -3.54383e-05 0)
(0.00913078 -5.9182e-06 0)
(0.00901983 1.86456e-05 0)
(0.00881624 3.8237e-05 0)
(0.00854006 5.30657e-05 0)
(0.00821013 6.36282e-05 0)
(0.0078433 7.07887e-05 0)
(0.00745409 7.577e-05 0)
(0.00705462 7.99521e-05 0)
(0.00665474 8.44804e-05 0)
(0.0062624 8.98383e-05 0)
(0.00588431 9.56287e-05 0)
(0.00552677 0.00010072 0)
(0.00519634 0.000103684 0)
(0.00490013 0.000103285 0)
(0.00464578 9.87756e-05 0)
(0.0044411 8.99478e-05 0)
(0.00429369 7.70066e-05 0)
(0.00421037 6.04065e-05 0)
(0.00419671 4.07326e-05 0)
(0.00425658 1.86466e-05 0)
(0.00439175 -5.12092e-06 0)
(0.00460165 -2.97621e-05 0)
(0.00488321 -5.43887e-05 0)
(0.00523077 -7.80471e-05 0)
(0.00563622 -9.97542e-05 0)
(0.00608909 -0.000118554 0)
(0.00657696 -0.000133589 0)
(0.00708597 -0.000144179 0)
(0.00760149 -0.000149899 0)
(0.00810895 -0.000150635 0)
(0.00859477 -0.000146612 0)
(0.00904718 -0.000138378 0)
(0.00945695 -0.00012674 0)
(0.00981779 -0.000112671 0)
(0.0101265 -9.71994e-05 0)
(0.0103828 -8.13004e-05 0)
(0.0105888 -6.58157e-05 0)
(0.0107485 -5.14015e-05 0)
(0.0108673 -3.85099e-05 0)
(0.0109511 -2.73985e-05 0)
(0.0110061 -1.81565e-05 0)
(0.0110381 -1.07415e-05 0)
(0.0110525 -5.01765e-06 0)
(0.0110541 -7.90222e-07 0)
(0.0110467 2.16434e-06 0)
(0.0110335 4.07583e-06 0)
(0.0110172 5.16393e-06 0)
(0.0109996 5.62768e-06 0)
(0.010982 5.63963e-06 0)
(0.0109655 5.34363e-06 0)
(0.0109504 4.85523e-06 0)
(0.0109372 4.26378e-06 0)
(0.010926 3.63554e-06 0)
(0.0109166 3.01723e-06 0)
(0.010909 2.4397e-06 0)
(0.0109031 1.92127e-06 0)
(0.0108984 1.47086e-06 0)
(0.010895 1.0906e-06 0)
(0.0108925 7.77934e-07 0)
(0.0108908 5.27372e-07 0)
(0.0108897 3.31794e-07 0)
(0.010889 1.83405e-07 0)
(0.0108887 7.44166e-08 0)
(0.0108887 -2.51377e-09 0)
(0.0108888 -5.40133e-08 0)
(0.010889 -8.58626e-08 0)
(0.0108892 -1.02958e-07 0)
(0.0108895 -1.09339e-07 0)
(0.0108898 -1.08253e-07 0)
(0.0108901 -1.02251e-07 0)
(0.0108904 -9.32783e-08 0)
(0.0108906 -8.27803e-08 0)
(0.0108908 -7.17925e-08 0)
(0.010891 -6.10252e-08 0)
(0.0108912 -5.09367e-08 0)
(0.0108913 -4.17954e-08 0)
(0.0108914 -3.37303e-08 0)
(0.0108915 -2.67721e-08 0)
(0.0108915 -2.08857e-08 0)
(0.0108916 -1.59939e-08 0)
(0.0108916 -1.19965e-08 0)
(0.0108917 -8.78288e-09 0)
(0.0108917 -6.2416e-09 0)
(0.0108917 -4.26609e-09 0)
(0.0108917 -2.75848e-09 0)
(0.0108917 -1.63153e-09 0)
(0.0108917 -8.09296e-10 0)
(0.0108917 -2.27068e-10 0)
(0.0108917 1.69312e-10 0)
(0.0108917 4.24401e-10 0)
(0.0108917 5.74282e-10 0)
(0.0108917 6.47705e-10 0)
(0.0108917 6.67222e-10 0)
(0.0108917 6.50221e-10 0)
(0.0108917 6.09864e-10 0)
(0.0108917 5.55914e-10 0)
(0.0108917 4.95433e-10 0)
(0.0108917 4.33376e-10 0)
(0.0108917 3.7308e-10 0)
(0.0108917 3.16662e-10 0)
(0.0108917 2.6534e-10 0)
(0.0108917 2.19682e-10 0)
(0.0108917 1.79807e-10 0)
(0.0108917 1.4553e-10 0)
(0.0108917 1.16472e-10 0)
(0.0108917 9.21499e-11 0)
(0.0108917 7.20336e-11 0)
(0.0108917 5.55841e-11 0)
(0.0108917 4.22828e-11 0)
(0.0108917 3.16442e-11 0)
(0.0108917 2.32316e-11 0)
(0.0108917 1.6657e-11 0)
(0.0108917 1.15851e-11 0)
(0.0108917 7.72778e-12 0)
(0.0108917 4.8403e-12 0)
(0.0108917 2.71853e-12 0)
(0.0108917 1.19436e-12 0)
(0.0108917 1.33089e-13 0)
(0.0108917 -5.77543e-13 0)
(0.0108917 -1.02428e-12 0)
(0.0108917 -1.27818e-12 0)
(0.0108917 -1.39378e-12 0)
(0.0108917 -1.41218e-12 0)
(0.0108917 -1.36536e-12 0)
(0.0108917 -1.27751e-12 0)
(0.0108917 -1.16633e-12 0)
(0.0108917 -1.04429e-12 0)
(0.0108917 -9.19923e-13 0)
(0.0108917 -7.9912e-13 0)
(0.0108917 -6.86963e-13 0)
(0.0108917 -5.84214e-13 0)
(0.0108917 -4.93062e-13 0)
(0.0108917 -4.13155e-13 0)
(0.0108917 -3.43613e-13 0)
(0.0108917 -2.8419e-13 0)
(0.0108917 -2.33218e-13 0)
(0.0108917 -1.88988e-13 0)
(0.0108917 -1.53495e-13 0)
(0.0108917 -1.22332e-13 0)
(0.0108917 -1.12971e-13 0)
(0.0108917 -1.07101e-13 0)
(0.0108917 -1.65407e-13 0)
(0.0108917 -3.12983e-13 0)
(0.0108917 -4.31374e-13 0)
(0.0108917 -1.6403e-12 0)
(0.0108917 -1.19516e-12 0)
(-5.43244e-05 2.89011e-06 0)
(-0.000449236 0.00018994 0)
(-0.00110906 0.000368372 0)
(-0.00190682 0.000488055 0)
(-0.00280885 0.000590233 0)
(-0.00379699 0.000674174 0)
(-0.0048504 0.000758306 0)
(-0.00596637 0.000840363 0)
(-0.00713227 0.000925171 0)
(-0.00834372 0.00101109 0)
(-0.00958976 0.00109777 0)
(-0.0108603 0.00118247 0)
(-0.0121409 0.00126203 0)
(-0.013415 0.00133232 0)
(-0.0146631 0.00138891 0)
(-0.0158643 0.00142734 0)
(-0.0169961 0.00144351 0)
(-0.0180358 0.00143401 0)
(-0.0189615 0.00139634 0)
(-0.0197521 0.00132905 0)
(-0.0203886 0.00123179 0)
(-0.0208541 0.0011052 0)
(-0.0211343 0.00095085 0)
(-0.0212174 0.000771017 0)
(-0.0210943 0.000568556 0)
(-0.0207587 0.000346733 0)
(-0.0202066 0.000109092 0)
(-0.0194368 -0.000140644 0)
(-0.0184504 -0.000398638 0)
(-0.0172508 -0.000660994 0)
(-0.0158438 -0.000923773 0)
(-0.0142374 -0.00118301 0)
(-0.0124418 -0.00143472 0)
(-0.0104696 -0.00167491 0)
(-0.00833553 -0.00189954 0)
(-0.00605656 -0.0021046 0)
(-0.00365208 -0.00228609 0)
(-0.00114378 -0.00244003 0)
(0.00144427 -0.00256261 0)
(0.00408564 -0.00265019 0)
(0.00675161 -0.00269946 0)
(0.00941125 -0.00270761 0)
(0.0120317 -0.0026725 0)
(0.0145785 -0.00259291 0)
(0.0170159 -0.00246881 0)
(0.019308 -0.00230156 0)
(0.0214192 -0.00209422 0)
(0.0233152 -0.0018517 0)
(0.0249648 -0.0015808 0)
(0.026341 -0.00129018 0)
(0.0274225 -0.00098999 0)
(0.0281955 -0.00069136 0)
(0.0286553 -0.00040551 0)
(0.0288072 -0.0001427 0)
(0.0286674 8.8915e-05 0)
(0.0282629 0.000284218 0)
(0.0276304 0.000441529 0)
(0.0268142 0.000562222 0)
(0.0258634 0.000649651 0)
(0.0248284 0.00070783 0)
(0.0237563 0.000740482 0)
(0.0226879 0.00075074 0)
(0.0216557 0.00074132 0)
(0.0206842 0.000714702 0)
(0.0197916 0.000673081 0)
(0.0189923 0.000618176 0)
(0.0182987 0.000551114 0)
(0.0177216 0.000472464 0)
(0.0172703 0.000382442 0)
(0.0169524 0.00028123 0)
(0.0167732 0.000169368 0)
(0.0167357 4.81021e-05 0)
(0.0168406 -8.0426e-05 0)
(0.0170858 -0.000213191 0)
(0.0174668 -0.00034645 0)
(0.0179759 -0.000475979 0)
(0.0186025 -0.00059732 0)
(0.0193328 -0.000706013 0)
(0.0201496 -0.000797831 0)
(0.0210331 -0.000869032 0)
(0.0219609 -0.000916641 0)
(0.0229088 -0.000938754 0)
(0.0238519 -0.000934814 0)
(0.0247658 -0.000905797 0)
(0.0256281 -0.000854237 0)
(0.0264199 -0.000784053 0)
(0.027127 -0.000700172 0)
(0.0277404 -0.000608013 0)
(0.0282568 -0.000512928 0)
(0.0286778 -0.000419714 0)
(0.0290094 -0.000332255 0)
(0.0292604 -0.000253348 0)
(0.0294416 -0.000184687 0)
(0.0295646 -0.000126975 0)
(0.0296407 -8.01104e-05 0)
(0.0296803 -4.3402e-05 0)
(0.0296929 -1.5775e-05 0)
(0.0296864 4.04799e-06 0)
(0.0296673 1.74058e-05 0)
(0.0296406 2.55956e-05 0)
(0.0296103 2.9805e-05 0)
(0.0295792 3.10737e-05 0)
(0.0295492 3.02774e-05 0)
(0.0295216 2.81275e-05 0)
(0.029497 2.51817e-05 0)
(0.0294758 2.18611e-05 0)
(0.029458 1.84697e-05 0)
(0.0294433 1.52155e-05 0)
(0.0294316 1.22301e-05 0)
(0.0294225 9.58628e-06 0)
(0.0294155 7.31347e-06 0)
(0.0294103 5.41065e-06 0)
(0.0294067 3.85663e-06 0)
(0.0294042 2.61804e-06 0)
(0.0294026 1.65536e-06 0)
(0.0294017 9.2726e-07 0)
(0.0294013 3.93555e-07 0)
(0.0294012 1.70661e-08 0)
(0.0294014 -2.35311e-07 0)
(0.0294018 -3.9215e-07 0)
(0.0294022 -4.77455e-07 0)
(0.0294026 -5.10894e-07 0)
(0.0294031 -5.08207e-07 0)
(0.0294035 -4.81687e-07 0)
(0.0294039 -4.40695e-07 0)
(0.0294043 -3.92163e-07 0)
(0.0294046 -3.41051e-07 0)
(0.0294048 -2.90763e-07 0)
(0.029405 -2.435e-07 0)
(0.0294052 -2.00558e-07 0)
(0.0294054 -1.62573e-07 0)
(0.0294055 -1.29712e-07 0)
(0.0294056 -1.0183e-07 0)
(0.0294057 -7.8582e-08 0)
(0.0294057 -5.95119e-08 0)
(0.0294058 -4.41128e-08 0)
(0.0294058 -3.18711e-08 0)
(0.0294058 -2.22943e-08 0)
(0.0294058 -1.49291e-08 0)
(0.0294058 -9.36991e-09 0)
(0.0294058 -5.26316e-09 0)
(0.0294058 -2.30651e-09 0)
(0.0294058 -2.46163e-10 0)
(0.0294058 1.1274e-09 0)
(0.0294058 1.98452e-09 0)
(0.0294058 2.46156e-09 0)
(0.0294058 2.66607e-09 0)
(0.0294058 2.68155e-09 0)
(0.0294058 2.57168e-09 0)
(0.0294058 2.38418e-09 0)
(0.0294058 2.15403e-09 0)
(0.0294058 1.90619e-09 0)
(0.0294058 1.65788e-09 0)
(0.0294058 1.42045e-09 0)
(0.0294058 1.20086e-09 0)
(0.0294058 1.00287e-09 0)
(0.0294058 8.27973e-10 0)
(0.0294058 6.76094e-10 0)
(0.0294058 5.46148e-10 0)
(0.0294058 4.36428e-10 0)
(0.0294058 3.44899e-10 0)
(0.0294058 2.69408e-10 0)
(0.0294058 2.0782e-10 0)
(0.0294058 1.5811e-10 0)
(0.0294058 1.18413e-10 0)
(0.0294058 8.70576e-11 0)
(0.0294058 6.25732e-11 0)
(0.0294058 4.36927e-11 0)
(0.0294058 2.93262e-11 0)
(0.0294058 1.85649e-11 0)
(0.0294058 1.06484e-11 0)
(0.0294058 4.95191e-12 0)
(0.0294058 9.70811e-13 0)
(0.0294058 -1.70971e-12 0)
(0.0294058 -3.41605e-12 0)
(0.0294058 -4.40358e-12 0)
(0.0294058 -4.87595e-12 0)
(0.0294058 -4.9842e-12 0)
(0.0294058 -4.85292e-12 0)
(0.0294058 -4.56755e-12 0)
(0.0294058 -4.19086e-12 0)
(0.0294058 -3.7722e-12 0)
(0.0294058 -3.33936e-12 0)
(0.0294058 -2.92192e-12 0)
(0.0294058 -2.52978e-12 0)
(0.0294058 -2.16905e-12 0)
(0.0294058 -1.84638e-12 0)
(0.0294058 -1.55726e-12 0)
(0.0294058 -1.30707e-12 0)
(0.0294058 -1.08915e-12 0)
(0.0294058 -8.97053e-13 0)
(0.0294058 -7.31257e-13 0)
(0.0294058 -5.77721e-13 0)
(0.0294058 -4.7687e-13 0)
(0.0294058 -3.61069e-13 0)
(0.0294058 -4.21024e-13 0)
(0.0294058 -5.63506e-13 0)
(0.0294058 -6.66089e-13 0)
(0.0294058 -3.42216e-12 0)
(0.0294058 -2.95096e-12 0)
(-0.000176969 0.000468186 0)
(-0.00106609 0.00104609 0)
(-0.00228627 0.00145319 0)
(-0.00360622 0.00168301 0)
(-0.00496323 0.00187167 0)
(-0.00633253 0.00201175 0)
(-0.00768285 0.00213979 0)
(-0.00900978 0.00225034 0)
(-0.0102968 0.00235116 0)
(-0.0115375 0.00243844 0)
(-0.0127184 0.00251021 0)
(-0.0138278 0.0025613 0)
(-0.0148503 0.0025866 0)
(-0.0157705 0.00258065 0)
(-0.0165721 0.00253859 0)
(-0.0172389 0.00245643 0)
(-0.0177555 0.00233134 0)
(-0.0181081 0.0021618 0)
(-0.0182841 0.00194759 0)
(-0.018273 0.00168976 0)
(-0.0180665 0.00139041 0)
(-0.0176579 0.0010526 0)
(-0.0170425 0.000680134 0)
(-0.0162174 0.000277347 0)
(-0.0151815 -0.000150999 0)
(-0.0139352 -0.000599866 0)
(-0.0124805 -0.00106402 0)
(-0.0108207 -0.0015381 0)
(-0.00896105 -0.00201662 0)
(-0.00690788 -0.00249401 0)
(-0.00466932 -0.0029646 0)
(-0.00225508 -0.00342259 0)
(0.000323402 -0.00386205 0)
(0.0030529 -0.00427692 0)
(0.0059183 -0.004661 0)
(0.00890248 -0.00500792 0)
(0.0119862 -0.00531123 0)
(0.0151482 -0.00556437 0)
(0.0183646 -0.0057608 0)
(0.0216095 -0.00589414 0)
(0.0248546 -0.00595831 0)
(0.0280692 -0.00594778 0)
(0.0312205 -0.0058579 0)
(0.0342739 -0.00568523 0)
(0.0371932 -0.00542799 0)
(0.0399414 -0.00508645 0)
(0.0424812 -0.0046634 0)
(0.0447759 -0.00416451 0)
(0.04679 -0.00359859 0)
(0.048491 -0.00297777 0)
(0.0498493 -0.00231739 0)
(0.0508404 -0.00163579 0)
(0.0514455 -0.00095378 0)
(0.0516533 -0.000293847 0)
(0.0514618 0.000320976 0)
(0.0508804 0.000868634 0)
(0.0499319 0.00132995 0)
(0.0486543 0.00169084 0)
(0.0471006 0.00194445 0)
(0.0453375 0.00209276 0)
(0.0434407 0.00214658 0)
(0.041489 0.0021233 0)
(0.0395579 0.00204262 0)
(0.0377139 0.00192151 0)
(0.0360099 0.00177091 0)
(0.0344836 0.00159539 0)
(0.0331577 0.00139553 0)
(0.0320427 0.00117104 0)
(0.0311408 0.000922925 0)
(0.03045 0.000654144 0)
(0.0299661 0.000369184 0)
(0.0296845 7.34346e-05 0)
(0.0295995 -0.000227249 0)
(0.029704 -0.000526701 0)
(0.029989 -0.000818444 0)
(0.0304435 -0.00109563 0)
(0.0310539 -0.00135105 0)
(0.0318041 -0.00157726 0)
(0.032675 -0.00176683 0)
(0.0336447 -0.00191279 0)
(0.0346883 -0.00200927 0)
(0.0357782 -0.00205215 0)
(0.0368848 -0.00203984 0)
(0.0379777 -0.00197389 0)
(0.0390277 -0.00185921 0)
(0.0400081 -0.00170391 0)
(0.040897 -0.00151855 0)
(0.041679 -0.00131506 0)
(0.0423453 -0.00110542 0)
(0.0428944 -0.000900427 0)
(0.043331 -0.000708826 0)
(0.0436644 -0.000536839 0)
(0.0439073 -0.000388116 0)
(0.044074 -0.000264013 0)
(0.0441791 -0.000164054 0)
(0.0442363 -8.64606e-05 0)
(0.0442578 -2.86499e-05 0)
(0.044254 1.23478e-05 0)
(0.0442335 3.95709e-05 0)
(0.044203 5.59062e-05 0)
(0.0441676 6.39525e-05 0)
(0.0441308 6.59507e-05 0)
(0.0440952 6.37619e-05 0)
(0.0440624 5.88786e-05 0)
(0.0440331 5.24561e-05 0)
(0.044008 4.53556e-05 0)
(0.0439868 3.81907e-05 0)
(0.0439695 3.13744e-05 0)
(0.0439556 2.51618e-05 0)
(0.0439448 1.96888e-05 0)
(0.0439365 1.50041e-05 0)
(0.0439305 1.10962e-05 0)
(0.0439261 7.91417e-06 0)
(0.0439232 5.38432e-06 0)
(0.0439213 3.42189e-06 0)
(0.0439202 1.93977e-06 0)
(0.0439197 8.54206e-07 0)
(0.0439196 8.83502e-08 0)
(0.0439198 -4.25779e-07 0)
(0.0439201 -7.46553e-07 0)
(0.0439206 -9.22793e-07 0)
(0.0439211 -9.9436e-07 0)
(0.0439216 -9.93043e-07 0)
(0.0439221 -9.43606e-07 0)
(0.0439225 -8.64864e-07 0)
(0.0439229 -7.70719e-07 0)
(0.0439232 -6.71108e-07 0)
(0.0439235 -5.72844e-07 0)
(0.0439237 -4.80334e-07 0)
(0.0439239 -3.96177e-07 0)
(0.0439241 -3.21657e-07 0)
(0.0439242 -2.5713e-07 0)
(0.0439243 -2.02325e-07 0)
(0.0439244 -1.56581e-07 0)
(0.0439245 -1.19011e-07 0)
(0.0439245 -8.86282e-08 0)
(0.0439246 -6.44319e-08 0)
(0.0439246 -4.54614e-08 0)
(0.0439246 -3.08315e-08 0)
(0.0439246 -1.97505e-08 0)
(0.0439246 -1.15274e-08 0)
(0.0439246 -5.57119e-09 0)
(0.0439246 -1.38535e-09 0)
(0.0439246 1.44033e-09 0)
(0.0439246 3.23967e-09 0)
(0.0439246 4.28032e-09 0)
(0.0439246 4.7737e-09 0)
(0.0439246 4.88424e-09 0)
(0.0439246 4.73777e-09 0)
(0.0439246 4.42885e-09 0)
(0.0439246 4.0271e-09 0)
(0.0439246 3.58251e-09 0)
(0.0439246 3.12985e-09 0)
(0.0439246 2.69234e-09 0)
(0.0439246 2.2845e-09 0)
(0.0439246 1.91452e-09 0)
(0.0439246 1.58604e-09 0)
(0.0439246 1.29956e-09 0)
(0.0439246 1.05351e-09 0)
(0.0439246 8.45012e-10 0)
(0.0439246 6.70499e-10 0)
(0.0439246 5.26084e-10 0)
(0.0439246 4.07872e-10 0)
(0.0439246 3.12123e-10 0)
(0.0439246 2.35381e-10 0)
(0.0439246 1.74526e-10 0)
(0.0439246 1.26802e-10 0)
(0.0439246 8.98108e-11 0)
(0.0439246 6.15101e-11 0)
(0.0439246 4.01686e-11 0)
(0.0439246 2.43429e-11 0)
(0.0439246 1.28387e-11 0)
(0.0439246 4.68122e-12 0)
(0.0439246 -9.13694e-13 0)
(0.0439246 -4.58016e-12 0)
(0.0439246 -6.814e-12 0)
(0.0439246 -8.00979e-12 0)
(0.0439246 -8.47195e-12 0)
(0.0439246 -8.42686e-12 0)
(0.0439246 -8.05267e-12 0)
(0.0439246 -7.47666e-12 0)
(0.0439246 -6.79303e-12 0)
(0.0439246 -6.07012e-12 0)
(0.0439246 -5.34805e-12 0)
(0.0439246 -4.66004e-12 0)
(0.0439246 -4.0212e-12 0)
(0.0439246 -3.44228e-12 0)
(0.0439246 -2.92825e-12 0)
(0.0439246 -2.47153e-12 0)
(0.0439246 -2.0715e-12 0)
(0.0439246 -1.71954e-12 0)
(0.0439246 -1.40731e-12 0)
(0.0439246 -1.13026e-12 0)
(0.0439246 -8.865e-13 0)
(0.0439246 -6.40382e-13 0)
(0.0439246 -5.3519e-13 0)
(0.0439246 -3.13356e-13 0)
(0.0439246 -4.66255e-13 0)
(0.0439246 -1.69325e-12 0)
(0.0439246 -1.21015e-12 0)
(-0.000328607 0.00114493 0)
(-0.00166015 0.00224162 0)
(-0.00318636 0.00284449 0)
(-0.00464614 0.00309842 0)
(-0.00595041 0.00326083 0)
(-0.00713439 0.00333847 0)
(-0.00817633 0.00338928 0)
(-0.0090986 0.00341154 0)
(-0.00989415 0.00341701 0)
(-0.0105684 0.00340194 0)
(-0.0111159 0.00336387 0)
(-0.0115335 0.00329679 0)
(-0.0118142 0.00319506 0)
(-0.0119515 0.00305302 0)
(-0.011938 0.00286603 0)
(-0.0117667 0.00263061 0)
(-0.0114313 0.00234466 0)
(-0.0109263 0.00200749 0)
(-0.0102469 0.00161976 0)
(-0.00938945 0.00118333 0)
(-0.00835126 0.000701121 0)
(-0.00713047 0.00017695 0)
(-0.00572611 -0.000384668 0)
(-0.00413809 -0.000978654 0)
(-0.00236718 -0.0015995 0)
(-0.000415056 -0.00224134 0)
(0.00171563 -0.00289804 0)
(0.00402116 -0.00356322 0)
(0.00649668 -0.00423024 0)
(0.009136 -0.00489223 0)
(0.0119316 -0.00554204 0)
(0.0148742 -0.00617225 0)
(0.0179531 -0.00677513 0)
(0.0211555 -0.00734267 0)
(0.024467 -0.00786653 0)
(0.027871 -0.00833808 0)
(0.0313487 -0.0087484 0)
(0.0348792 -0.00908837 0)
(0.0384392 -0.00934875 0)
(0.0420034 -0.00952033 0)
(0.0455438 -0.00959423 0)
(0.0490304 -0.00956213 0)
(0.0524312 -0.00941677 0)
(0.0557128 -0.00915244 0)
(0.0588408 -0.0087655 0)
(0.0617802 -0.00825503 0)
(0.064497 -0.00762338 0)
(0.0669582 -0.00687661 0)
(0.0691332 -0.00602475 0)
(0.0709943 -0.00508196 0)
(0.072517 -0.00406631 0)
(0.0736804 -0.00299946 0)
(0.0744673 -0.00190611 0)
(0.0748636 -0.000813418 0)
(0.0748592 0.000249714 0)
(0.0744477 0.00125331 0)
(0.0736275 0.0021672 0)
(0.072404 0.00296214 0)
(0.070792 0.00361157 0)
(0.0688196 0.00409406 0)
(0.0665316 0.00439629 0)
(0.0639915 0.00451591 0)
(0.0612815 0.00446314 0)
(0.0584973 0.00426017 0)
(0.0557404 0.00393806 0)
(0.0531066 0.00353138 0)
(0.0506766 0.00307215 0)
(0.0485092 0.00258491 0)
(0.0466389 0.00208473 0)
(0.0450792 0.00157859 0)
(0.0438271 0.00106878 0)
(0.0428696 0.000556683 0)
(0.0421884 4.52028e-05 0)
(0.0417642 -0.000460315 0)
(0.041578 -0.000952291 0)
(0.0416119 -0.00142153 0)
(0.0418484 -0.0018578 0)
(0.0422701 -0.00225027 0)
(0.0428579 -0.0025879 0)
(0.0435909 -0.00285989 0)
(0.0444454 -0.00305641 0)
(0.0453947 -0.00316964 0)
(0.046409 -0.00319496 0)
(0.0474563 -0.00313219 0)
(0.0485037 -0.00298646 0)
(0.0495188 -0.00276844 0)
(0.0504726 -0.00249361 0)
(0.0513412 -0.00218071 0)
(0.0521073 -0.00184964 0)
(0.0527611 -0.00151928 0)
(0.0533002 -0.00120561 0)
(0.0537287 -0.000920624 0)
(0.054056 -0.000671917 0)
(0.0542944 -0.000462946 0)
(0.0544582 -0.000293748 0)
(0.0545618 -0.00016185 0)
(0.0546189 -6.31768e-05 0)
(0.0546415 7.15708e-06 0)
(0.0546398 5.42413e-05 0)
(0.0546223 8.29457e-05 0)
(0.0545952 9.76618e-05 0)
(0.0545636 0.00010217 0)
(0.0545307 9.96024e-05 0)
(0.054499 9.24595e-05 0)
(0.0544698 8.26716e-05 0)
(0.054444 7.16725e-05 0)
(0.0544219 6.04818e-05 0)
(0.0544035 4.97852e-05 0)
(0.0543884 4.00073e-05 0)
(0.0543765 3.13763e-05 0)
(0.0543672 2.39778e-05 0)
(0.0543602 1.77983e-05 0)
(0.0543551 1.27608e-05 0)
(0.0543515 8.75048e-06 0)
(0.0543491 5.63455e-06 0)
(0.0543476 3.27616e-06 0)
(0.0543468 1.54351e-06 0)
(0.0543464 3.15615e-07 0)
(0.0543464 -5.14553e-07 0)
(0.0543466 -1.0389e-06 0)
(0.0543469 -1.33427e-06 0)
(0.0543473 -1.4634e-06 0)
(0.0543478 -1.47632e-06 0)
(0.0543482 -1.41204e-06 0)
(0.0543486 -1.30017e-06 0)
(0.054349 -1.16265e-06 0)
(0.0543493 -1.01518e-06 0)
(0.0543496 -8.68549e-07 0)
(0.0543498 -7.29796e-07 0)
(0.05435 -6.03113e-07 0)
(0.0543502 -4.90626e-07 0)
(0.0543503 -3.93006e-07 0)
(0.0543504 -3.09938e-07 0)
(0.0543505 -2.40483e-07 0)
(0.0543506 -1.83342e-07 0)
(0.0543506 -1.37055e-07 0)
(0.0543507 -1.00125e-07 0)
(0.0543507 -7.11114e-08 0)
(0.0543507 -4.86831e-08 0)
(0.0543507 -3.16465e-08 0)
(0.0543507 -1.89582e-08 0)
(0.0543507 -9.72478e-09 0)
(0.0543507 -3.19458e-09 0)
(0.0543507 1.25413e-09 0)
(0.0543507 4.12795e-09 0)
(0.0543507 5.83357e-09 0)
(0.0543507 6.6927e-09 0)
(0.0543507 6.95603e-09 0)
(0.0543507 6.81577e-09 0)
(0.0543507 6.41677e-09 0)
(0.0543507 5.86599e-09 0)
(0.0543507 5.24059e-09 0)
(0.0543507 4.59459e-09 0)
(0.0543507 3.96434e-09 0)
(0.0543507 3.37295e-09 0)
(0.0543507 2.83375e-09 0)
(0.0543507 2.35313e-09 0)
(0.0543507 1.93256e-09 0)
(0.0543507 1.5703e-09 0)
(0.0543507 1.26255e-09 0)
(0.0543507 1.00435e-09 0)
(0.0543507 7.90197e-10 0)
(0.0543507 6.1451e-10 0)
(0.0543507 4.71892e-10 0)
(0.0543507 3.5732e-10 0)
(0.0543507 2.66245e-10 0)
(0.0543507 1.94629e-10 0)
(0.0543507 1.3896e-10 0)
(0.0543507 9.62224e-11 0)
(0.0543507 6.38652e-11 0)
(0.0543507 3.9756e-11 0)
(0.0543507 2.2126e-11 0)
(0.0543507 9.53192e-12 0)
(0.0543507 7.99898e-13 0)
(0.0543507 -5.00848e-12 0)
(0.0543507 -8.64085e-12 0)
(0.0543507 -1.06846e-11 0)
(0.0543507 -1.15928e-11 0)
(0.0543507 -1.17155e-11 0)
(0.0543507 -1.13158e-11 0)
(0.0543507 -1.05902e-11 0)
(0.0543507 -9.68254e-12 0)
(0.0543507 -8.69264e-12 0)
(0.0543507 -7.69181e-12 0)
(0.0543507 -6.72592e-12 0)
(0.0543507 -5.825e-12 0)
(0.0543507 -5.00562e-12 0)
(0.0543507 -4.27102e-12 0)
(0.0543507 -3.62143e-12 0)
(0.0543507 -3.0504e-12 0)
(0.0543507 -2.54861e-12 0)
(0.0543507 -2.10636e-12 0)
(0.0543507 -1.70737e-12 0)
(0.0543507 -1.33394e-12 0)
(0.0543507 -9.73601e-13 0)
(0.0543507 -6.25054e-13 0)
(0.0543507 -1.64457e-13 0)
(0.0543507 -1.85588e-14 0)
(0.0543507 8.25771e-13 0)
(0.0543507 1.23272e-12 0)
(-0.000423268 0.00244831 0)
(-0.00181218 0.00387052 0)
(-0.00315881 0.00441189 0)
(-0.00426119 0.00437974 0)
(-0.00503323 0.00431035 0)
(-0.00558085 0.00417993 0)
(-0.00590409 0.0040578 0)
(-0.00605931 0.00392538 0)
(-0.00605295 0.00378752 0)
(-0.00590505 0.00363458 0)
(-0.00561812 0.00346033 0)
(-0.00519706 0.00325661 0)
(-0.00464103 0.00301638 0)
(-0.00394946 0.00273337 0)
(-0.00312004 0.00240267 0)
(-0.00215058 0.0020208 0)
(-0.00103852 0.00158575 0)
(0.000218535 0.00109698 0)
(0.00162288 0.000555257 0)
(0.00317659 -3.74477e-05 0)
(0.00488146 -0.000678125 0)
(0.00673893 -0.00136286 0)
(0.00875001 -0.00208699 0)
(0.0109151 -0.00284516 0)
(0.0132339 -0.00363148 0)
(0.0157052 -0.00443958 0)
(0.0183268 -0.00526258 0)
(0.0210954 -0.00609322 0)
(0.0240061 -0.00692376 0)
(0.0270528 -0.00774603 0)
(0.0302276 -0.00855137 0)
(0.0335209 -0.00933065 0)
(0.0369211 -0.0100743 0)
(0.0404145 -0.0107721 0)
(0.0439855 -0.0114136 0)
(0.047616 -0.0119879 0)
(0.0512861 -0.0124834 0)
(0.0549732 -0.0128885 0)
(0.0586527 -0.0131911 0)
(0.0622976 -0.0133794 0)
(0.0658789 -0.0134417 0)
(0.0693659 -0.013367 0)
(0.0727264 -0.013146 0)
(0.0759282 -0.0127712 0)
(0.0789391 -0.012238 0)
(0.0817289 -0.0115455 0)
(0.08427 -0.010697 0)
(0.086539 -0.00970069 0)
(0.0885167 -0.00856944 0)
(0.0901892 -0.00732094 0)
(0.0915472 -0.00597706 0)
(0.0925859 -0.00456314 0)
(0.0933034 -0.00310711 0)
(0.0936997 -0.00163862 0)
(0.0937755 -0.000188274 0)
(0.0935313 0.00121302 0)
(0.092966 0.00253453 0)
(0.0920771 0.0037461 0)
(0.0908615 0.00481855 0)
(0.0893163 0.00572427 0)
(0.0874424 0.00643825 0)
(0.0852481 0.00693956 0)
(0.0827544 0.00721354 0)
(0.0799992 0.00725432 0)
(0.0770407 0.00706735 0)
(0.0739565 0.00667104 0)
(0.070839 0.0060964 0)
(0.067787 0.0053839 0)
(0.0648945 0.004578 0)
(0.0622407 0.00372089 0)
(0.059883 0.0028474 0)
(0.0578547 0.00198263 0)
(0.0561674 0.00114248 0)
(0.0548154 0.000336298 0)
(0.0537821 -0.000429891 0)
(0.0530445 -0.00115053 0)
(0.0525776 -0.00181871 0)
(0.052356 -0.0024254 0)
(0.0523548 -0.0029595 0)
(0.0525495 -0.00340846 0)
(0.0529152 -0.00375936 0)
(0.0534255 -0.00400045 0)
(0.0540524 -0.00412301 0)
(0.0547656 -0.00412335 0)
(0.0555338 -0.00400459 0)
(0.056325 -0.00377748 0)
(0.0571091 -0.0034601 0)
(0.0578589 -0.00307623 0)
(0.0585522 -0.00265262 0)
(0.0591726 -0.00221602 0)
(0.05971 -0.00179034 0)
(0.0601605 -0.00139467 0)
(0.0605252 -0.00104231 0)
(0.06081 -0.000740705 0)
(0.0610232 -0.000492157 0)
(0.0611752 -0.000294962 0)
(0.0612769 -0.000144633 0)
(0.0613386 -3.50673e-05 0)
(0.0613701 4.04983e-05 0)
(0.0613797 8.87855e-05 0)
(0.0613744 0.000116011 0)
(0.0613595 0.000127622 0)
(0.0613393 0.000128194 0)
(0.0613169 0.000121421 0)
(0.0612944 0.000110182 0)
(0.0612731 9.6637e-05 0)
(0.061254 8.2344e-05 0)
(0.0612373 6.83688e-05 0)
(0.0612232 5.53919e-05 0)
(0.0612117 4.38015e-05 0)
(0.0612024 3.37714e-05 0)
(0.0611952 2.53258e-05 0)
(0.0611896 1.83898e-05 0)
(0.0611856 1.28283e-05 0)
(0.0611827 8.47499e-06 0)
(0.0611807 5.15296e-06 0)
(0.0611794 2.68862e-06 0)
(0.0611786 9.20581e-07 0)
(0.0611783 -2.95306e-07 0)
(0.0611782 -1.08375e-06 0)
(0.0611783 -1.54971e-06 0)
(0.0611785 -1.77936e-06 0)
(0.0611788 -1.8418e-06 0)
(0.0611791 -1.79121e-06 0)
(0.0611794 -1.66899e-06 0)
(0.0611796 -1.50602e-06 0)
(0.0611799 -1.3246e-06 0)
(0.0611801 -1.14027e-06 0)
(0.0611803 -9.63304e-07 0)
(0.0611805 -8.00045e-07 0)
(0.0611807 -6.53917e-07 0)
(0.0611808 -5.26271e-07 0)
(0.0611809 -4.17049e-07 0)
(0.061181 -3.25272e-07 0)
(0.061181 -2.49423e-07 0)
(0.0611811 -1.87708e-07 0)
(0.0611811 -1.38251e-07 0)
(0.0611811 -9.92174e-08 0)
(0.0611812 -6.88927e-08 0)
(0.0611812 -4.5729e-08 0)
(0.0611812 -2.83644e-08 0)
(0.0611812 -1.56265e-08 0)
(0.0611812 -6.52471e-09 0)
(0.0611812 -2.36169e-10 0)
(0.0611812 3.91223e-09 0)
(0.0611812 6.46294e-09 0)
(0.0611812 7.84678e-09 0)
(0.0611812 8.40086e-09 0)
(0.0611812 8.38489e-09 0)
(0.0611812 7.99559e-09 0)
(0.0611812 7.37918e-09 0)
(0.0611812 6.64194e-09 0)
(0.0611812 5.85907e-09 0)
(0.0611812 5.08187e-09 0)
(0.0611812 4.3437e-09 0)
(0.0611812 3.66455e-09 0)
(0.0611812 3.05482e-09 0)
(0.0611812 2.51815e-09 0)
(0.0611812 2.05354e-09 0)
(0.0611812 1.65709e-09 0)
(0.0611812 1.32312e-09 0)
(0.0611812 1.0451e-09 0)
(0.0611812 8.16193e-10 0)
(0.0611812 6.29723e-10 0)
(0.0611812 4.79394e-10 0)
(0.0611812 3.59459e-10 0)
(0.0611812 2.64791e-10 0)
(0.0611812 1.90899e-10 0)
(0.0611812 1.33913e-10 0)
(0.0611812 9.05413e-11 0)
(0.0611812 5.80231e-11 0)
(0.0611812 3.40663e-11 0)
(0.0611812 1.67877e-11 0)
(0.0611812 4.65637e-12 0)
(0.0611812 -3.55919e-12 0)
(0.0611812 -8.84234e-12 0)
(0.0611812 -1.19666e-11 0)
(0.0611812 -1.3535e-11 0)
(0.0611812 -1.40123e-11 0)
(0.0611812 -1.37511e-11 0)
(0.0611812 -1.30171e-11 0)
(0.0611812 -1.20038e-11 0)
(0.0611812 -1.08506e-11 0)
(0.0611812 -9.65608e-12 0)
(0.0611812 -8.48458e-12 0)
(0.0611812 -7.38055e-12 0)
(0.0611812 -6.36689e-12 0)
(0.0611812 -5.45419e-12 0)
(0.0611812 -4.64468e-12 0)
(0.0611812 -3.93173e-12 0)
(0.0611812 -3.30796e-12 0)
(0.0611812 -2.75792e-12 0)
(0.0611812 -2.26045e-12 0)
(0.0611812 -1.79721e-12 0)
(0.0611812 -1.32986e-12 0)
(0.0611812 -8.18416e-13 0)
(0.0611812 -1.93623e-13 0)
(0.0611812 4.45641e-13 0)
(0.0611812 2.48729e-12 0)
(0.0611812 2.82771e-12 0)
(-0.000704441 0.00307112 0)
(-0.00209768 0.00478862 0)
(-0.0024926 0.00518016 0)
(-0.00260255 0.00489573 0)
(-0.00224173 0.00456615 0)
(-0.00173772 0.0042125 0)
(-0.00103258 0.00389419 0)
(-0.000211362 0.00359426 0)
(0.000735839 0.0033063 0)
(0.00178739 0.00301748 0)
(0.00294495 0.00271582 0)
(0.0042039 0.00239085 0)
(0.00556569 0.002033 0)
(0.00703076 0.00163465 0)
(0.00860124 0.00118961 0)
(0.0102792 0.000693504 0)
(0.0120674 0.000143482 0)
(0.0139683 -0.000461737 0)
(0.0159848 -0.00112202 0)
(0.0181196 -0.00183593 0)
(0.0203751 -0.00260081 0)
(0.0227533 -0.00341291 0)
(0.0252557 -0.00426751 0)
(0.0278829 -0.00515898 0)
(0.0306343 -0.00608086 0)
(0.0335083 -0.007026 0)
(0.0365017 -0.00798652 0)
(0.03961 -0.00895392 0)
(0.0428269 -0.00991908 0)
(0.0461443 -0.0108722 0)
(0.0495522 -0.0118028 0)
(0.0530387 -0.0126997 0)
(0.0565895 -0.0135512 0)
(0.0601881 -0.0143447 0)
(0.0638158 -0.0150674 0)
(0.0674513 -0.0157055 0)
(0.0710712 -0.0162451 0)
(0.0746493 -0.0166715 0)
(0.0781577 -0.01697 0)
(0.0815659 -0.0171259 0)
(0.0848424 -0.0171249 0)
(0.0879545 -0.0169542 0)
(0.0908703 -0.0166028 0)
(0.0935594 -0.0160633 0)
(0.0959951 -0.0153321 0)
(0.0981562 -0.0144111 0)
(0.100028 -0.0133077 0)
(0.101604 -0.0120357 0)
(0.102886 -0.0106143 0)
(0.103881 -0.00906765 0)
(0.104606 -0.00742371 0)
(0.105078 -0.00571271 0)
(0.105319 -0.00396589 0)
(0.105348 -0.00221431 0)
(0.105184 -0.000488114 0)
(0.104838 0.00118395 0)
(0.104318 0.00277457 0)
(0.103626 0.00425778 0)
(0.102757 0.00560876 0)
(0.101701 0.00680366 0)
(0.100444 0.00781974 0)
(0.0989696 0.00863569 0)
(0.0972638 0.00923236 0)
(0.0953158 0.00959402 0)
(0.0931246 0.00971011 0)
(0.090702 0.00957745 0)
(0.0880771 0.00920249 0)
(0.0852972 0.00860273 0)
(0.0824266 0.00780682 0)
(0.079541 0.00685268 0)
(0.0767205 0.00578402 0)
(0.074041 0.00464582 0)
(0.0715665 0.00348004 0)
(0.0693447 0.00232252 0)
(0.0674049 0.00120171 0)
(0.0657597 0.000139106 0)
(0.0644072 -0.000848984 0)
(0.0633357 -0.00174929 0)
(0.0625261 -0.00254955 0)
(0.0619556 -0.00323728 0)
(0.0615985 -0.00379949 0)
(0.0614282 -0.00422357 0)
(0.061417 -0.00449915 0)
(0.0615367 -0.0046206 0)
(0.0617595 -0.00458952 0)
(0.0620583 -0.00441631 0)
(0.0624073 -0.00412042 0)
(0.0627835 -0.00372872 0)
(0.0631667 -0.00327267 0)
(0.0635398 -0.00278465 0)
(0.0638897 -0.00229463 0)
(0.0642063 -0.00182754 0)
(0.0644834 -0.00140189 0)
(0.0647176 -0.00102941 0)
(0.0649088 -0.000715595 0)
(0.065059 -0.000460843 0)
(0.0651719 -0.000261741 0)
(0.0652526 -0.000112413 0)
(0.0653063 -5.67043e-06 0)
(0.0653387 6.60693e-05 0)
(0.0653547 0.000110123 0)
(0.0653588 0.000133124 0)
(0.0653549 0.000140796 0)
(0.0653458 0.000137877 0)
(0.0653341 0.000128141 0)
(0.0653212 0.000114485 0)
(0.0653085 9.90446e-05 0)
(0.0652966 8.33269e-05 0)
(0.0652859 6.83321e-05 0)