/*--------------------------------*- C++ -*----------------------------------*\
| =========                 |                                                 |
| \\      /  F ield         | OpenFOAM: The Open Source CFD Toolbox           |
|  \\    /   O peration     | Version:  4.1                                   |
|   \\  /    A nd           | Web:      www.OpenFOAM.org                      |
|    \\/     M anipulation  |                                                 |
\*---------------------------------------------------------------------------*/
FoamFile
{
    version     2.0;
    format      ascii;
    class       volScalarField;
    location    "2970";
    object      p;
}
// * * * * * * * * * * * * * * * * * * * * * * * * * * * * * * * * * * * * * //

dimensions      [1 -1 -2 0 0 0 0];

internalField   nonuniform List<scalar> 
1275
(
0.711996
0.711996
0.711995
0.711995
0.711994
0.711994
0.711993
0.711994
0.711993
0.711993
0.711993
0.711993
0.711993
0.711993
0.711993
0.711994
0.711994
0.711995
0.711996
0.711997
0.711998
0.711999
0.712
0.712001
0.712003
0.712005
0.712007
0.712009
0.712011
0.712013
0.712015
0.712018
0.712021
0.712024
0.712027
0.71203
0.712033
0.712037
0.712041
0.712045
0.712049
0.712053
0.712057
0.712062
0.712067
0.712072
0.712077
0.712082
0.712087
0.712093
0.712099
0.712105
0.712111
0.712118
0.712124
0.712131
0.712138
0.712145
0.712153
0.712161
0.712169
0.712177
0.712186
0.712195
0.712205
0.712215
0.712225
0.712236
0.712248
0.71226
0.712273
0.712287
0.712301
0.712317
0.712335
0.712353
0.712374
0.712396
0.71242
0.712446
0.712475
0.712507
0.712541
0.712578
0.712618
0.712662
0.712709
0.712758
0.712811
0.712867
0.712925
0.712985
0.713047
0.71311
0.713173
0.713235
0.713297
0.713357
0.713414
0.713468
0.713518
0.713564
0.713605
0.713642
0.713673
0.713699
0.71372
0.713736
0.713748
0.713754
0.713757
0.713756
0.713752
0.713744
0.713735
0.713723
0.71371
0.713695
0.71368
0.713664
0.713648
0.713632
0.711995
0.711995
0.711994
0.711995
0.711994
0.711995
0.711994
0.711994
0.711994
0.711994
0.711994
0.711994
0.711994
0.711994
0.711994
0.711995
0.711995
0.711996
0.711997
0.711997
0.711998
0.712
0.712001
0.712002
0.712004
0.712005
0.712007
0.712009
0.712011
0.712014
0.712016
0.712019
0.712021
0.712024
0.712027
0.712031
0.712034
0.712038
0.712041
0.712045
0.712049
0.712054
0.712058
0.712063
0.712067
0.712072
0.712077
0.712083
0.712088
0.712094
0.7121
0.712106
0.712112
0.712118
0.712125
0.712132
0.712139
0.712146
0.712154
0.712162
0.71217
0.712178
0.712187
0.712196
0.712206
0.712216
0.712226
0.712237
0.712249
0.712261
0.712274
0.712288
0.712303
0.712319
0.712336
0.712354
0.712374
0.712396
0.71242
0.712446
0.712474
0.712505
0.712538
0.712575
0.712615
0.712658
0.712704
0.712753
0.712806
0.712861
0.712919
0.712979
0.71304
0.713103
0.713166
0.713229
0.71329
0.71335
0.713407
0.713462
0.713512
0.713558
0.7136
0.713636
0.713668
0.713694
0.713715
0.713731
0.713742
0.713749
0.713752
0.713751
0.713747
0.71374
0.71373
0.713719
0.713705
0.713691
0.713676
0.71366
0.713644
0.713629
0.711998
0.711998
0.711997
0.711997
0.711996
0.711996
0.711994
0.711995
0.711994
0.711994
0.711993
0.711994
0.711993
0.711994
0.711994
0.711994
0.711995
0.711996
0.711996
0.711997
0.711998
0.711999
0.712
0.712002
0.712003
0.712005
0.712007
0.712009
0.712011
0.712013
0.712016
0.712018
0.712021
0.712024
0.712027
0.71203
0.712034
0.712037
0.712041
0.712045
0.712049
0.712053
0.712058
0.712062
0.712067
0.712072
0.712077
0.712082
0.712088
0.712093
0.712099
0.712105
0.712112
0.712118
0.712125
0.712132
0.712139
0.712146
0.712154
0.712161
0.71217
0.712178
0.712187
0.712196
0.712205
0.712215
0.712226
0.712237
0.712248
0.71226
0.712273
0.712287
0.712301
0.712317
0.712334
0.712352
0.712372
0.712393
0.712417
0.712442
0.71247
0.7125
0.712534
0.71257
0.712609
0.712652
0.712698
0.712747
0.712799
0.712855
0.712912
0.712972
0.713034
0.713097
0.71316
0.713223
0.713284
0.713344
0.713401
0.713455
0.713506
0.713552
0.713593
0.71363
0.713661
0.713687
0.713708
0.713724
0.713735
0.713742
0.713744
0.713743
0.713739
0.713732
0.713722
0.713711
0.713698
0.713684
0.713669
0.713654
0.713638
0.713622
0.711994
0.711994
0.711993
0.711994
0.711993
0.711995
0.711993
0.711994
0.711994
0.711994
0.711994
0.711994
0.711994
0.711994
0.711994
0.711995
0.711995
0.711996
0.711996
0.711997
0.711998
0.711999
0.712001
0.712002
0.712003
0.712005
0.712007
0.712009
0.712011
0.712013
0.712016
0.712018
0.712021
0.712024
0.712027
0.71203
0.712034
0.712037
0.712041
0.712045
0.712049
0.712053
0.712058
0.712062
0.712067
0.712072
0.712077
0.712082
0.712088
0.712093
0.712099
0.712105
0.712112
0.712118
0.712125
0.712132
0.712139
0.712146
0.712154
0.712161
0.71217
0.712178
0.712187
0.712196
0.712205
0.712215
0.712225
0.712236
0.712248
0.71226
0.712272
0.712286
0.7123
0.712315
0.712332
0.71235
0.712369
0.71239
0.712412
0.712437
0.712465
0.712495
0.712527
0.712563
0.712602
0.712644
0.71269
0.712739
0.712791
0.712846
0.712904
0.712963
0.713025
0.713087
0.71315
0.713212
0.713273
0.713332
0.713389
0.713442
0.713492
0.713537
0.713578
0.713613
0.713644
0.713669
0.713689
0.713705
0.713715
0.713722
0.713724
0.713723
0.713719
0.713712
0.713702
0.713691
0.713679
0.713665
0.713651
0.713636
0.713621
0.713606
0.712
0.711999
0.711997
0.711998
0.711996
0.711996
0.711994
0.711994
0.711993
0.711993
0.711992
0.711993
0.711992
0.711993
0.711993
0.711993
0.711994
0.711994
0.711995
0.711996
0.711997
0.711998
0.711999
0.712001
0.712002
0.712004
0.712006
0.712008
0.71201
0.712012
0.712015
0.712018
0.71202
0.712023
0.712026
0.71203
0.712033
0.712037
0.71204
0.712044
0.712048
0.712053
0.712057
0.712062
0.712066
0.712071
0.712076
0.712082
0.712087
0.712093
0.712099
0.712105
0.712111
0.712117
0.712124
0.712131
0.712138
0.712145
0.712153
0.712161
0.712169
0.712177
0.712186
0.712195
0.712204
0.712214
0.712224
0.712235
0.712246
0.712258
0.71227
0.712283
0.712297
0.712313
0.712329
0.712346
0.712365
0.712386
0.712409
0.712434
0.712461
0.712491
0.712524
0.712559
0.712598
0.71264
0.712686
0.712735
0.712787
0.712841
0.712898
0.712958
0.713018
0.71308
0.713141
0.713202
0.713262
0.71332
0.713375
0.713426
0.713474
0.713517
0.713556
0.71359
0.713618
0.713642
0.713661
0.713675
0.713684
0.71369
0.713692
0.71369
0.713685
0.713678
0.713669
0.713659
0.713647
0.713634
0.71362
0.713607
0.713593
0.713579
0.711988
0.711991
0.711988
0.711992
0.71199
0.711993
0.711991
0.711993
0.711992
0.711993
0.711992
0.711993
0.711992
0.711993
0.711993
0.711993
0.711994
0.711994
0.711995
0.711996
0.711997
0.711998
0.711999
0.712
0.712002
0.712004
0.712005
0.712007
0.71201
0.712012
0.712014
0.712017
0.71202
0.712023
0.712026
0.712029
0.712032
0.712036
0.71204
0.712044
0.712048
0.712052
0.712056
0.712061
0.712066
0.712071
0.712076
0.712081
0.712087
0.712092
0.712098
0.712104
0.71211
0.712117
0.712123
0.71213
0.712137
0.712145
0.712152
0.71216
0.712168
0.712176
0.712185
0.712194
0.712203
0.712213
0.712223
0.712234
0.712245
0.712256
0.712269
0.712282
0.712296
0.712311
0.712327
0.712345
0.712364
0.712385
0.712407
0.712432
0.712459
0.712489
0.712522
0.712558
0.712597
0.712639
0.712684
0.712733
0.712784
0.712838
0.712894
0.712952
0.713011
0.713071
0.71313
0.713189
0.713246
0.713301
0.713353
0.713401
0.713446
0.713486
0.713521
0.713552
0.713578
0.713599
0.713615
0.713627
0.713635
0.71364
0.71364
0.713638
0.713634
0.713627
0.713618
0.713608
0.713597
0.713586
0.713574
0.713562
0.71355
0.713538
0.711999
0.711999
0.711995
0.711996
0.711993
0.711993
0.711991
0.711991
0.71199
0.71199
0.711989
0.71199
0.711989
0.71199
0.71199
0.711991
0.711991
0.711992
0.711993
0.711994
0.711995
0.711996
0.711998
0.711999
0.712001
0.712003
0.712004
0.712007
0.712009
0.712011
0.712014
0.712016
0.712019
0.712022
0.712025
0.712028
0.712032
0.712036
0.712039
0.712043
0.712047
0.712052
0.712056
0.712061
0.712065
0.71207
0.712075
0.712081
0.712086
0.712092
0.712098
0.712104
0.71211
0.712116
0.712123
0.71213
0.712137
0.712144
0.712151
0.712159
0.712167
0.712176
0.712184
0.712193
0.712202
0.712212
0.712222
0.712233
0.712244
0.712256
0.712268
0.712282
0.712296
0.712311
0.712328
0.712346
0.712365
0.712387
0.71241
0.712435
0.712463
0.712494
0.712527
0.712563
0.712602
0.712644
0.712689
0.712737
0.712788
0.71284
0.712895
0.712951
0.713007
0.713064
0.71312
0.713175
0.713228
0.713278
0.713326
0.71337
0.713409
0.713445
0.713476
0.713502
0.713524
0.713542
0.713555
0.713565
0.713571
0.713573
0.713573
0.71357
0.713566
0.713559
0.713552
0.713543
0.713534
0.713524
0.713514
0.713504
0.713494
0.713485
0.711968
0.711982
0.711976
0.711987
0.711984
0.711989
0.711987
0.71199
0.711989
0.711991
0.71199
0.711991
0.71199
0.711991
0.711991
0.711992
0.711992
0.711993
0.711993
0.711994
0.711995
0.711997
0.711998
0.711999
0.712001
0.712003
0.712004
0.712006
0.712009
0.712011
0.712013
0.712016
0.712019
0.712022
0.712025
0.712028
0.712032
0.712035
0.712039
0.712043
0.712047
0.712051
0.712056
0.71206
0.712065
0.71207
0.712075
0.712081
0.712086
0.712092
0.712097
0.712103
0.71211
0.712116
0.712123
0.71213
0.712137
0.712144
0.712152
0.712159
0.712168
0.712176
0.712185
0.712194
0.712203
0.712213
0.712224
0.712235
0.712246
0.712259
0.712271
0.712285
0.7123
0.712316
0.712333
0.712352
0.712372
0.712395
0.712419
0.712445
0.712474
0.712505
0.712538
0.712575
0.712614
0.712656
0.7127
0.712747
0.712796
0.712847
0.712899
0.712951
0.713004
0.713056
0.713108
0.713157
0.713205
0.713249
0.71329
0.713328
0.713362
0.713391
0.713417
0.713438
0.713456
0.713469
0.713479
0.713486
0.71349
0.713491
0.71349
0.713487
0.713483
0.713478
0.713471
0.713465
0.713457
0.71345
0.713443
0.713436
0.713429
0.713423
0.711992
0.711999
0.711991
0.711993
0.711988
0.711989
0.711987
0.711988
0.711987
0.711988
0.711987
0.711988
0.711988
0.711989
0.711989
0.71199
0.71199
0.711991
0.711992
0.711993
0.711995
0.711996
0.711997
0.711999
0.712
0.712002
0.712004
0.712006
0.712009
0.712011
0.712013
0.712016
0.712019
0.712022
0.712025
0.712028
0.712032
0.712036
0.712039
0.712043
0.712047
0.712052
0.712056
0.712061
0.712066
0.712071
0.712076
0.712081
0.712087
0.712092
0.712098
0.712104
0.712111
0.712117
0.712124
0.712131
0.712139
0.712146
0.712154
0.712162
0.712171
0.712179
0.712188
0.712198
0.712208
0.712219
0.71223
0.712241
0.712254
0.712267
0.712281
0.712296
0.712312
0.712329
0.712347
0.712368
0.712389
0.712413
0.712438
0.712465
0.712495
0.712527
0.712561
0.712598
0.712637
0.712678
0.712722
0.712767
0.712813
0.712861
0.712909
0.712957
0.713004
0.713051
0.713096
0.713139
0.713179
0.713216
0.71325
0.713281
0.713308
0.713331
0.713351
0.713367
0.713379
0.713389
0.713396
0.7134
0.713402
0.713402
0.713401
0.713399
0.713395
0.713392
0.713387
0.713383
0.713378
0.713374
0.713369
0.713366
0.713362
0.713359
0.711889
0.71197
0.711965
0.711989
0.711984
0.711993
0.71199
0.711993
0.711991
0.711993
0.711992
0.711993
0.711992
0.711993
0.711993
0.711993
0.711993
0.711994
0.711995
0.711996
0.711996
0.711998
0.711999
0.712
0.712002
0.712003
0.712005
0.712007
0.712009
0.712012
0.712014
0.712017
0.71202
0.712023
0.712026
0.712029
0.712033
0.712037
0.71204
0.712044
0.712048
0.712053
0.712057
0.712063
0.712067
0.712073
0.712077
0.712083
0.712089
0.712095
0.712101
0.712108
0.712114
0.712121
0.712128
0.712136
0.712144
0.712152
0.71216
0.712169
0.712178
0.712188
0.712198
0.712208
0.712219
0.712231
0.712243
0.712256
0.71227
0.712284
0.7123
0.712316
0.712334
0.712353
0.712373
0.712395
0.712418
0.712443
0.71247
0.712499
0.71253
0.712562
0.712597
0.712633
0.712671
0.712711
0.712752
0.712794
0.712837
0.71288
0.712923
0.712965
0.713006
0.713046
0.713083
0.713118
0.713151
0.71318
0.713206
0.71323
0.71325
0.713267
0.713281
0.713292
0.7133
0.713307
0.713311
0.713314
0.713315
0.713316
0.713315
0.713314
0.713312
0.713311
0.713309
0.713307
0.713305
0.713304
0.713303
0.713302
0.713302
0.713302
0.712247
0.712205
0.712198
0.712157
0.712144
0.712101
0.712086
0.712034
0.712025
0.711952
0.711969
0.711996
0.711989
0.711995
0.711989
0.711992
0.711989
0.711991
0.711989
0.71199
0.711989
0.71199
0.71199
0.711991
0.711991
0.711992
0.711992
0.711993
0.711994
0.711995
0.711996
0.711998
0.711999
0.712001
0.712002
0.712004
0.712006
0.712008
0.71201
0.712013
0.712016
0.712018
0.712021
0.712024
0.712028
0.712031
0.712035
0.712039
0.712043
0.712047
0.712051
0.712056
0.712061
0.712066
0.712071
)
;

boundaryField
{
    inlet
    {
        type            zeroGradient;
    }
    outlet
    {
        type            fixedValue;
        value           nonuniform 0();
    }
    walls
    {
        type            zeroGradient;
    }
    symwall
    {
        type            empty;
    }
    procBoundary0to1
    {
        type            processor;
        value           nonuniform List<scalar> 10(0.713616 0.713613 0.713607 0.713592 0.713566 0.713527 0.713476 0.713417 0.713357 0.713302);
    }
    procBoundary0to2
    {
        type            processor;
        value           nonuniform List<scalar> 
133
(
0.712077
0.712082
0.712088
0.712094
0.712101
0.712108
0.712115
0.712122
0.71213
0.712138
0.712146
0.712155
0.712164
0.712173
0.712183
0.712194
0.712205
0.712216
0.712228
0.712241
0.712254
0.712268
0.712283
0.712299
0.712315
0.712333
0.712352
0.712372
0.712393
0.712415
0.712439
0.712464
0.712491
0.712519
0.712549
0.71258
0.712613
0.712647
0.712682
0.712718
0.712755
0.712793
0.712831
0.712869
0.712906
0.712943
0.712978
0.713012
0.713043
0.713073
0.7131
0.713125
0.713147
0.713166
0.713182
0.713196
0.713208
0.713217
0.713225
0.713231
0.713235
0.713238
0.713241
0.713242
0.713244
0.713244
0.713245
0.713245
0.713246
0.713247
0.713247
0.713248
0.71325
0.713251
0.713253
0.713256
0.713258
0.712256
0.712208
0.712202
0.712159
0.712146
0.712102
0.712087
0.712036
0.71202
0.711952
0.711928
0.711979
0.711972
0.711995
0.711989
0.711998
0.711994
0.711998
0.711995
0.711997
0.711995
0.711996
0.711995
0.711995
0.711995
0.711995
0.711995
0.711996
0.711997
0.711998
0.711998
0.712
0.712001
0.712002
0.712004
0.712006
0.712008
0.71201
0.712012
0.712015
0.712018
0.712021
0.712024
0.712027
0.712031
0.712034
0.712038
0.712043
0.712047
0.712052
0.712056
0.712062
0.712067
0.712073
0.712077
0.712078
)
;
    }
}


// ************************************************************************* //
