/*--------------------------------*- C++ -*----------------------------------*\
| =========                 |                                                 |
| \\      /  F ield         | OpenFOAM: The Open Source CFD Toolbox           |
|  \\    /   O peration     | Version:  4.1                                   |
|   \\  /    A nd           | Web:      www.OpenFOAM.org                      |
|    \\/     M anipulation  |                                                 |
\*---------------------------------------------------------------------------*/
FoamFile
{
    version     2.0;
    format      ascii;
    class       volVectorField;
    location    "262";
    object      U;
}
// * * * * * * * * * * * * * * * * * * * * * * * * * * * * * * * * * * * * * //

dimensions      [0 1 -1 0 0 0 0];

internalField   nonuniform List<vector> 
3264
(
(-2.30599e-06 -4.30115e-07 0)
(-0.000127442 2.95733e-05 0)
(-0.000375694 4.72038e-05 0)
(-0.000655015 4.9202e-05 0)
(-0.000949557 5.05242e-05 0)
(-0.00124911 4.93542e-05 0)
(-0.00154828 5.00295e-05 0)
(-0.00184911 5.00704e-05 0)
(-0.00214782 5.06916e-05 0)
(-0.00244641 5.1031e-05 0)
(-0.00274385 5.16023e-05 0)
(-0.00304221 5.22781e-05 0)
(-0.00334255 5.33603e-05 0)
(-0.00364737 5.49647e-05 0)
(-0.00395889 5.73278e-05 0)
(-0.00427983 6.06266e-05 0)
(-0.00461275 6.50536e-05 0)
(-0.00496009 7.07556e-05 0)
(-0.00532384 7.78385e-05 0)
(-0.00570541 8.63336e-05 0)
(-0.00610532 9.61806e-05 0)
(-0.00652307 0.000107205 0)
(-0.00695691 0.000119103 0)
(-0.00740373 0.000131442 0)
(-0.00785895 0.000143667 0)
(-0.00831655 0.000155126 0)
(-0.00876917 0.000165114 0)
(-0.00920825 0.000172914 0)
(-0.0096243 0.000177851 0)
(-0.0100072 0.000179339 0)
(-0.0103464 0.000176919 0)
(-0.0106317 0.000170281 0)
(-0.010853 0.000159282 0)
(-0.011001 0.000143943 0)
(-0.0110673 0.000124437 0)
(-0.0110449 0.000101075 0)
(-0.0109279 7.42847e-05 0)
(-0.0107121 4.45902e-05 0)
(-0.0103945 1.25889e-05 0)
(-0.00997418 -2.1067e-05 0)
(-0.00945143 -5.56881e-05 0)
(-0.00882832 -9.05637e-05 0)
(-0.00810844 -0.000124976 0)
(-0.0072969 -0.000158212 0)
(-0.00640024 -0.000189577 0)
(-0.00542639 -0.000218406 0)
(-0.00438456 -0.000244073 0)
(-0.00328511 -0.000266007 0)
(-0.0021395 -0.000283706 0)
(-0.000960052 -0.000296746 0)
(0.00024012 -0.000304802 0)
(0.00144736 -0.000307654 0)
(0.00264764 -0.000305209 0)
(0.00382683 -0.000297506 0)
(0.0049709 -0.000284723 0)
(0.00606621 -0.000267185 0)
(0.00709981 -0.000245359 0)
(0.00805966 -0.000219849 0)
(0.00893496 -0.000191381 0)
(0.00971635 -0.000160782 0)
(0.0103962 -0.000128961 0)
(0.0109686 -9.68708e-05 0)
(0.0114299 -6.54822e-05 0)
(0.0117785 -3.57408e-05 0)
(0.0120148 -8.5282e-06 0)
(0.0121416 1.53823e-05 0)
(0.0121637 3.53726e-05 0)
(0.0120879 5.10275e-05 0)
(0.0119228 6.21798e-05 0)
(0.0116782 6.89452e-05 0)
(0.0113656 7.1737e-05 0)
(0.0109968 7.12476e-05 0)
(0.0105841 6.83852e-05 0)
(0.0101398 6.41611e-05 0)
(0.00967584 5.95366e-05 0)
(0.00920318 5.52577e-05 0)
(0.0087319 5.17246e-05 0)
(0.00827072 4.89442e-05 0)
(0.00782686 4.65953e-05 0)
(0.00740581 4.41916e-05 0)
(0.00701132 4.12837e-05 0)
(0.00664547 3.76248e-05 0)
(0.006309 3.32492e-05 0)
(0.00600169 2.84521e-05 0)
(0.00572271 2.36967e-05 0)
(0.00547077 1.94843e-05 0)
(0.00524422 1.62254e-05 0)
(0.00504099 1.4146e-05 0)
(0.00485869 1.32575e-05 0)
(0.00469467 1.33948e-05 0)
(0.00454626 1.43015e-05 0)
(0.0044109 1.57199e-05 0)
(0.00428633 1.74497e-05 0)
(0.00417072 1.93598e-05 0)
(0.00406275 2.13649e-05 0)
(0.00396173 2.33884e-05 0)
(0.00386762 2.53322e-05 0)
(0.00378105 2.70626e-05 0)
(0.00370327 2.84138e-05 0)
(0.00363611 2.92025e-05 0)
(0.00358181 2.9248e-05 0)
(0.00354292 2.83913e-05 0)
(0.00352214 2.65114e-05 0)
(0.0035222 2.35363e-05 0)
(0.00354568 1.94485e-05 0)
(0.00359488 1.42862e-05 0)
(0.0036717 8.14081e-06 0)
(0.00377755 1.15075e-06 0)
(0.00391323 -6.50556e-06 0)
(0.0040789 -1.4619e-05 0)
(0.00427405 -2.29591e-05 0)
(0.00449743 -3.12843e-05 0)
(0.00474714 -3.93521e-05 0)
(0.00502059 -4.69286e-05 0)
(0.00531462 -5.37978e-05 0)
(0.00562551 -5.97708e-05 0)
(0.00594911 -6.46927e-05 0)
(0.00628095 -6.84489e-05 0)
(0.00661636 -7.09695e-05 0)
(0.00695059 -7.22311e-05 0)
(0.00727898 -7.22564e-05 0)
(0.00759708 -7.11111e-05 0)
(0.0079008 -6.88982e-05 0)
(0.00818652 -6.57504e-05 0)
(0.00845121 -6.18214e-05 0)
(0.00869253 -5.72759e-05 0)
(0.00890881 -5.22813e-05 0)
(0.00909915 -4.69997e-05 0)
(0.00926332 -4.15819e-05 0)
(0.00940178 -3.6164e-05 0)
(0.00951558 -3.08646e-05 0)
(0.00960625 -2.57846e-05 0)
(0.0096757 -2.10066e-05 0)
(0.00972614 -1.6596e-05 0)
(0.00975995 -1.26014e-05 0)
(0.00977957 -9.05569e-06 0)
(0.00978746 -5.9772e-06 0)
(0.009786 -3.37148e-06 0)
(0.00977742 -1.23299e-06 0)
(0.00976382 4.53092e-07 0)
(0.00974708 1.70921e-06 0)
(0.00972885 2.56411e-06 0)
(0.00971055 3.05197e-06 0)
(0.00969338 3.21169e-06 0)
(0.00967828 3.08636e-06 0)
(0.00966596 2.72264e-06 0)
(0.00965689 2.16979e-06 0)
(0.00965135 1.4785e-06 0)
(0.00964941 6.99317e-07 0)
(0.00965096 -1.19001e-07 0)
(0.00965577 -9.3124e-07 0)
(0.00966347 -1.69732e-06 0)
(0.0096736 -2.38363e-06 0)
(0.00968567 -2.96396e-06 0)
(0.00969913 -3.42002e-06 0)
(0.00971344 -3.74153e-06 0)
(0.00972809 -3.92584e-06 0)
(0.0097426 -3.97719e-06 0)
(0.00975655 -3.90577e-06 0)
(0.00976961 -3.72642e-06 0)
(0.0097815 -3.45737e-06 0)
(0.00979202 -3.11885e-06 0)
(0.00980106 -2.73185e-06 0)
(0.00980857 -2.31696e-06 0)
(0.00981457 -1.89334e-06 0)
(0.00981912 -1.478e-06 0)
(0.00982235 -1.08526e-06 0)
(0.00982438 -7.26358e-07 0)
(0.00982538 -4.09417e-07 0)
(0.00982553 -1.39474e-07 0)
(0.00982499 8.12727e-08 0)
(0.00982393 2.53126e-07 0)
(0.00982252 3.7846e-07 0)
(0.00982088 4.61258e-07 0)
(0.00981914 5.06642e-07 0)
(0.00981739 5.20416e-07 0)
(0.0098157 5.08666e-07 0)
(0.00981415 4.77407e-07 0)
(0.00981276 4.32305e-07 0)
(0.00981155 3.78472e-07 0)
(0.00981055 3.20325e-07 0)
(0.00980973 2.61516e-07 0)
(0.0098091 2.04911e-07 0)
(0.00980864 1.52622e-07 0)
(0.00980832 1.06065e-07 0)
(0.00980813 6.60461e-08 0)
(0.00980804 3.28621e-08 0)
(0.00980803 6.40219e-09 0)
(0.00980808 -1.37496e-08 0)
(0.00980818 -2.82198e-08 0)
(0.0098083 -3.77642e-08 0)
(0.00980844 -4.31911e-08 0)
(0.00980858 -4.53255e-08 0)
(0.00980872 -4.49036e-08 0)
(0.00980885 -4.27188e-08 0)
(0.00980898 -3.91327e-08 0)
(0.00980908 -3.51308e-08 0)
(0.00980918 -3.03767e-08 0)
(0.00980925 -2.44824e-08 0)
(0.00980934 -2.66888e-08 0)
(-8.14567e-05 0.000130015 0)
(-0.000569119 0.000365418 0)
(-0.00128228 0.00050286 0)
(-0.00204484 0.000548222 0)
(-0.00281721 0.000571399 0)
(-0.00358411 0.00057568 0)
(-0.00433287 0.000579059 0)
(-0.00506806 0.000577337 0)
(-0.00578441 0.000575577 0)
(-0.00648663 0.000573359 0)
(-0.00717476 0.000573036 0)
(-0.00785316 0.000575302 0)
(-0.00852442 0.000581293 0)
(-0.00919235 0.000591511 0)
(-0.00985968 0.000606293 0)
(-0.0105288 0.000625556 0)
(-0.0112009 0.00064887 0)
(-0.0118758 0.000675395 0)
(-0.0125517 0.000703887 0)
(-0.0132249 0.000732707 0)
(-0.0138897 0.000759866 0)
(-0.0145388 0.000783093 0)
(-0.0151628 0.000799942 0)
(-0.0157508 0.000807915 0)
(-0.0162907 0.000804601 0)
(-0.0167695 0.000787814 0)
(-0.0171737 0.000755724 0)
(-0.0174901 0.000706958 0)
(-0.0177056 0.000640665 0)
(-0.0178083 0.000556555 0)
(-0.0177869 0.000454886 0)
(-0.0176321 0.00033644 0)
(-0.0173358 0.000202462 0)
(-0.0168915 5.459e-05 0)
(-0.0162948 -0.000105215 0)
(-0.0155428 -0.000274745 0)
(-0.0146345 -0.000451609 0)
(-0.0135706 -0.000633293 0)
(-0.0123538 -0.000817206 0)
(-0.010988 -0.00100073 0)
(-0.0094792 -0.00118123 0)
(-0.00783459 -0.00135613 0)
(-0.00606306 -0.00152287 0)
(-0.00417489 -0.001679 0)
(-0.00218171 -0.00182213 0)
(-9.64506e-05 -0.00195002 0)
(0.00206673 -0.00206057 0)
(0.00429257 -0.00215183 0)
(0.00656479 -0.0022221 0)
(0.0088662 -0.0022699 0)
(0.0111789 -0.00229404 0)
(0.0134844 -0.00229366 0)
(0.0157638 -0.00226828 0)
(0.0179981 -0.00221781 0)
(0.0201682 -0.00214262 0)
(0.0222556 -0.0020435 0)
(0.0242422 -0.00192174 0)
(0.0261108 -0.00177908 0)
(0.0278451 -0.00161768 0)
(0.0294305 -0.00144012 0)
(0.0308536 -0.00124931 0)
(0.0321028 -0.00104847 0)
(0.0331685 -0.000841028 0)
(0.0340429 -0.000630571 0)
(0.0347202 -0.000420773 0)
(0.0351971 -0.000215318 0)
(0.0354722 -1.78361e-05 0)
(0.0355464 0.000168176 0)
(0.0354232 0.000339431 0)
(0.0351086 0.000492939 0)
(0.0346112 0.000626103 0)
(0.0339425 0.000736828 0)
(0.033117 0.000823633 0)
(0.032152 0.000885769 0)
(0.0310682 0.000923336 0)
(0.0298884 0.000937384 0)
(0.0286379 0.000929993 0)
(0.0273428 0.000904256 0)
(0.0260297 0.000864122 0)
(0.0247236 0.000814024 0)
(0.0234475 0.000758328 0)
(0.0222208 0.000700716 0)
(0.0210593 0.000643746 0)
(0.0199744 0.000588771 0)
(0.0189734 0.000536249 0)
(0.0180594 0.000486257 0)
(0.0172322 0.000438942 0)
(0.016489 0.000394704 0)
(0.015825 0.000354124 0)
(0.0152346 0.000317754 0)
(0.0147119 0.000285917 0)
(0.0142511 0.000258585 0)
(0.0138471 0.000235333 0)
(0.0134952 0.000215367 0)
(0.0131918 0.000197597 0)
(0.0129341 0.000180749 0)
(0.0127208 0.000163491 0)
(0.0125513 0.00014456 0)
(0.0124262 0.000122856 0)
(0.012347 9.75079e-05 0)
(0.0123157 6.79052e-05 0)
(0.0123346 3.37117e-05 0)
(0.0124062 -5.13796e-06 0)
(0.0125327 -4.84502e-05 0)
(0.012716 -9.57918e-05 0)
(0.0129574 -0.000146514 0)
(0.0132574 -0.000199783 0)
(0.0136158 -0.000254614 0)
(0.0140314 -0.000309904 0)
(0.0145022 -0.000364476 0)
(0.015025 -0.000417113 0)
(0.0155958 -0.000466595 0)
(0.0162097 -0.000511742 0)
(0.016861 -0.000551445 0)
(0.017543 -0.000584705 0)
(0.0182486 -0.000610663 0)
(0.01897 -0.000628639 0)
(0.019699 -0.000638153 0)
(0.0204272 -0.000638955 0)
(0.0211461 -0.000631043 0)
(0.0218473 -0.00061467 0)
(0.0225228 -0.00059035 0)
(0.023165 -0.00055884 0)
(0.0237671 -0.000521117 0)
(0.0243234 -0.000478345 0)
(0.024829 -0.000431815 0)
(0.0252804 -0.000382895 0)
(0.0256754 -0.00033296 0)
(0.0260133 -0.000283331 0)
(0.0262946 -0.000235211 0)
(0.0265212 -0.000189646 0)
(0.0266963 -0.000147484 0)
(0.026824 -0.000109361 0)
(0.0269091 -7.57004e-05 0)
(0.0269572 -4.67289e-05 0)
(0.0269742 -2.24955e-05 0)
(0.0269659 -2.90199e-06 0)
(0.0269381 1.22675e-05 0)
(0.0268964 2.33188e-05 0)
(0.0268459 3.06237e-05 0)
(0.0267909 3.45993e-05 0)
(0.0267353 3.56917e-05 0)
(0.0266824 3.43623e-05 0)
(0.0266346 3.1076e-05 0)
(0.0265938 2.62909e-05 0)
(0.0265612 2.04477e-05 0)
(0.0265376 1.39616e-05 0)
(0.0265231 7.21281e-06 0)
(0.0265174 5.39886e-07 0)
(0.02652 -5.76702e-06 0)
(0.02653 -1.14705e-05 0)
(0.0265462 -1.63888e-05 0)
(0.0265675 -2.03961e-05 0)
(0.0265927 -2.34215e-05 0)
(0.0266203 -2.54454e-05 0)
(0.0266493 -2.64943e-05 0)
(0.0266785 -2.66338e-05 0)
(0.026707 -2.59613e-05 0)
(0.0267339 -2.45973e-05 0)
(0.0267586 -2.26769e-05 0)
(0.0267807 -2.03417e-05 0)
(0.0267998 -1.77325e-05 0)
(0.0268158 -1.49824e-05 0)
(0.0268287 -1.22121e-05 0)
(0.0268387 -9.52576e-06 0)
(0.0268459 -7.00843e-06 0)
(0.0268506 -4.72522e-06 0)
(0.0268532 -2.7211e-06 0)
(0.026854 -1.02207e-06 0)
(0.0268533 3.63037e-07 0)
(0.0268516 1.44008e-06 0)
(0.026849 2.22687e-06 0)
(0.026846 2.75025e-06 0)
(0.0268426 3.0432e-06 0)
(0.0268393 3.14223e-06 0)
(0.026836 3.08495e-06 0)
(0.026833 2.90817e-06 0)
(0.0268302 2.64626e-06 0)
(0.0268278 2.33006e-06 0)
(0.0268258 1.98614e-06 0)
(0.0268242 1.63642e-06 0)
(0.0268229 1.29816e-06 0)
(0.0268219 9.84089e-07 0)
(0.0268212 7.02841e-07 0)
(0.0268208 4.59452e-07 0)
(0.0268206 2.55941e-07 0)
(0.0268205 9.19187e-08 0)
(0.0268206 -3.48218e-08 0)
(0.0268207 -1.27756e-07 0)
(0.0268209 -1.91146e-07 0)
(0.0268212 -2.29632e-07 0)
(0.0268214 -2.47898e-07 0)
(0.0268217 -2.50453e-07 0)
(0.0268219 -2.41333e-07 0)
(0.0268221 -2.24398e-07 0)
(0.0268223 -2.01976e-07 0)
(0.0268225 -1.78376e-07 0)
(0.0268227 -1.51699e-07 0)
(0.0268228 -1.26861e-07 0)
(0.0268229 -1.10024e-07 0)
(-0.000177662 0.000631162 0)
(-0.00103366 0.00122693 0)
(-0.00214918 0.00150567 0)
(-0.00328268 0.00155421 0)
(-0.00437446 0.00155971 0)
(-0.00541535 0.00152856 0)
(-0.00638981 0.0014995 0)
(-0.00730982 0.00146523 0)
(-0.00817283 0.00143463 0)
(-0.00898811 0.00140683 0)
(-0.009758 0.00138493 0)
(-0.0104884 0.00136936 0)
(-0.0111819 0.00136084 0)
(-0.0118415 0.001359 0)
(-0.012468 0.00136298 0)
(-0.0130614 0.00137117 0)
(-0.0136195 0.00138135 0)
(-0.014139 0.00139072 0)
(-0.0146148 0.00139602 0)
(-0.0150401 0.00139365 0)
(-0.0154069 0.00137985 0)
(-0.0157062 0.00135086 0)
(-0.0159279 0.00130317 0)
(-0.0160619 0.00123362 0)
(-0.0160975 0.00113962 0)
(-0.0160247 0.00101926 0)
(-0.0158338 0.000871342 0)
(-0.0155161 0.000695459 0)
(-0.0150639 0.000491968 0)
(-0.0144707 0.000261948 0)
(-0.0137312 7.12966e-06 0)
(-0.0128416 -0.000270192 0)
(-0.0117993 -0.000567246 0)
(-0.0106034 -0.000880884 0)
(-0.00925388 -0.00120766 0)
(-0.00775243 -0.00154392 0)
(-0.00610185 -0.00188584 0)
(-0.00430624 -0.0022295 0)
(-0.00237095 -0.00257094 0)
(-0.000302561 -0.00290615 0)
(0.00189114 -0.00323114 0)
(0.00420118 -0.00354198 0)
(0.00661741 -0.00383476 0)
(0.00912854 -0.00410569 0)
(0.0117222 -0.00435109 0)
(0.0143848 -0.00456743 0)
(0.0171019 -0.00475137 0)
(0.019858 -0.00489982 0)
(0.0226369 -0.00500999 0)
(0.0254213 -0.00507947 0)
(0.0281937 -0.00510626 0)
(0.0309358 -0.00508889 0)
(0.0336294 -0.00502647 0)
(0.0362561 -0.00491876 0)
(0.0387978 -0.00476623 0)
(0.0412369 -0.00457005 0)
(0.0435566 -0.00433216 0)
(0.0457411 -0.00405521 0)
(0.0477759 -0.00374251 0)
(0.0496479 -0.00339799 0)
(0.0513453 -0.00302606 0)
(0.052858 -0.00263155 0)
(0.0541777 -0.00221955 0)
(0.0552973 -0.00179533 0)
(0.0562114 -0.00136422 0)
(0.0569158 -0.000931565 0)
(0.0574076 -0.000502635 0)
(0.0576851 -8.26048e-05 0)
(0.0577477 0.000323462 0)
(0.0575957 0.000710609 0)
(0.0572309 0.00107398 0)
(0.0566561 0.00140881 0)
(0.0558757 0.00171043 0)
(0.0548962 0.0019743 0)
(0.0537262 0.00219614 0)
(0.0523773 0.00237213 0)
(0.0508644 0.00249921 0)
(0.0492062 0.00257553 0)
(0.0474256 0.00260087 0)
(0.0455498 0.00257706 0)
(0.0436097 0.00250818 0)
(0.0416391 0.00240044 0)
(0.0396729 0.00226178 0)
(0.0377455 0.00210127 0)
(0.0358883 0.00192827 0)
(0.0341279 0.00175151 0)
(0.0324849 0.0015783 0)
(0.0309737 0.00141393 0)
(0.0296019 0.00126145 0)
(0.0283718 0.00112196 0)
(0.0272812 0.000995145 0)
(0.0263247 0.000879838 0)
(0.0254948 0.000774487 0)
(0.0247833 0.000677336 0)
(0.0241822 0.000586469 0)
(0.0236843 0.00049982 0)
(0.0232833 0.00041522 0)
(0.0229742 0.000330525 0)
(0.0227531 0.000243764 0)
(0.0226173 0.00015329 0)
(0.0225645 5.7895e-05 0)
(0.0225931 -4.31275e-05 0)
(0.022702 -0.000149957 0)
(0.0228898 -0.000262264 0)
(0.0231552 -0.000379248 0)
(0.0234966 -0.000499707 0)
(0.0239118 -0.000622097 0)
(0.0243981 -0.000744618 0)
(0.0249522 -0.000865279 0)
(0.0255699 -0.000981976 0)
(0.0262464 -0.00109255 0)
(0.0269762 -0.00119486 0)
(0.0277529 -0.00128684 0)
(0.0285698 -0.00136654 0)
(0.0294191 -0.00143221 0)
(0.0302928 -0.00148231 0)
(0.0311825 -0.00151561 0)
(0.0320793 -0.00153121 0)
(0.0329741 -0.00152859 0)
(0.0338579 -0.00150764 0)
(0.0347218 -0.00146872 0)
(0.0355571 -0.00141262 0)
(0.0363555 -0.00134061 0)
(0.0371095 -0.00125442 0)
(0.0378123 -0.00115616 0)
(0.0384581 -0.00104829 0)
(0.0390423 -0.000933535 0)
(0.0395612 -0.00081479 0)
(0.0400129 -0.000695001 0)
(0.0403966 -0.000577053 0)
(0.0407129 -0.000463647 0)
(0.040964 -0.000357192 0)
(0.0411532 -0.000259713 0)
(0.0412851 -0.000172775 0)
(0.0413655 -9.74472e-05 0)
(0.0414007 -3.42959e-05 0)
(0.0413978 1.65949e-05 0)
(0.0413641 5.55709e-05 0)
(0.041307 8.33384e-05 0)
(0.0412335 0.000100883 0)
(0.0411504 0.00010939 0)
(0.0410634 0.000110164 0)
(0.0409777 0.000104566 0)
(0.0408976 9.39549e-05 0)
(0.0408262 7.96442e-05 0)
(0.0407659 6.28681e-05 0)
(0.0407181 4.4755e-05 0)
(0.0406835 2.63081e-05 0)
(0.0406621 8.39095e-06 0)
(0.0406532 -8.28124e-06 0)
(0.0406558 -2.31469e-05 0)
(0.0406684 -3.57978e-05 0)
(0.0406893 -4.59748e-05 0)
(0.0407167 -5.35588e-05 0)
(0.0407489 -5.85576e-05 0)
(0.040784 -6.10891e-05 0)
(0.0408205 -6.13622e-05 0)
(0.0408568 -5.96553e-05 0)
(0.0408917 -5.62948e-05 0)
(0.0409241 -5.16335e-05 0)
(0.0409535 -4.60309e-05 0)
(0.0409791 -3.98355e-05 0)
(0.0410008 -3.33698e-05 0)
(0.0410184 -2.69196e-05 0)
(0.0410321 -2.07255e-05 0)
(0.0410422 -1.49791e-05 0)
(0.0410489 -9.8215e-06 0)
(0.0410526 -5.34488e-06 0)
(0.041054 -1.59653e-06 0)
(0.0410533 1.41577e-06 0)
(0.0410512 3.71721e-06 0)
(0.041048 5.35879e-06 0)
(0.0410441 6.41021e-06 0)
(0.0410398 6.95305e-06 0)
(0.0410354 7.07469e-06 0)
(0.0410312 6.86302e-06 0)
(0.0410272 6.40219e-06 0)
(0.0410237 5.76941e-06 0)
(0.0410206 5.03271e-06 0)
(0.041018 4.24963e-06 0)
(0.0410159 3.46678e-06 0)
(0.0410143 2.71998e-06 0)
(0.041013 2.03493e-06 0)
(0.0410122 1.42832e-06 0)
(0.0410117 9.09051e-07 0)
(0.0410114 4.79662e-07 0)
(0.0410113 1.37718e-07 0)
(0.0410114 -1.22867e-07 0)
(0.0410116 -3.10629e-07 0)
(0.0410119 -4.35516e-07 0)
(0.0410122 -5.08034e-07 0)
(0.0410125 -5.38575e-07 0)
(0.0410129 -5.36919e-07 0)
(0.0410132 -5.11883e-07 0)
(0.0410134 -4.71235e-07 0)
(0.0410137 -4.21014e-07 0)
(0.0410139 -3.67811e-07 0)
(0.0410141 -3.11716e-07 0)
(0.0410142 -2.62648e-07 0)
(0.0410143 -2.16191e-07 0)
(-0.000307209 0.00124451 0)
(-0.00152239 0.00228329 0)
(-0.00288036 0.00269467 0)
(-0.00415405 0.00271819 0)
(-0.00526234 0.00266393 0)
(-0.00625493 0.00255417 0)
(-0.00711708 0.00244682 0)
(-0.00788183 0.00233664 0)
(-0.00854975 0.0022356 0)
(-0.00913657 0.00214286 0)
(-0.00964616 0.00206089 0)
(-0.0100857 0.00198905 0)
(-0.0104578 0.00192663 0)
(-0.0107647 0.00187184 0)
(-0.0110064 0.00182233 0)
(-0.0111819 0.00177506 0)
(-0.0112886 0.00172647 0)
(-0.0113228 0.00167254 0)
(-0.0112799 0.001609 0)
(-0.0111543 0.00153142 0)
(-0.0109401 0.00143545 0)
(-0.0106308 0.00131702 0)
(-0.01022 0.0011725 0)
(-0.00970132 0.000998874 0)
(-0.00906879 0.000793852 0)
(-0.0083169 0.000555978 0)
(-0.00744084 0.00028465 0)
(-0.00643653 -1.98699e-05 0)
(-0.00530076 -0.000356497 0)
(-0.00403114 -0.000723384 0)
(-0.00262624 -0.001118 0)
(-0.00108549 -0.00153725 0)
(0.000590724 -0.00197751 0)
(0.00240113 -0.00243477 0)
(0.00434353 -0.00290469 0)
(0.00641476 -0.0033827 0)
(0.00861073 -0.00386398 0)
(0.0109264 -0.00434361 0)
(0.0133556 -0.00481654 0)
(0.0158912 -0.00527763 0)
(0.0185251 -0.00572172 0)
(0.0212479 -0.00614365 0)
(0.0240493 -0.00653825 0)
(0.0269178 -0.00690047 0)
(0.0298408 -0.00722534 0)
(0.0328046 -0.00750805 0)
(0.0357947 -0.00774402 0)
(0.0387954 -0.007929 0)
(0.0417904 -0.0080591 0)
(0.0447626 -0.00813094 0)
(0.0476945 -0.00814175 0)
(0.0505684 -0.00808949 0)
(0.0533664 -0.00797296 0)
(0.0560712 -0.00779191 0)
(0.058666 -0.00754711 0)
(0.061135 -0.0072404 0)
(0.0634637 -0.00687466 0)
(0.0656392 -0.00645383 0)
(0.0676502 -0.00598273 0)
(0.0694875 -0.00546703 0)
(0.0711437 -0.00491298 0)
(0.0726131 -0.00432728 0)
(0.073892 -0.00371686 0)
(0.0749781 -0.00308872 0)
(0.0758705 -0.00244977 0)
(0.0765692 -0.00180669 0)
(0.0770749 -0.00116585 0)
(0.0773889 -0.000533325 0)
(0.0775128 8.51762e-05 0)
(0.0774481 0.000684223 0)
(0.0771964 0.00125862 0)
(0.0767592 0.00180334 0)
(0.0761377 0.00231343 0)
(0.0753335 0.00278396 0)
(0.0743483 0.00320996 0)
(0.0731841 0.00358646 0)
(0.071844 0.00390854 0)
(0.0703326 0.00417151 0)
(0.0686565 0.00437111 0)
(0.0668253 0.00450388 0)
(0.0648521 0.00456754 0)
(0.0627547 0.00456138 0)
(0.0605557 0.00448677 0)
(0.058283 0.00434758 0)
(0.0559688 0.00415045 0)
(0.0536492 0.00390477 0)
(0.0513616 0.00362218 0)
(0.0491435 0.0033156 0)
(0.0470292 0.00299802 0)
(0.0450483 0.00268114 0)
(0.0432236 0.00237432 0)
(0.0415708 0.00208395 0)
(0.0400982 0.00181334 0)
(0.038808 0.00156294 0)
(0.037697 0.00133106 0)
(0.0367587 0.00111457 0)
(0.0359843 0.000909663 0)
(0.0353639 0.00071249 0)
(0.0348875 0.000519564 0)
(0.0345457 0.000328026 0)
(0.0343297 0.00013576 0)
(0.0342316 -5.85745e-05 0)
(0.0342443 -0.000255559 0)
(0.0343614 -0.000455069 0)
(0.0345768 -0.000656339 0)
(0.0348847 -0.000858039 0)
(0.0352794 -0.00105837 0)
(0.0357551 -0.00125516 0)
(0.0363057 -0.00144595 0)
(0.0369249 -0.00162809 0)
(0.037606 -0.00179885 0)
(0.0383419 -0.00195546 0)
(0.0391251 -0.00209525 0)
(0.0399477 -0.00221568 0)
(0.0408015 -0.00231444 0)
(0.041678 -0.00238953 0)
(0.0425683 -0.0024393 0)
(0.0434636 -0.00246258 0)
(0.0443549 -0.00245867 0)
(0.0452335 -0.00242744 0)
(0.0460908 -0.00236938 0)
(0.0469187 -0.00228558 0)
(0.0477097 -0.00217776 0)
(0.048457 -0.00204823 0)
(0.0491547 -0.00189987 0)
(0.0497977 -0.00173602 0)
(0.0503822 -0.0015604 0)
(0.0509053 -0.00137699 0)
(0.0513652 -0.00118989 0)
(0.0517614 -0.00100322 0)
(0.0520943 -0.000820928 0)
(0.0523654 -0.000646727 0)
(0.0525771 -0.000483927 0)
(0.0527328 -0.000335352 0)
(0.0528367 -0.000203253 0)
(0.0528938 -8.92418e-05 0)
(0.0529094 5.74207e-06 0)
(0.0528897 8.14353e-05 0)
(0.052841 0.000138223 0)
(0.0527698 0.00017708 0)
(0.0526826 0.000199482 0)
(0.0525857 0.000207296 0)
(0.0524847 0.000202667 0)
(0.0523849 0.000187892 0)
(0.0522907 0.000165313 0)
(0.0522055 0.000137213 0)
(0.0521321 0.000105735 0)
(0.0520722 7.2825e-05 0)
(0.0520267 4.01808e-05 0)
(0.0519957 9.22729e-06 0)
(0.0519788 -1.88984e-05 0)
(0.0519749 -4.33488e-05 0)
(0.0519824 -6.35579e-05 0)
(0.0519996 -7.92239e-05 0)
(0.0520245 -9.02848e-05 0)
(0.0520552 -9.68884e-05 0)
(0.0520897 -9.93565e-05 0)
(0.0521262 -9.81478e-05 0)
(0.0521629 -9.38178e-05 0)
(0.0521985 -8.69808e-05 0)
(0.0522318 -7.82722e-05 0)
(0.0522619 -6.83167e-05 0)
(0.0522883 -5.76994e-05 0)
(0.0523105 -4.69441e-05 0)
(0.0523285 -3.64972e-05 0)
(0.0523424 -2.67189e-05 0)
(0.0523525 -1.78792e-05 0)
(0.052359 -1.01597e-05 0)
(0.0523625 -3.66056e-06 0)
(0.0523634 1.59077e-06 0)
(0.0523624 5.62736e-06 0)
(0.0523597 8.53018e-06 0)
(0.0523561 1.0415e-05 0)
(0.0523518 1.14202e-05 0)
(0.0523471 1.16952e-05 0)
(0.0523425 1.13915e-05 0)
(0.052338 1.06542e-05 0)
(0.052334 9.61687e-06 0)
(0.0523304 8.39701e-06 0)
(0.0523273 7.09404e-06 0)
(0.0523247 5.78832e-06 0)
(0.0523227 4.54148e-06 0)
(0.0523211 3.39765e-06 0)
(0.05232 2.38534e-06 0)
(0.0523193 1.51971e-06 0)
(0.0523189 8.04972e-07 0)
(0.0523188 2.36882e-07 0)
(0.0523188 -1.95e-07 0)
(0.052319 -5.05219e-07 0)
(0.0523192 -7.10656e-07 0)
(0.0523196 -8.29064e-07 0)
(0.0523199 -8.77933e-07 0)
(0.0523203 -8.73662e-07 0)
(0.0523206 -8.31001e-07 0)
(0.0523209 -7.62741e-07 0)
(0.0523212 -6.7949e-07 0)
(0.0523214 -5.90383e-07 0)
(0.0523216 -4.99861e-07 0)
(0.0523218 -4.20034e-07 0)
(0.0523219 -3.391e-07 0)
(-0.000409386 0.00246409 0)
(-0.00173732 0.00377784 0)
(-0.00301746 0.00412464 0)
(-0.00408814 0.00388471 0)
(-0.00486719 0.0036274 0)
(-0.0054654 0.00334201 0)
(-0.0058785 0.00309633 0)
(-0.00616484 0.00287002 0)
(-0.00633177 0.00266878 0)
(-0.0064033 0.00248661 0)
(-0.00638533 0.00232215 0)
(-0.00628686 0.00217222 0)
(-0.00611034 0.00203399 0)
(-0.00585808 0.00190411 0)
(-0.00552972 0.00177886 0)
(-0.00512422 0.00165419 0)
(-0.00463928 0.00152565 0)
(-0.00407207 0.0013886 0)
(-0.00341921 0.00123828 0)
(-0.00267704 0.00106999 0)
(-0.00184178 0.000879228 0)
(-0.000909684 0.000661945 0)
(0.000122842 0.000414639 0)
(0.00125911 0.000134521 0)
(0.00250208 -0.000180389 0)
(0.00385429 -0.000531202 0)
(0.0053178 -0.000918134 0)
(0.00689414 -0.00134052 0)
(0.00858433 -0.00179686 0)
(0.0103888 -0.00228488 0)
(0.0123073 -0.00280159 0)
(0.0143392 -0.0033434 0)
(0.0164828 -0.00390618 0)
(0.0187361 -0.00448533 0)
(0.021096 -0.00507587 0)
(0.0235588 -0.0056725 0)
(0.0261197 -0.00626961 0)
(0.0287732 -0.00686138 0)
(0.0315127 -0.00744178 0)
(0.0343304 -0.00800459 0)
(0.0372176 -0.0085435 0)
(0.0401643 -0.00905211 0)
(0.0431592 -0.00952399 0)
(0.0461902 -0.00995275 0)
(0.0492437 -0.0103321 0)
(0.0523051 -0.0106559 0)
(0.0553588 -0.0109183 0)
(0.0583885 -0.0111139 0)
(0.0613769 -0.0112377 0)
(0.0643065 -0.0112854 0)
(0.0671593 -0.0112536 0)
(0.0699178 -0.0111399 0)
(0.0725649 -0.010943 0)
(0.0750846 -0.0106633 0)
(0.0774621 -0.0103021 0)
(0.0796848 -0.00986253 0)
(0.0817421 -0.00934914 0)
(0.0836259 -0.00876776 0)
(0.0853308 -0.00812537 0)
(0.0868536 -0.00742992 0)
(0.088194 -0.00668995 0)
(0.0893535 -0.00591435 0)
(0.0903356 -0.00511205 0)
(0.091145 -0.00429171 0)
(0.0917873 -0.0034616 0)
(0.0922687 -0.00262937 0)
(0.0925953 -0.00180202 0)
(0.0927729 -0.00098586 0)
(0.0928067 -0.000186596 0)
(0.092701 0.000590614 0)
(0.0924592 0.00134101 0)
(0.0920836 0.00206009 0)
(0.0915755 0.00274346 0)
(0.0909351 0.00338669 0)
(0.0901618 0.00398523 0)
(0.0892545 0.00453433 0)
(0.0882113 0.00502902 0)
(0.0870305 0.00546425 0)
(0.0857105 0.00583492 0)
(0.0842507 0.00613618 0)
(0.0826516 0.00636358 0)
(0.0809159 0.00651345 0)
(0.0790489 0.00658312 0)
(0.0770595 0.00657138 0)
(0.0749607 0.00647879 0)
(0.0727703 0.00630809 0)
(0.0705111 0.00606448 0)
(0.0682109 0.0057556 0)
(0.0659016 0.00539148 0)
(0.0636181 0.00498397 0)
(0.0613963 0.00454606 0)
(0.0592708 0.00409093 0)
(0.0572731 0.00363086 0)
(0.0554297 0.00317624 0)
(0.0537604 0.00273488 0)
(0.0522783 0.00231163 0)
(0.0509899 0.0019085 0)
(0.0498956 0.00152517 0)
(0.0489912 0.00115968 0)
(0.0482687 0.000809208 0)
(0.0477183 0.000470759 0)
(0.0473288 0.000141709 0)
(0.0470885 -0.000179865 0)
(0.0469858 -0.000495018 0)
(0.0470096 -0.000803901 0)
(0.0471493 -0.00110583 0)
(0.0473946 -0.00139938 0)
(0.0477357 -0.00168254 0)
(0.048163 -0.00195284 0)
(0.0486673 -0.00220749 0)
(0.0492393 -0.00244351 0)
(0.0498696 -0.00265783 0)
(0.050549 -0.00284743 0)
(0.051268 -0.00300942 0)
(0.0520171 -0.00314115 0)
(0.0527868 -0.00324034 0)
(0.0535675 -0.00330515 0)
(0.0543497 -0.00333426 0)
(0.0551243 -0.00332703 0)
(0.0558822 -0.00328348 0)
(0.0566152 -0.00320442 0)
(0.0573154 -0.00309145 0)
(0.0579759 -0.00294697 0)
(0.0585908 -0.00277412 0)
(0.0591551 -0.00257674 0)
(0.0596652 -0.00235926 0)
(0.0601187 -0.00212653 0)
(0.0605142 -0.0018837 0)
(0.0608518 -0.00163602 0)
(0.0611325 -0.00138866 0)
(0.0613585 -0.00114656 0)
(0.0615326 -0.000914285 0)
(0.0616585 -0.000695883 0)
(0.0617402 -0.000494815 0)
(0.0617821 -0.000313879 0)
(0.0617888 -0.000155171 0)
(0.0617651 -2.00717e-05 0)
(0.0617156 9.07584e-05 0)
(0.0616451 0.000177359 0)
(0.0615581 0.000240435 0)
(0.0614591 0.000281308 0)
(0.0613525 0.000301838 0)
(0.0612424 0.000304339 0)
(0.0611328 0.00029146 0)
(0.0610271 0.000266074 0)
(0.0609284 0.000231145 0)
(0.0608394 0.000189607 0)
(0.0607618 0.000144254 0)
(0.0606972 9.7644e-05 0)
(0.0606462 5.20228e-05 0)
(0.060609 9.27386e-06 0)
(0.0605851 -2.91125e-05 0)
(0.0605737 -6.20482e-05 0)
(0.0605734 -8.88386e-05 0)
(0.0605828 -0.000109158 0)
(0.0606001 -0.000123014 0)
(0.0606235 -0.000130698 0)
(0.0606511 -0.000132739 0)
(0.0606813 -0.000129841 0)
(0.0607124 -0.000122828 0)
(0.0607432 -0.00011259 0)
(0.0607723 -0.00010003 0)
(0.0607991 -8.60191e-05 0)
(0.0608227 -7.13595e-05 0)
(0.0608428 -5.67553e-05 0)
(0.0608593 -4.27933e-05 0)
(0.0608721 -2.9933e-05 0)
(0.0608814 -1.85045e-05 0)
(0.0608876 -8.714e-06 0)
(0.060891 -6.55296e-07 0)
(0.0608921 5.67495e-06 0)
(0.0608913 1.0359e-05 0)
(0.0608891 1.35392e-05 0)
(0.0608859 1.53989e-05 0)
(0.0608821 1.61452e-05 0)
(0.060878 1.59936e-05 0)
(0.0608738 1.51558e-05 0)
(0.0608699 1.38291e-05 0)
(0.0608663 1.21902e-05 0)
(0.060863 1.03902e-05 0)
(0.0608603 8.5532e-06 0)
(0.0608581 6.77556e-06 0)
(0.0608563 5.12782e-06 0)
(0.060855 3.65693e-06 0)
(0.060854 2.38953e-06 0)
(0.0608534 1.33547e-06 0)
(0.0608531 4.91405e-07 0)
(0.060853 -1.55747e-07 0)
(0.0608531 -6.25682e-07 0)
(0.0608533 -9.42001e-07 0)
(0.0608536 -1.12997e-06 0)
(0.0608539 -1.21477e-06 0)
(0.0608542 -1.2202e-06 0)
(0.0608545 -1.16778e-06 0)
(0.0608548 -1.07627e-06 0)
(0.0608551 -9.61362e-07 0)
(0.0608553 -8.35986e-07 0)
(0.0608555 -7.08999e-07 0)
(0.0608557 -5.94002e-07 0)
(0.0608558 -4.73659e-07 0)
(-0.00070036 0.0030943 0)
(-0.00211545 0.00471265 0)
(-0.00258432 0.00493963 0)
(-0.00281875 0.00449672 0)
(-0.00263796 0.00403142 0)
(-0.0023622 0.00357183 0)
(-0.00192833 0.00317448 0)
(-0.00141956 0.00282295 0)
(-0.000824905 0.00251297 0)
(-0.00016736 0.00223588 0)
(0.000554207 0.00198459 0)
(0.00133387 0.00175338 0)
(0.00217271 0.00153658 0)
(0.00307076 0.00132929 0)
(0.00403035 0.0011265 0)
(0.00505385 0.000923383 0)
(0.00614441 0.000714995 0)
(0.00730523 0.000496445 0)
(0.00853963 0.000262878 0)
(0.00985081 9.62553e-06 0)
(0.0112418 -0.000267684 0)
(0.0127153 -0.000572975 0)
(0.0142738 -0.000909596 0)
(0.0159193 -0.0012802 0)
(0.0176534 -0.00168665 0)
(0.0194775 -0.00212996 0)
(0.0213925 -0.00261026 0)
(0.0233987 -0.00312681 0)
(0.0254961 -0.003678 0)
(0.0276843 -0.00426139 0)
(0.0299622 -0.00487379 0)
(0.0323281 -0.0055113 0)
(0.0347797 -0.0061694 0)
(0.037314 -0.006843 0)
(0.039927 -0.0075265 0)
(0.042614 -0.00821388 0)
(0.0453692 -0.00889869 0)
(0.0481859 -0.00957415 0)
(0.0510562 -0.0102331 0)
(0.0539709 -0.0108682 0)
(0.0569198 -0.0114719 0)
(0.0598913 -0.0120362 0)
(0.0628726 -0.0125534 0)
(0.0658493 -0.0130156 0)
(0.0688062 -0.0134151 0)
(0.0717269 -0.0137442 0)
(0.0745939 -0.0139959 0)
(0.0773893 -0.0141635 0)
(0.0800946 -0.014241 0)
(0.0826914 -0.0142236 0)
(0.0851617 -0.0141075 0)
(0.0874888 -0.0138906 0)
(0.0896574 -0.0135722 0)
(0.0916547 -0.013154 0)
(0.0934708 -0.0126393 0)
(0.0950988 -0.0120336 0)
(0.0965358 -0.0113442 0)
(0.0977823 -0.01058 0)
(0.0988425 -0.0097514 0)
(0.0997235 -0.00886934 0)
(0.100435 -0.00794532 0)
(0.10099 -0.00699071 0)
(0.101401 -0.00601642 0)
(0.101681 -0.00503255 0)
(0.101844 -0.00404816 0)
(0.101903 -0.00307116 0)
(0.101869 -0.00210827 0)
(0.101753 -0.00116511 0)
(0.101561 -0.000246327 0)
(0.101302 0.000644223 0)
(0.100978 0.00150325 0)
(0.100593 0.00232781 0)
(0.100147 0.00311509 0)
(0.0996393 0.00386223 0)
(0.0990669 0.00456615 0)
(0.0984264 0.00522342 0)
(0.0977128 0.00583019 0)
(0.0969205 0.00638222 0)
(0.0960432 0.00687485 0)
(0.0950743 0.00730318 0)
(0.0940077 0.00766217 0)
(0.0928375 0.00794689 0)
(0.0915593 0.00815279 0)
(0.0901704 0.00827602 0)
(0.0886704 0.00831381 0)
(0.0870619 0.00826485 0)
(0.0853513 0.00812959 0)
(0.083549 0.00791052 0)
(0.08167 0.00761228 0)
(0.0797336 0.00724163 0)
(0.0777634 0.00680725 0)
(0.0757867 0.00631941 0)
(0.0738328 0.00578947 0)
(0.0719321 0.00522924 0)
(0.0701142 0.00465028 0)
(0.0684063 0.00406325 0)
(0.0668318 0.00347733 0)
(0.0654091 0.00289982 0)
(0.0641511 0.00233601 0)
(0.0630652 0.00178929 0)
(0.0621534 0.00126146 0)
(0.0614136 0.000753152 0)
(0.0608397 0.000264354 0)
(0.0604234 -0.00020517 0)
(0.0601543 -0.000655507 0)
(0.0600212 -0.00108635 0)