/*--------------------------------*- C++ -*----------------------------------*\
| =========                 |                                                 |
| \\      /  F ield         | OpenFOAM: The Open Source CFD Toolbox           |
|  \\    /   O peration     | Version:  4.1                                   |
|   \\  /    A nd           | Web:      www.OpenFOAM.org                      |
|    \\/     M anipulation  |                                                 |
\*---------------------------------------------------------------------------*/
FoamFile
{
    version     2.0;
    format      ascii;
    class       volScalarField;
    location    "5700";
    object      p;
}
// * * * * * * * * * * * * * * * * * * * * * * * * * * * * * * * * * * * * * //

dimensions      [1 -1 -2 0 0 0 0];

internalField   nonuniform List<scalar> 
1275
(
0.711993
0.711993
0.711992
0.711992
0.711991
0.711992
0.711991
0.711991
0.71199
0.71199
0.71199
0.71199
0.71199
0.71199
0.711991
0.711991
0.711991
0.711992
0.711993
0.711994
0.711995
0.711996
0.711997
0.711999
0.712
0.712002
0.712004
0.712006
0.712008
0.71201
0.712013
0.712015
0.712018
0.712021
0.712024
0.712027
0.712031
0.712034
0.712038
0.712042
0.712046
0.71205
0.712055
0.712059
0.712064
0.712069
0.712074
0.712079
0.712085
0.712091
0.712096
0.712102
0.712109
0.712115
0.712122
0.712128
0.712135
0.712143
0.71215
0.712158
0.712166
0.712174
0.712183
0.712191
0.7122
0.71221
0.71222
0.71223
0.712241
0.712252
0.712264
0.712276
0.712289
0.712302
0.712317
0.712332
0.712349
0.712366
0.712385
0.712406
0.712428
0.712452
0.712477
0.712505
0.712535
0.712568
0.712603
0.71264
0.712681
0.712724
0.712769
0.712818
0.712869
0.712922
0.712977
0.713033
0.713091
0.713149
0.713207
0.713264
0.71332
0.713375
0.713427
0.713476
0.713521
0.713563
0.713601
0.713635
0.713664
0.713688
0.713708
0.713724
0.713735
0.713743
0.713747
0.713748
0.713746
0.713741
0.713734
0.713725
0.713715
0.713703
0.711992
0.711992
0.711991
0.711992
0.711991
0.711992
0.711991
0.711991
0.711991
0.711991
0.711991
0.711991
0.711991
0.711991
0.711991
0.711992
0.711992
0.711993
0.711994
0.711995
0.711995
0.711997
0.711998
0.711999
0.712001
0.712003
0.712004
0.712006
0.712008
0.712011
0.712013
0.712016
0.712019
0.712022
0.712025
0.712028
0.712031
0.712035
0.712039
0.712043
0.712047
0.712051
0.712055
0.71206
0.712065
0.71207
0.712075
0.71208
0.712085
0.712091
0.712097
0.712103
0.712109
0.712116
0.712122
0.712129
0.712136
0.712143
0.712151
0.712159
0.712167
0.712175
0.712183
0.712192
0.712201
0.712211
0.712221
0.712231
0.712242
0.712253
0.712265
0.712277
0.71229
0.712304
0.712318
0.712333
0.71235
0.712367
0.712386
0.712406
0.712428
0.712451
0.712477
0.712504
0.712534
0.712566
0.7126
0.712637
0.712677
0.71272
0.712765
0.712813
0.712863
0.712916
0.712971
0.713027
0.713085
0.713143
0.713201
0.713258
0.713314
0.713369
0.713421
0.71347
0.713516
0.713558
0.713596
0.713629
0.713659
0.713683
0.713703
0.713719
0.713731
0.713738
0.713742
0.713743
0.713741
0.713737
0.71373
0.713721
0.713711
0.7137
0.711995
0.711995
0.711994
0.711994
0.711993
0.711993
0.711992
0.711992
0.711991
0.711991
0.711991
0.711991
0.711991
0.711991
0.711991
0.711992
0.711992
0.711993
0.711993
0.711994
0.711995
0.711996
0.711998
0.711999
0.712001
0.712002
0.712004
0.712006
0.712008
0.712011
0.712013
0.712016
0.712018
0.712021
0.712024
0.712028
0.712031
0.712035
0.712038
0.712042
0.712046
0.712051
0.712055
0.71206
0.712064
0.712069
0.712074
0.71208
0.712085
0.712091
0.712097
0.712103
0.712109
0.712115
0.712122
0.712129
0.712136
0.712143
0.712151
0.712158
0.712166
0.712175
0.712183
0.712192
0.712201
0.71221
0.71222
0.712231
0.712241
0.712252
0.712264
0.712276
0.712289
0.712303
0.712317
0.712332
0.712348
0.712366
0.712384
0.712404
0.712426
0.712449
0.712474
0.712501
0.71253
0.712562
0.712596
0.712633
0.712672
0.712715
0.71276
0.712808
0.712858
0.712911
0.712965
0.713022
0.713079
0.713137
0.713195
0.713253
0.713309
0.713364
0.713416
0.713465
0.713511
0.713553
0.713591
0.713624
0.713653
0.713677
0.713697
0.713713
0.713725
0.713732
0.713736
0.713737
0.713735
0.71373
0.713723
0.713715
0.713705
0.713694
0.711991
0.711991
0.71199
0.711992
0.71199
0.711992
0.711991
0.711992
0.711991
0.711991
0.711991
0.711991
0.711991
0.711991
0.711991
0.711992
0.711992
0.711993
0.711994
0.711994
0.711995
0.711996
0.711998
0.711999
0.712001
0.712002
0.712004
0.712006
0.712008
0.71201
0.712013
0.712016
0.712018
0.712021
0.712024
0.712028
0.712031
0.712035
0.712038
0.712042
0.712046
0.712051
0.712055
0.71206
0.712064
0.712069
0.712074
0.71208
0.712085
0.712091
0.712097
0.712103
0.712109
0.712115
0.712122
0.712129
0.712136
0.712143
0.712151
0.712158
0.712166
0.712174
0.712183
0.712192
0.712201
0.71221
0.71222
0.71223
0.712241
0.712252
0.712264
0.712276
0.712288
0.712302
0.712316
0.712331
0.712347
0.712364
0.712382
0.712401
0.712422
0.712445
0.71247
0.712496
0.712525
0.712556
0.71259
0.712626
0.712666
0.712708
0.712753
0.7128
0.71285
0.712903
0.712957
0.713014
0.713071
0.713129
0.713186
0.713243
0.713299
0.713353
0.713405
0.713453
0.713499
0.71354
0.713577
0.71361
0.713638
0.713662
0.713681
0.713696
0.713708
0.713715
0.713719
0.713719
0.713717
0.713712
0.713706
0.713698
0.713688
0.713677
0.711997
0.711996
0.711995
0.711995
0.711993
0.711993
0.711991
0.711991
0.71199
0.71199
0.711989
0.71199
0.711989
0.71199
0.71199
0.71199
0.711991
0.711992
0.711992
0.711993
0.711994
0.711995
0.711997
0.711998
0.712
0.712001
0.712003
0.712005
0.712007
0.71201
0.712012
0.712015
0.712017
0.71202
0.712024
0.712027
0.71203
0.712034
0.712038
0.712042
0.712046
0.71205
0.712054
0.712059
0.712064
0.712069
0.712074
0.712079
0.712085
0.71209
0.712096
0.712102
0.712108
0.712115
0.712121
0.712128
0.712135
0.712142
0.71215
0.712158
0.712165
0.712174
0.712182
0.712191
0.7122
0.712209
0.712219
0.712229
0.71224
0.712251
0.712262
0.712274
0.712286
0.7123
0.712314
0.712328
0.712344
0.712361
0.712379
0.712398
0.712419
0.712442
0.712466
0.712493
0.712521
0.712553
0.712586
0.712623
0.712662
0.712704
0.712749
0.712796
0.712846
0.712899
0.712953
0.713008
0.713065
0.713122
0.713179
0.713235
0.713289
0.713342
0.713392
0.713439
0.713482
0.713522
0.713558
0.713589
0.713616
0.713638
0.713656
0.71367
0.71368
0.713687
0.71369
0.71369
0.713688
0.713683
0.713677
0.713669
0.71366
0.71365
0.711985
0.711988
0.711985
0.711989
0.711987
0.71199
0.711988
0.71199
0.711989
0.71199
0.711989
0.71199
0.711989
0.71199
0.71199
0.71199
0.711991
0.711991
0.711992
0.711993
0.711994
0.711995
0.711996
0.711998
0.711999
0.712001
0.712003
0.712005
0.712007
0.712009
0.712012
0.712014
0.712017
0.71202
0.712023
0.712026
0.71203
0.712033
0.712037
0.712041
0.712045
0.712049
0.712054
0.712058
0.712063
0.712068
0.712073
0.712079
0.712084
0.71209
0.712095
0.712102
0.712108
0.712114
0.712121
0.712128
0.712135
0.712142
0.712149
0.712157
0.712165
0.712173
0.712181
0.71219
0.712199
0.712208
0.712218
0.712228
0.712239
0.712249
0.712261
0.712273
0.712285
0.712298
0.712312
0.712327
0.712343
0.712359
0.712377
0.712397
0.712418
0.71244
0.712465
0.712491
0.71252
0.712551
0.712585
0.712621
0.712661
0.712703
0.712747
0.712794
0.712844
0.712895
0.712948
0.713003
0.713058
0.713113
0.713168
0.713222
0.713274
0.713324
0.713372
0.713416
0.713457
0.713494
0.713527
0.713555
0.71358
0.7136
0.713616
0.713628
0.713637
0.713642
0.713645
0.713644
0.713642
0.713637
0.713631
0.713624
0.713616
0.713607
0.711996
0.711996
0.711993
0.711993
0.71199
0.71199
0.711988
0.711988
0.711987
0.711987
0.711986
0.711987
0.711987
0.711987
0.711987
0.711988
0.711988
0.711989
0.71199
0.711991
0.711992
0.711993
0.711995
0.711996
0.711998
0.712
0.712002
0.712004
0.712006
0.712008
0.712011
0.712013
0.712016
0.712019
0.712022
0.712026
0.712029
0.712033
0.712036
0.71204
0.712045
0.712049
0.712053
0.712058
0.712063
0.712068
0.712073
0.712078
0.712083
0.712089
0.712095
0.712101
0.712107
0.712114
0.71212
0.712127
0.712134
0.712141
0.712149
0.712156
0.712164
0.712172
0.712181
0.712189
0.712198
0.712208
0.712217
0.712227
0.712238
0.712249
0.71226
0.712272
0.712285
0.712298
0.712312
0.712327
0.712343
0.71236
0.712378
0.712398
0.712419
0.712442
0.712467
0.712494
0.712524
0.712555
0.712589
0.712626
0.712665
0.712707
0.712751
0.712798
0.712846
0.712897
0.712948
0.713001
0.713053
0.713106
0.713158
0.713208
0.713257
0.713303
0.713347
0.713387
0.713424
0.713456
0.713485
0.71351
0.713531
0.713549
0.713562
0.713572
0.713579
0.713583
0.713584
0.713584
0.713581
0.713577
0.713571
0.713565
0.713558
0.71355
0.711965
0.711979
0.711973
0.711984
0.711981
0.711987
0.711984
0.711987
0.711986
0.711988
0.711987
0.711988
0.711988
0.711988
0.711988
0.711989
0.711989
0.71199
0.711991
0.711992
0.711993
0.711994
0.711995
0.711996
0.711998
0.712
0.712002
0.712004
0.712006
0.712008
0.712011
0.712013
0.712016
0.712019
0.712022
0.712025
0.712029
0.712033
0.712036
0.71204
0.712044
0.712049
0.712053
0.712058
0.712062
0.712068
0.712072
0.712078
0.712083
0.712089
0.712095
0.712101
0.712107
0.712113
0.71212
0.712127
0.712134
0.712141
0.712149
0.712156
0.712164
0.712173
0.712181
0.71219
0.712199
0.712208
0.712218
0.712229
0.712239
0.71225
0.712262
0.712274
0.712287
0.712301
0.712316
0.712331
0.712347
0.712365
0.712384
0.712405
0.712427
0.71245
0.712476
0.712504
0.712534
0.712566
0.7126
0.712637
0.712676
0.712717
0.712761
0.712806
0.712853
0.712901
0.71295
0.712999
0.713049
0.713097
0.713145
0.71319
0.713234
0.713275
0.713313
0.713348
0.71338
0.713407
0.713432
0.713452
0.713469
0.713483
0.713493
0.713501
0.713506
0.713509
0.713509
0.713508
0.713506
0.713503
0.713498
0.713493
0.713488
0.713483
0.711989
0.711996
0.711988
0.71199
0.711985
0.711986
0.711984
0.711985
0.711984
0.711985
0.711984
0.711985
0.711985
0.711986
0.711986
0.711987
0.711988
0.711989
0.711989
0.711991
0.711992
0.711993
0.711994
0.711996
0.711998
0.711999
0.712001
0.712003
0.712006
0.712008
0.712011
0.712013
0.712016
0.712019
0.712022
0.712026
0.712029
0.712033
0.712036
0.712041
0.712045
0.712049
0.712053
0.712058
0.712063
0.712068
0.712073
0.712078
0.712084
0.71209
0.712096
0.712102
0.712108
0.712114
0.712121
0.712128
0.712135
0.712143
0.71215
0.712158
0.712166
0.712175
0.712184
0.712193
0.712202
0.712212
0.712222
0.712233
0.712244
0.712256
0.712269
0.712282
0.712295
0.71231
0.712325
0.712342
0.712359
0.712378
0.712398
0.71242
0.712443
0.712468
0.712495
0.712523
0.712554
0.712586
0.712621
0.712658
0.712696
0.712737
0.712779
0.712822
0.712867
0.712912
0.712957
0.713002
0.713046
0.71309
0.713131
0.713171
0.713209
0.713243
0.713275
0.713304
0.713329
0.713351
0.71337
0.713386
0.713399
0.713409
0.713416
0.713422
0.713425
0.713427
0.713427
0.713427
0.713425
0.713423
0.71342
0.713417
0.713414
0.713411
0.711886
0.711968
0.711962
0.711986
0.711981
0.71199
0.711987
0.71199
0.711988
0.71199
0.711989
0.71199
0.711989
0.71199
0.71199
0.71199
0.71199
0.711991
0.711992
0.711993
0.711994
0.711995
0.711996
0.711997
0.711999
0.712001
0.712002
0.712004
0.712007
0.712009
0.712011
0.712014
0.712017
0.71202
0.712023
0.712026
0.71203
0.712034
0.712037
0.712042
0.712045
0.71205
0.712054
0.712059
0.712064
0.71207
0.712074
0.71208
0.712086
0.712092
0.712098
0.712104
0.712111
0.712117
0.712124
0.712132
0.712139
0.712147
0.712155
0.712163
0.712172
0.712181
0.71219
0.7122
0.71221
0.712221
0.712232
0.712244
0.712256
0.712269
0.712282
0.712297
0.712312
0.712328
0.712345
0.712362
0.712382
0.712402
0.712424
0.712447
0.712471
0.712497
0.712525
0.712555
0.712586
0.712619
0.712653
0.712689
0.712727
0.712765
0.712805
0.712845
0.712886
0.712927
0.712967
0.713007
0.713045
0.713082
0.713117
0.71315
0.71318
0.713208
0.713233
0.713255
0.713274
0.713291
0.713305
0.713316
0.713326
0.713333
0.713338
0.713342
0.713345
0.713346
0.713347
0.713347
0.713347
0.713346
0.713346
0.713345
0.713344
0.713344
0.712244
0.712202
0.712195
0.712154
0.712141
0.712098
0.712083
0.712031
0.712022
0.711949
0.711966
0.711993
0.711987
0.711992
0.711987
0.711989
0.711986
0.711988
0.711986
0.711987
0.711986
0.711987
0.711987
0.711988
0.711988
0.711989
0.711989
0.71199
0.711991
0.711992
0.711993
0.711995
0.711996
0.711998
0.711999
0.712001
0.712003
0.712005
0.712007
0.71201
0.712012
0.712015
0.712018
0.712021
0.712025
0.712028
0.712032
0.712035
0.712039
0.712044
0.712048
0.712052
0.712057
0.712062
0.712067
)
;

boundaryField
{
    inlet
    {
        type            zeroGradient;
    }
    outlet
    {
        type            fixedValue;
        value           nonuniform 0();
    }
    walls
    {
        type            zeroGradient;
    }
    symwall
    {
        type            empty;
    }
    procBoundary0to1
    {
        type            processor;
        value           nonuniform List<scalar> 10(0.713691 0.713688 0.713682 0.713666 0.713639 0.713597 0.713543 0.713477 0.713408 0.713344);
    }
    procBoundary0to2
    {
        type            processor;
        value           nonuniform List<scalar> 
133
(
0.712073
0.712078
0.712084
0.71209
0.712096
0.712103
0.71211
0.712117
0.712124
0.712131
0.712139
0.712148
0.712156
0.712165
0.712174
0.712184
0.712194
0.712204
0.712215
0.712227
0.712239
0.712251
0.712264
0.712278
0.712292
0.712308
0.712324
0.712341
0.712358
0.712377
0.712397
0.712418
0.71244
0.712464
0.712488
0.712514
0.712542
0.71257
0.7126
0.712632
0.712664
0.712698
0.712733
0.712768
0.712804
0.71284
0.712876
0.712912
0.712948
0.712982
0.713015
0.713047
0.713077
0.713104
0.71313
0.713153
0.713174
0.713193
0.713209
0.713223
0.713235
0.713245
0.713253
0.71326
0.713265
0.713269
0.713273
0.713275
0.713277
0.713279
0.713281
0.713282
0.713284
0.713285
0.713287
0.713288
0.713291
0.712253
0.712205
0.712198
0.712156
0.712143
0.712099
0.712083
0.712033
0.712017
0.711949
0.711925
0.711977
0.71197
0.711992
0.711986
0.711995
0.711991
0.711995
0.711992
0.711994
0.711992
0.711993
0.711992
0.711992
0.711992
0.711992
0.711992
0.711993
0.711994
0.711994
0.711995
0.711996
0.711998
0.711999
0.712001
0.712003
0.712005
0.712007
0.712009
0.712012
0.712014
0.712017
0.71202
0.712023
0.712027
0.712031
0.712034
0.712039
0.712043
0.712047
0.712052
0.712057
0.712062
0.712068
0.712073
0.712072
)
;
    }
}


// ************************************************************************* //
