/*--------------------------------*- C++ -*----------------------------------*\
| =========                 |                                                 |
| \\      /  F ield         | OpenFOAM: The Open Source CFD Toolbox           |
|  \\    /   O peration     | Version:  4.1                                   |
|   \\  /    A nd           | Web:      www.OpenFOAM.org                      |
|    \\/     M anipulation  |                                                 |
\*---------------------------------------------------------------------------*/
FoamFile
{
    version     2.0;
    format      ascii;
    class       volScalarField;
    location    "126";
    object      p;
}
// * * * * * * * * * * * * * * * * * * * * * * * * * * * * * * * * * * * * * //

dimensions      [1 -1 -2 0 0 0 0];

internalField   nonuniform List<scalar> 
3264
(
0.712758
0.712755
0.712752
0.712747
0.712741
0.712734
0.712727
0.712718
0.71271
0.712702
0.712694
0.712688
0.712685
0.712684
0.712687
0.712694
0.712707
0.712725
0.712751
0.712783
0.712824
0.712873
0.71293
0.712997
0.713071
0.713155
0.713246
0.713344
0.713449
0.71356
0.713674
0.713792
0.71391
0.714029
0.714147
0.714261
0.714371
0.714475
0.714572
0.714662
0.714743
0.714814
0.714877
0.71493
0.714974
0.71501
0.715038
0.715059
0.715074
0.715084
0.71509
0.715094
0.715096
0.715096
0.715097
0.715098
0.715099
0.715103
0.715109
0.715117
0.715129
0.715144
0.715163
0.715186
0.715212
0.715242
0.715276
0.715312
0.71535
0.715388
0.715427
0.715464
0.715499
0.71553
0.715557
0.71558
0.715599
0.715612
0.715621
0.715626
0.715627
0.715625
0.71562
0.715614
0.715605
0.715596
0.715585
0.715574
0.715562
0.71555
0.715538
0.715526
0.715514
0.715501
0.715489
0.715477
0.715466
0.715454
0.715442
0.71543
0.715419
0.715407
0.715396
0.715384
0.715373
0.715361
0.71535
0.715338
0.715327
0.715316
0.715304
0.715293
0.715281
0.71527
0.715259
0.715247
0.715236
0.715225
0.715213
0.715202
0.71519
0.715179
0.715168
0.715156
0.715145
0.715134
0.715122
0.715111
0.715099
0.715088
0.715077
0.715065
0.715054
0.715043
0.715031
0.71502
0.715008
0.714997
0.714986
0.714974
0.714963
0.714952
0.71494
0.714929
0.714917
0.714906
0.714895
0.714883
0.714872
0.714861
0.714849
0.714838
0.714826
0.714815
0.714804
0.714792
0.714781
0.71477
0.714758
0.714747
0.714735
0.714724
0.714713
0.714701
0.71469
0.714679
0.714667
0.714656
0.714644
0.714633
0.714622
0.71461
0.714599
0.714587
0.714576
0.714565
0.714553
0.714542
0.714531
0.714519
0.714508
0.714496
0.714485
0.714474
0.714462
0.714451
0.71444
0.714428
0.714417
0.714405
0.714394
0.714383
0.714371
0.71436
0.714349
0.714337
0.714326
0.714314
0.714303
0.714292
0.71276
0.712758
0.712755
0.712751
0.712746
0.71274
0.712733
0.712725
0.712717
0.712708
0.712701
0.712694
0.71269
0.712688
0.71269
0.712696
0.712707
0.712724
0.712748
0.712779
0.712818
0.712865
0.712922
0.712987
0.713061
0.713143
0.713234
0.713332
0.713436
0.713546
0.713661
0.713778
0.713897
0.714016
0.714134
0.714248
0.714359
0.714464
0.714562
0.714652
0.714734
0.714806
0.71487
0.714924
0.714969
0.715005
0.715034
0.715056
0.715072
0.715082
0.715089
0.715094
0.715096
0.715097
0.715097
0.715098
0.7151
0.715103
0.715108
0.715116
0.715127
0.715142
0.71516
0.715182
0.715209
0.715239
0.715272
0.715308
0.715346
0.715385
0.715424
0.715462
0.715497
0.71553
0.715558
0.715581
0.7156
0.715613
0.715622
0.715627
0.715628
0.715626
0.715621
0.715614
0.715606
0.715596
0.715585
0.715574
0.715562
0.71555
0.715538
0.715526
0.715514
0.715501
0.715489
0.715477
0.715465
0.715454
0.715442
0.71543
0.715419
0.715407
0.715396
0.715384
0.715373
0.715361
0.71535
0.715338
0.715327
0.715316
0.715304
0.715293
0.715281
0.71527
0.715259
0.715247
0.715236
0.715225
0.715213
0.715202
0.71519
0.715179
0.715168
0.715156
0.715145
0.715134
0.715122
0.715111
0.715099
0.715088
0.715077
0.715065
0.715054
0.715043
0.715031
0.71502
0.715008
0.714997
0.714986
0.714974
0.714963
0.714952
0.71494
0.714929
0.714917
0.714906
0.714895
0.714883
0.714872
0.714861
0.714849
0.714838
0.714826
0.714815
0.714804
0.714792
0.714781
0.71477
0.714758
0.714747
0.714735
0.714724
0.714713
0.714701
0.71469
0.714679
0.714667
0.714656
0.714644
0.714633
0.714622
0.71461
0.714599
0.714587
0.714576
0.714565
0.714553
0.714542
0.714531
0.714519
0.714508
0.714496
0.714485
0.714474
0.714462
0.714451
0.71444
0.714428
0.714417
0.714405
0.714394
0.714383
0.714371
0.71436
0.714349
0.714337
0.714326
0.714314
0.714303
0.714292
0.712764
0.712761
0.712758
0.712754
0.712748
0.712742
0.712734
0.712725
0.712716
0.712707
0.712698
0.71269
0.712685
0.712682
0.712682
0.712687
0.712697
0.712713
0.712736
0.712766
0.712805
0.712851
0.712907
0.712972
0.713045
0.713128
0.713218
0.713316
0.71342
0.71353
0.713644
0.713762
0.713881
0.714
0.714118
0.714233
0.714343
0.714448
0.714547
0.714637
0.714719
0.714793
0.714856
0.714911
0.714957
0.714994
0.715024
0.715046
0.715063
0.715075
0.715083
0.715088
0.715091
0.715092
0.715093
0.715094
0.715096
0.715099
0.715105
0.715113
0.715125
0.715139
0.715158
0.71518
0.715206
0.715236
0.71527
0.715306
0.715345
0.715385
0.715424
0.715463
0.715499
0.715532
0.71556
0.715584
0.715603
0.715616
0.715625
0.715629
0.71563
0.715627
0.715622
0.715615
0.715606
0.715596
0.715585
0.715574
0.715562
0.71555
0.715538
0.715526
0.715513
0.715501
0.715489
0.715477
0.715465
0.715454
0.715442
0.71543
0.715419
0.715407
0.715396
0.715384
0.715373
0.715361
0.71535
0.715338
0.715327
0.715316
0.715304
0.715293
0.715281
0.71527
0.715259
0.715247
0.715236
0.715225
0.715213
0.715202
0.71519
0.715179
0.715168
0.715156
0.715145
0.715134
0.715122
0.715111
0.715099
0.715088
0.715077
0.715065
0.715054
0.715043
0.715031
0.71502
0.715008
0.714997
0.714986
0.714974
0.714963
0.714952
0.71494
0.714929
0.714917
0.714906
0.714895
0.714883
0.714872
0.714861
0.714849
0.714838
0.714826
0.714815
0.714804
0.714792
0.714781
0.71477
0.714758
0.714747
0.714735
0.714724
0.714713
0.714701
0.71469
0.714679
0.714667
0.714656
0.714644
0.714633
0.714622
0.71461
0.714599
0.714587
0.714576
0.714565
0.714553
0.714542
0.714531
0.714519
0.714508
0.714496
0.714485
0.714474
0.714462
0.714451
0.71444
0.714428
0.714417
0.714405
0.714394
0.714383
0.714371
0.71436
0.714349
0.714337
0.714326
0.714314
0.714303
0.714292
0.712761
0.71276
0.712757
0.712754
0.712748
0.712741
0.712733
0.712724
0.712714
0.712704
0.712694
0.712685
0.712678
0.712674
0.712673
0.712677
0.712686
0.7127
0.712722
0.712751
0.712789
0.712835
0.71289
0.712954
0.713027
0.713109
0.713198
0.713296
0.713399
0.713509
0.713622
0.713739
0.713857
0.713975
0.714091
0.714205
0.714314
0.714418
0.714514
0.714603
0.714683
0.714755
0.714817
0.714871
0.714916
0.714952
0.714982
0.715006
0.715024
0.715039
0.71505
0.715059
0.715066
0.715072
0.715077
0.715082
0.715087
0.715093
0.7151
0.71511
0.715122
0.715137
0.715156
0.715179
0.715206
0.715237
0.715271
0.715308
0.715347
0.715387
0.715427
0.715466
0.715503
0.715536
0.715564
0.715588
0.715606
0.715619
0.715627
0.715631
0.715631
0.715628
0.715623
0.715615
0.715606
0.715596
0.715585
0.715573
0.715562
0.71555
0.715537
0.715525
0.715513
0.715501
0.715489
0.715477
0.715465
0.715453
0.715442
0.71543
0.715419
0.715407
0.715395
0.715384
0.715373
0.715361
0.71535
0.715338
0.715327
0.715316
0.715304
0.715293
0.715281
0.71527
0.715259
0.715247
0.715236
0.715225
0.715213
0.715202
0.71519
0.715179
0.715168
0.715156
0.715145
0.715134
0.715122
0.715111
0.715099
0.715088
0.715077
0.715065
0.715054
0.715043
0.715031
0.71502
0.715008
0.714997
0.714986
0.714974
0.714963
0.714952
0.71494
0.714929
0.714917
0.714906
0.714895
0.714883
0.714872
0.714861
0.714849
0.714838
0.714826
0.714815
0.714804
0.714792
0.714781
0.71477
0.714758
0.714747
0.714735
0.714724
0.714713
0.714701
0.71469
0.714679
0.714667
0.714656
0.714644
0.714633
0.714622
0.71461
0.714599
0.714587
0.714576
0.714565
0.714553
0.714542
0.714531
0.714519
0.714508
0.714496
0.714485
0.714474
0.714462
0.714451
0.71444
0.714428
0.714417
0.714405
0.714394
0.714383
0.714371
0.71436
0.714349
0.714337
0.714326
0.714314
0.714303
0.714292
0.71276
0.71276
0.712756
0.712752
0.712746
0.712739
0.71273
0.71272
0.71271
0.712699
0.712689
0.712679
0.712672
0.712667
0.712665
0.712668
0.712676
0.712691
0.712712
0.712741
0.712778
0.712823
0.712878
0.712941
0.713014
0.713095
0.713184
0.71328
0.713382
0.71349
0.713602
0.713716
0.713831
0.713946
0.714059
0.714169
0.714274
0.714372
0.714464
0.714547
0.714622
0.714688
0.714745
0.714794
0.714835
0.714868
0.714896
0.714919
0.714938
0.714955
0.714969
0.714984
0.714997
0.715011
0.715026
0.71504
0.715055
0.715071
0.715087
0.715104
0.715122
0.715141
0.715163
0.715188
0.715215
0.715246
0.715281
0.715318
0.715356
0.715397
0.715436
0.715475
0.715511
0.715543
0.715571
0.715594
0.715611
0.715623
0.71563
0.715633
0.715632
0.715628
0.715622
0.715614
0.715605
0.715595
0.715584
0.715572
0.715561
0.715549
0.715537
0.715525
0.715512
0.7155
0.715489
0.715477
0.715465
0.715453
0.715442
0.71543
0.715418
0.715407
0.715395
0.715384
0.715373
0.715361
0.71535
0.715338
0.715327
0.715316
0.715304
0.715293
0.715281
0.71527
0.715259
0.715247
0.715236
0.715225
0.715213
0.715202
0.71519
0.715179
0.715168
0.715156
0.715145
0.715134
0.715122
0.715111
0.715099
0.715088
0.715077
0.715065
0.715054
0.715043
0.715031
0.71502
0.715008
0.714997
0.714986
0.714974
0.714963
0.714952
0.71494
0.714929
0.714917
0.714906
0.714895
0.714883
0.714872
0.714861
0.714849
0.714838
0.714826
0.714815
0.714804
0.714792
0.714781
0.71477
0.714758
0.714747
0.714735
0.714724
0.714713
0.714701
0.71469
0.714679
0.714667
0.714656
0.714644
0.714633
0.714622
0.71461
0.714599
0.714587
0.714576
0.714565
0.714553
0.714542
0.714531
0.714519
0.714508
0.714496
0.714485
0.714474
0.714462
0.714451
0.71444
0.714428
0.714417
0.714405
0.714394
0.714383
0.714371
0.71436
0.714349
0.714337
0.714326
0.714314
0.714303
0.714292
0.712728
0.712744
0.712744
0.712747
0.712743
0.712738
0.71273
0.712721
0.71271
0.712699
0.712688
0.712679
0.712671
0.712665
0.712663
0.712666
0.712673
0.712687
0.712708
0.712737
0.712774
0.712819
0.712873
0.712936
0.713008
0.713088
0.713176
0.71327
0.713371
0.713476
0.713584
0.713694
0.713805
0.713914
0.714021
0.714124
0.714221
0.714311
0.714394
0.714468
0.714533
0.714589
0.714636
0.714676
0.714709
0.714736
0.714759
0.714779
0.714798
0.714817
0.714836
0.714857
0.71488
0.714905
0.714931
0.714959
0.714988
0.715018
0.715049
0.715079
0.71511
0.715141
0.715172
0.715203
0.715236
0.71527
0.715305
0.715342
0.71538
0.715418
0.715456
0.715493
0.715527
0.715557
0.715582
0.715603
0.715618
0.715628
0.715633
0.715635
0.715633
0.715628
0.715621
0.715613
0.715604
0.715593
0.715582
0.715571
0.715559
0.715547
0.715535
0.715524
0.715512
0.7155
0.715488
0.715476
0.715465
0.715453
0.715441
0.71543
0.715418
0.715407
0.715395
0.715384
0.715373
0.715361
0.71535
0.715338
0.715327
0.715316
0.715304
0.715293
0.715281
0.71527
0.715259
0.715247
0.715236
0.715225
0.715213
0.715202
0.71519
0.715179
0.715168
0.715156
0.715145
0.715134
0.715122
0.715111
0.715099
0.715088
0.715077
0.715065
0.715054
0.715043
0.715031
0.71502
0.715008
0.714997
0.714986
0.714974
0.714963
0.714952
0.71494
0.714929
0.714917
0.714906
0.714895
0.714883
0.714872
0.714861
0.714849
0.714838
0.714826
0.714815
0.714804
0.714792
0.714781
0.71477
0.714758
0.714747
0.714735
0.714724
0.714713
0.714701
0.71469
0.714679
0.714667
0.714656
0.714644
0.714633
0.714622
0.71461
0.714599
0.714587
0.714576
0.714565
0.714553
0.714542
0.714531
0.714519
0.714508
0.714496
0.714485
0.714474
0.714462
0.714451
0.71444
0.714428
0.714417
0.714405
0.714394
0.714383
0.714371
0.71436
0.714349
0.714337
0.714326
0.714314
0.714303
0.714292
0.712731
0.71275
0.712749
0.71275
0.712746
0.712741
0.712733
0.712724
0.712713
0.712702
0.712692
0.712682
0.712674
0.712669
0.712667
0.71267
0.712678
0.712693
0.712714
0.712744
0.712781
0.712827
0.712882
0.712945
0.713016
0.713095
0.713182
0.713274
0.713372
0.713473
0.713577
0.713681
0.713785
0.713887
0.713985
0.714078
0.714163
0.714241
0.71431
0.714371
0.714421
0.714464
0.714498
0.714525
0.714548
0.714566
0.714584
0.714601
0.714619
0.714641
0.714665
0.714694
0.714727
0.714764
0.714804
0.714848
0.714893
0.714941
0.714989
0.715037
0.715084
0.71513
0.715175
0.715219
0.715261
0.715302
0.715342
0.715381
0.715419
0.715456
0.715491
0.715524
0.715554
0.71558
0.715601
0.715617
0.715629
0.715636
0.715638
0.715638
0.715634
0.715628
0.715621
0.715612
0.715602
0.715591
0.71558
0.715569
0.715557
0.715546
0.715534
0.715522
0.715511
0.715499
0.715487
0.715476
0.715464
0.715453
0.715441
0.71543
0.715418
0.715407
0.715395
0.715384
0.715373
0.715361
0.71535
0.715338
0.715327
0.715316
0.715304
0.715293
0.715281
0.71527
0.715259
0.715247
0.715236
0.715225
0.715213
0.715202
0.71519
0.715179
0.715168
0.715156
0.715145
0.715134
0.715122
0.715111
0.715099
0.715088
0.715077
0.715065
0.715054
0.715043
0.715031
0.71502
0.715008
0.714997
0.714986
0.714974
0.714963
0.714952
0.71494
0.714929
0.714917
0.714906
0.714895
0.714883
0.714872
0.714861
0.714849
0.714838
0.714826
0.714815
0.714804
0.714792
0.714781
0.71477
0.714758
0.714747
0.714735
0.714724
0.714713
0.714701
0.71469
0.714679
0.714667
0.714656
0.714644
0.714633
0.714622
0.71461
0.714599
0.714587
0.714576
0.714565
0.714553
0.714542
0.714531
0.714519
0.714508
0.714496
0.714485
0.714474
0.714462
0.714451
0.71444
0.714428
0.714417
0.714405
0.714394
0.714383
0.714371
0.71436
0.714349
0.714337
0.714326
0.714314
0.714303
0.714292
0.712574
0.712718
0.712737
0.712758
0.712757
0.712753
0.712744
0.712734
0.712723
0.712712
0.712702
0.712692
0.712685
0.712681
0.71268
0.712685
0.712695
0.712711
0.712735
0.712766
0.712806
0.712854
0.712909
0.712974
0.713045
0.713124
0.713209
0.713299
0.713393
0.71349
0.713588
0.713685
0.71378
0.713871
0.713957
0.714036
0.714107
0.714169
0.714221
0.714264
0.714298
0.714323
0.714343
0.714357
0.714369
0.71438
0.714393
0.714409
0.714429
0.714455
0.714487
0.714525
0.714569
0.714618
0.714673
0.714731
0.714792
0.714856
0.714921
0.714986
0.71505
0.715113
0.715173
0.715231
0.715286
0.715337
0.715384
0.715428
0.715469
0.715505
0.715538
0.715567
0.715592
0.715612
0.715627
0.715638
0.715644
0.715647
0.715646
0.715642
0.715636
0.715629
0.71562
0.715611
0.7156
0.715589
0.715578
0.715567
0.715556
0.715544
0.715533
0.715521
0.71551
0.715498
0.715487
0.715475
0.715464
0.715452
0.715441
0.71543
0.715418
0.715407
0.715395
0.715384
0.715373
0.715361
0.71535
0.715338
0.715327
0.715316
0.715304
0.715293
0.715282
0.71527
0.715259
0.715247
0.715236
0.715225
0.715213
0.715202
0.71519
0.715179
0.715168
0.715156
0.715145
0.715134
0.715122
0.715111
0.715099
0.715088
0.715077
0.715065
0.715054
0.715043
0.715031
0.71502
0.715008
0.714997
0.714986
0.714974
0.714963
0.714952
0.71494
0.714929
0.714917
0.714906
0.714895
0.714883
0.714872
0.714861
0.714849
0.714838
0.714826
0.714815
0.714804
0.714792
0.714781
0.71477
0.714758
0.714747
0.714735
0.714724
0.714713
0.714701
0.71469
0.714679
0.714667
0.714656
0.714644
0.714633
0.714622
0.71461
0.714599
0.714587
0.714576
0.714565
0.714553
0.714542
0.714531
0.714519
0.714508
0.714496
0.714485
0.714474
0.714462
0.714451
0.71444
0.714428
0.714417
0.714405
0.714394
0.714383
0.714371
0.71436
0.714349
0.714337
0.714326
0.714314
0.714303
0.714292
0.713326
0.713269
0.713206
0.713138
0.713064
0.712984
0.712895
0.712772
0.713333
0.713286
0.713222
0.713152
0.713078
0.712998
0.712906
0.712806
0.713338
0.713298
0.71324
0.713174
0.713104
0.713031
0.712959
0.712888
0.713349
0.713315
0.713262
0.713201
0.713136
0.713072
0.713008
0.71295
0.713363
0.713331
0.713282
0.713226
0.713167
0.71311
0.713057
0.71301
0.713379
0.713346
0.713298
0.713245
0.713192
0.713141
0.713095
0.713054
0.713395
0.713358
0.713309
0.713257
0.713207
0.713161
0.713119
0.713082
0.713404
0.713357
0.713308
0.713258
0.713211
0.713167
0.713126
0.71309
0.712703
0.712724
0.712746
0.712757
0.71276
0.712757
0.712751
0.712743
0.712734
0.712725
0.712716
0.71271
0.712705
0.712705
0.712708
0.712717
0.712731
0.712752
0.71278
0.712815
0.712859
0.71291
0.712968
0.713034
0.713106
0.713185
0.713268
0.713355
0.713445
0.713535
0.713625
0.713712
0.713796
0.713873
0.713944
0.714006
0.714059
0.714102
0.714135
0.71416
0.714176
0.714185
0.714191
0.714195
0.7142
0.714208
0.71422
0.714239
0.714264
0.714297
0.714337
0.714384
0.714439
0.714499
0.714565
0.714636
0.71471
0.714787
0.714865
0.714944
0.715022
0.715098
0.715172
0.715242
0.715308
0.715369
0.715425
0.715476
0.71552
0.715558
0.715589
0.715615
0.715635
0.715649
0.715658
0.715662
0.715663
0.71566
0.715655
0.715648
0.71564
0.715631
0.71562
0.71561
0.715599
0.715588
0.715576
0.715565
0.715554
0.715542
0.715531
0.71552
0.715509
0.715497
0.715486
0.715475
0.715463
0.715452
0.715441
0.715429
0.715418
0.715407
0.715395
0.715384
0.715373
0.715361
0.71535
0.715338
0.715327
0.715316
0.715304
0.715293
0.715282
0.71527
0.715259
0.715247
0.715236
0.715225
0.715213
0.715202
0.71519
0.715179
0.715168
0.715156
0.715145
0.715134
0.715122
0.715111
0.715099
0.715088
0.715077
0.715065
0.715054
0.715043
0.715031
0.71502
0.715008
0.714997
0.714986
0.714974
0.714963
0.714952
0.71494
0.714929
0.714917
0.714906
0.714895
0.714883
0.714872
0.714861
0.714849
0.714838
0.714826
0.714815
0.714804
0.714792
0.714781
0.71477
0.714758
0.714747
0.714735
0.714724
0.714713
0.714701
0.71469
0.714679
0.714667
0.714656
0.714644
0.714633
0.714622
0.71461
0.714599
0.714587
0.714576
0.714565
0.714553
0.714542
0.714531
0.714519
0.714508
0.714496
0.714485
0.714474
0.714462
0.714451
0.71444
0.714428
0.714417
0.714405
0.714394
0.714383
0.714371
0.71436
0.714349
0.714337
0.714326
0.714314
0.714303
0.714292
0.71273
0.712738
0.712752
0.712764
0.71277
0.712771
0.712769
0.712764
0.712759
0.712754
0.71275
0.712748
0.712749
0.712754
0.712764
0.712778
0.712799
0.712827
0.712861
0.712902
0.712951
0.713006
0.713068
0.713136
0.713208
0.713285
0.713366
0.713448
0.71353
0.713612
0.71369
0.713764
0.713832
0.713892
0.713945
0.713988
0.714021
0.714044
0.714059
0.714067
0.714069
0.714068
0.714068
0.714069
0.714074
0.714084
0.7141
0.714124
0.714156
0.714195
0.714242
0.714296
0.714358
0.714426
0.714499
0.714578
0.71466
0.714745
0.714832
0.71492
0.715007
0.715093
0.715176
0.715256
0.715331
0.7154
0.715462
0.715517
0.715565
0.715604
0.715635
0.715658
0.715674
0.715683
0.715687
0.715686
0.715681
0.715674
0.715665
0.715655
0.715644
0.715633
0.715621
0.715609
0.715598
0.715586
0.715575
0.715563
0.715552
0.715541
0.71553
0.715519
0.715508
0.715496
0.715485
0.715474
0.715463
0.715452
0.71544
0.715429
0.715418
0.715407
0.715395
0.715384
0.715373
0.715361
0.71535
0.715338
0.715327
0.715316
0.715304
0.715293
0.715282
0.71527
0.715259
0.715247
0.715236
0.715225
0.715213
0.715202
0.71519
0.715179
0.715168
0.715156
0.715145
0.715134
0.715122
0.715111
0.715099
0.715088
0.715077
0.715065
0.715054
0.715043
0.715031
0.71502
0.715008
0.714997
0.714986
0.714974
0.714963
0.714952
0.71494
0.714929
0.714917
0.714906
0.714895
0.714883
0.714872
0.714861
0.714849
0.714838
0.714826
0.714815
0.714804
0.714792
0.714781
0.71477
0.714758
0.714747
0.714735
0.714724
0.714713
0.714701
0.71469
0.714679
0.714667
0.714656
0.714644
0.714633
0.714622
0.71461
0.714599
0.714587
0.714576
0.714565
0.714553
0.714542
0.714531
0.714519
0.714508
0.714496
0.714485
0.714474
0.714462
0.714451
0.71444
0.714428
0.714417
0.714405
0.714394
0.714383
0.714371
0.71436
0.714349
0.714337
0.714326
0.714314
0.714303
0.714292
0.712833
0.712809
0.712803
0.712803
0.712804
0.712804
0.712803
0.712801
0.7128
0.712801
0.712803
0.712808
0.712816
0.712829
0.712847
0.71287
0.712899
0.712935
0.712977
0.713025
0.71308
0.713139
0.713204
0.713272
0.713343
0.713417
0.713491
0.713566
0.713638
0.713706
0.713769
0.713825
0.713875
0.713915
0.713947
0.713971
0.713987
0.713996
0.714
0.714
0.713998
0.713996
0.713996
0.713999
0.714008
0.714023
0.714044
0.714072
0.714107
0.71415
0.714201
0.714258
0.714323
0.714394
0.714471
0.714553
0.71464
0.71473
0.714822
0.714915
0.715008
0.715099
0.715188
0.715273
0.715353
0.715427
0.715494
0.715552
0.715602
0.715642
0.715672
0.715693
0.715706
0.715711
0.715711
0.715706
0.715697
0.715687
0.715674
0.715662
0.715648
0.715635
0.715622
0.715609
0.715597
0.715585
0.715573
0.715562
0.71555
0.715539
0.715528
0.715517
0.715507
0.715496
0.715485
0.715474
0.715462
0.715451
0.71544
0.715429
0.715418
0.715406
0.715395
0.715384
0.715372
0.715361
0.71535
0.715338
0.715327
0.715316
0.715304
0.715293
0.715282
0.71527
0.715259
0.715247
0.715236
0.715225
0.715213
0.715202
0.71519
0.715179
0.715168
0.715156
0.715145
0.715134
0.715122
0.715111
0.715099
0.715088
0.715077
0.715065
0.715054
0.715043
0.715031
0.71502
0.715008
0.714997
0.714986
0.714974
0.714963
0.714952
0.71494
0.714929
0.714917
0.714906
0.714895
0.714883
0.714872
0.714861
0.714849
0.714838
0.714826
0.714815
0.714804
0.714792
0.714781
0.71477
0.714758
0.714747
0.714735
0.714724
0.714713
0.714701
0.71469
0.714679
0.714667
0.714656
0.714644
0.714633
0.714622
0.71461
0.714599
0.714587
0.714576
0.714565
0.714553
0.714542
0.714531
0.714519
0.714508
0.714496
0.714485
0.714474
0.714462
0.714451
0.71444
0.714428
0.714417
0.714405
0.714394
0.714383
0.714371
0.71436
0.714349
0.714337
0.714326
0.714314
0.714303
0.714292
0.712903
0.712876
0.712862
0.712856
0.712853
0.712852
0.712852
0.712853
0.712855
0.71286
0.712869
0.712881
0.712897
0.712918
0.712944
0.712976
0.713014
0.713058
0.713107
0.713163
0.713222
0.713286
0.713351
0.713418
0.713485
0.713551
0.713616
0.713678
0.713735
0.713786
0.713831
0.713868
0.7139
0.713926
0.713945
0.713959
0.713966
0.713968
0.713966
0.713964
0.713964
0.713966
0.713972
0.71398
0.713993
0.71401
0.714032
0.714061
0.714097
0.714141
0.714192
0.71425
0.714316
0.714389
0.714467
0.714552
0.71464
0.714733
0.714827
0.714923
0.715019
0.715114
0.715205
0.715293
0.715376
0.715452
0.71552
0.71558
0.71563
0.715669
0.715699
0.715718
0.715729
0.715732
0.715729
0.715721
0.71571
0.715697
0.715682
0.715667
0.715652
0.715637
0.715623
0.715609
0.715596
0.715584
0.715572
0.71556
0.715549
0.715538
0.715527
0.715516
0.715506
0.715495
0.715484
0.715473
0.715462
0.715451
0.71544
0.715429
0.715418
0.715406
0.715395
0.715384
0.715372
0.715361
0.71535
0.715338
0.715327
0.715316
0.715304
0.715293
0.715282
0.71527
0.715259
0.715247
0.715236
0.715225
0.715213
0.715202
0.715191
0.715179
0.715168
0.715156
0.715145
0.715134
0.715122
0.715111
0.715099
0.715088
0.715077
0.715065
0.715054
0.715043
0.715031
0.71502
0.715008
0.714997
0.714986
0.714974
0.714963
0.714952
0.71494
0.714929
0.714917
0.714906
0.714895
0.714883
0.714872
0.714861
0.714849
0.714838
0.714826
0.714815
0.714804
0.714792
0.714781
0.71477
0.714758
0.714747
0.714735
0.714724
0.714713
0.714701
0.71469
0.714679
0.714667
0.714656
0.714644
0.714633
0.714622
0.71461
0.714599
0.714587
0.714576
0.714565
0.714553
0.714542
0.714531
0.714519
0.714508
0.714496
0.714485
0.714474
0.714462
0.714451
0.71444
0.714428
0.714417
0.714405
0.714394
0.714383
0.714371
0.71436
0.714349
0.714337
0.714326
0.714314
0.714303
0.714292
0.712972
0.712945
0.712928
0.712917
0.71291
0.712907
0.712906
0.712908
0.712913
0.712922
0.712935
0.712953
0.712976
0.713004
0.713038
0.713077
0.713122
0.713173
0.713229
0.713288
0.713351
0.713414
0.713477
0.713537
0.713594
0.713649
0.713702
0.713752
0.713797
0.713837
0.713869
0.713894
0.713911
0.71392
0.713925
0.713931
0.713938
0.713947
0.713954
0.71396
0.713965
0.71397
0.713975
0.713983
0.713995
0.714012
0.714035
0.714064
0.714101
0.714145
0.714197
0.714257
0.714324
0.714397
0.714477
0.714563
0.714653
0.714747
0.714843
0.71494
0.715037
0.715133
0.715226
0.715314
0.715397
0.715474
0.715542
0.715601
0.71565
0.715688
0.715717
0.715735
0.715744
0.715746
0.715741
0.715732
0.715719
0.715704
0.715688
0.715671
0.715654
0.715638
0.715623
0.715609
0.715595
0.715583
0.715571
0.715559
0.715548
0.715537
0.715526
0.715516
0.715505
0.715494
0.715484
0.715473
0.715462
0.715451
0.71544
0.715429
0.715418
0.715406
0.715395
0.715384
0.715372
0.715361
0.71535
0.715338
0.715327
0.715316
0.715304
0.715293
0.715282
0.71527
0.715259
0.715247
0.715236
0.715225
0.715213
0.715202
0.715191
0.715179
0.715168
0.715156
0.715145
0.715134
0.715122
0.715111
0.715099
0.715088
0.715077
0.715065
0.715054
0.715043
0.715031
0.71502
0.715008
0.714997
0.714986
0.714974
0.714963
0.714952
0.71494
0.714929
0.714917
0.714906
0.714895
0.714883
0.714872
0.714861
0.714849
0.714838
0.714826
0.714815
0.714804
0.714792
0.714781
0.71477
0.714758
0.714747
0.714735
0.714724
0.714713
0.714701
0.71469
0.714679
0.714667
0.714656
0.714644
0.714633
0.714622
0.71461
0.714599
0.714587
0.714576
0.714565
0.714553
0.714542
0.714531
0.714519
0.714508
0.714496
0.714485
0.714474
0.714462
0.714451
0.71444
0.714428
0.714417
0.714405
0.714394
0.714383
0.714371
0.71436
0.714349
0.714337
0.714326
0.714314
0.714303
0.714292
0.713021
0.712995
0.712976
0.712962
0.712953
0.712947
0.712946
0.712949
0.712956
0.712968
0.712985
0.713007
0.713034
0.713067
0.713105
0.713148
0.713197
0.71325
0.713308
0.713368
0.713431
0.713492
0.713551
0.713607
0.713657
0.713704
0.713746
0.713781
0.713807
0.713825
0.71384
0.713857
0.713878
0.7139
0.713919
0.713935
0.713946
0.713954
0.713958
0.713961
0.713964
0.713969
0.713976
0.713986
0.714001
0.71402
0.714044
0.714075
0.714113
0.714159
0.714211
0.714272
0.714339
0.714414
0.714494
0.714581
0.714671
0.714765
0.714862
0.71496
0.715057
0.715153
0.715245
0.715334
0.715416
0.715491
0.715558
0.715615
0.715663
0.7157
0.715727
0.715744
0.715752
0.715753
0.715747
0.715737
0.715723
0.715707
0.71569
0.715673
0.715655
0.715639
0.715623
0.715609
0.715595
0.715583
0.71557
0.715559
0.715548
0.715537
0.715526
0.715515
0.715505
0.715494
0.715483
0.715473
0.715462
0.715451
0.71544
0.715429
0.715417
0.715406
0.715395
0.715384
0.715372
0.715361
0.71535
0.715338
0.715327
0.715316
0.715304
0.715293
0.715282
0.71527
0.715259
0.715247
0.715236
0.715225
0.715213
0.715202
0.715191
0.715179
0.715168
0.715156
0.715145
0.715134
0.715122
0.715111
0.715099
0.715088
0.715077
0.715065
0.715054
0.715043
0.715031
0.71502
0.715008
0.714997
0.714986
0.714974
0.714963
0.714952
0.71494
0.714929
0.714917
0.714906
0.714895
0.714883
0.714872
0.714861
0.714849
0.714838
0.714826
0.714815
0.714804
0.714792
0.714781
0.71477
0.714758
0.714747
0.714735
0.714724
0.714713
0.714701
0.71469
0.714679
0.714667
0.714656
0.714644
0.714633
0.714622
0.71461
0.714599
0.714587
0.714576
0.714565
0.714553
0.714542
0.714531
0.714519
0.714508
0.714496
0.714485
0.714474
0.714462
0.714451
0.71444
0.714428
0.714417
0.714405
0.714394
0.714383
0.714371
0.71436
0.714349
0.714337
0.714326
0.714314
0.714303
0.714292
0.71305
0.713024
0.713004
0.712988
0.712977
0.71297
0.712969
0.712972
0.71298
0.712994
0.713013
0.713038
0.713067
0.713102
0.713143
0.713188
0.713238
0.713292
0.71335
0.713409
0.713467
0.713521
0.713567
0.713606
0.71364
0.713674
0.713711
0.713749
0.713786
0.713819
0.713848
0.713872
0.713891
0.713906
0.713918
0.713928
0.713937
0.713946
0.713952
0.713959
0.713965
0.713972
0.71398
0.713991
0.714007
0.714027
0.714052
0.714084
0.714123
0.714169
0.714223
0.714284
0.714352
0.714427
0.714508
0.714595
0.714686
0.71478
0.714876
0.714974
0.715071
0.715166
0.715258
0.715345
0.715426
0.7155
0.715565
0.715621
0.715667
0.715703
0.715729
0.715745
0.715753
0.715753
0.715747
0.715737
0.715723
0.715707
0.71569
0.715673
0.715656
0.715639
0.715624
0.715609
0.715596
0.715583
0.715571
0.715559
0.715548
0.715537
0.715526
0.715515
0.715505
0.715494
0.715483
0.715472
0.715462
0.715451
0.71544
0.715429
0.715417
0.715406
0.715395
0.715384
0.715372
0.715361
0.71535
0.715338
0.715327
0.715316
0.715304
0.715293
0.715282
0.71527
0.715259
0.715247
0.715236
0.715225
0.715213
0.715202
0.715191
0.715179
0.715168
0.715156
0.715145
0.715134
0.715122
0.715111
0.715099
0.715088
0.715077
0.715065
0.715054
0.715043
0.715031
0.71502
0.715008
0.714997
0.714986
0.714974
0.714963
0.714952
0.71494
0.714929
0.714917
0.714906
0.714895
0.714883
0.714872
0.714861
0.714849
0.714838
0.714826
0.714815
0.714804
0.714792
0.714781
0.71477
0.714758
0.714747
0.714735
0.714724
0.714713
0.714701
0.71469
0.714679
0.714667
0.714656
0.714644
0.714633
0.714622
0.71461
0.714599
0.714587
0.714576
0.714565
0.714553
0.714542
0.714531
0.714519
0.714508
0.714496
0.714485
0.714474
0.714462
0.714451
0.71444
0.714428
0.714417
0.714405
0.714394
0.714383
0.714371
0.71436
0.714349
0.714337
0.714326
0.714314
0.714303
0.714292
0.713058
0.713031
0.713008
0.71299
0.712978
0.71297
0.712968
0.712971
0.71298
0.712994
0.713012
0.713036
0.713064
0.713097
0.713135
0.713177
0.713223
0.713273
0.713326
0.713382
0.713438
0.713493
0.713544
0.713592
0.713636
0.713678
0.713719
0.713756
0.713787
0.713814
0.713837
0.713859
0.713878
0.713896
0.713912
0.713925
0.713935
0.713943
0.71395
0.713956
0.713962
0.713969
0.713979
0.713992
0.714008
0.71403
0.714057
0.71409
0.71413
0.714178
0.714232
0.714294
0.714363
0.714439
0.71452
0.714607
0.714698
0.714793
0.714889
0.714986
0.715083
0.715178
0.715269
0.715355
0.715434
0.715507
0.71557
0.715625
0.715669
0.715703
0.715728
0.715743
0.71575
0.715751
0.715745
0.715735
0.715721
0.715706
0.715689
0.715672
0.715655
0.715639
0.715624
0.715609
0.715596
0.715583
0.715571
0.715559
0.715548
0.715537
0.715526
0.715515
0.715505
0.715494
0.715483
0.715472
0.715462
0.715451
0.71544
0.715429
0.715417
0.715406
0.715395
0.715384
0.715372
0.715361
0.71535
0.715338
0.715327
0.715316
0.715304
0.715293
0.715282
0.71527
0.715259
0.715247
0.715236
0.715225
0.715213
0.715202
0.715191
0.715179
0.715168
0.715156
0.715145
0.715134
0.715122
0.715111
0.715099
0.715088
0.715077
0.715065
0.715054
0.715043
0.715031
0.71502
0.715008
0.714997
0.714986
0.714974
0.714963
0.714952
0.71494
0.714929
0.714917
0.714906
0.714895
0.714883
0.714872
0.714861
0.714849
0.714838
0.714826
0.714815
0.714804
0.714792
0.714781
0.71477
0.714758
0.714747
0.714735
0.714724
0.714713
0.714701
0.71469
0.714679
0.714667
0.714656
0.714644
0.714633
0.714622
0.71461
0.714599
0.714587
0.714576
0.714565
0.714553
0.714542
0.714531
0.714519
0.714508
0.714496
0.714485
0.714474
0.714462
0.714451
0.71444
0.714428
0.714417
0.714405
0.714394
0.714383
0.714371
0.71436
0.714349
0.714337
0.714326
0.714314
0.714303
0.714292
)
;

boundaryField
{
    inlet
    {
        type            zeroGradient;
    }
    outlet
    {