/*--------------------------------*- C++ -*----------------------------------*\
| =========                 |                                                 |
| \\      /  F ield         | OpenFOAM: The Open Source CFD Toolbox           |
|  \\    /   O peration     | Version:  4.1                                   |
|   \\  /    A nd           | Web:      www.OpenFOAM.org                      |
|    \\/     M anipulation  |                                                 |
\*---------------------------------------------------------------------------*/
FoamFile
{
    version     2.0;
    format      ascii;
    class       volVectorField;
    location    "1380";
    object      U;
}
// * * * * * * * * * * * * * * * * * * * * * * * * * * * * * * * * * * * * * //

dimensions      [0 1 -1 0 0 0 0];

internalField   nonuniform List<vector> 
1275
(
(0.0138255 9.8828e-05 0)
(0.0134126 9.11946e-05 0)
(0.0129951 8.36319e-05 0)
(0.0125744 7.62812e-05 0)
(0.0121528 6.92143e-05 0)
(0.0117314 6.2581e-05 0)
(0.0113116 5.63759e-05 0)
(0.0108944 5.0697e-05 0)
(0.0104805 4.55048e-05 0)
(0.0100708 4.08462e-05 0)
(0.00966568 3.66658e-05 0)
(0.00926576 3.29741e-05 0)
(0.00887136 2.97106e-05 0)
(0.00848297 2.6864e-05 0)
(0.00810083 2.43759e-05 0)
(0.00772538 2.2224e-05 0)
(0.00735686 2.03554e-05 0)
(0.00699567 1.87436e-05 0)
(0.00664206 1.7342e-05 0)
(0.00629641 1.61227e-05 0)
(0.00595901 1.50446e-05 0)
(0.00563022 1.40796e-05 0)
(0.00531032 1.31905e-05 0)
(0.00499965 1.23499e-05 0)
(0.00469849 1.15247e-05 0)
(0.00440712 1.06899e-05 0)
(0.00412578 9.81872e-06 0)
(0.0038547 8.89255e-06 0)
(0.00359406 7.8947e-06 0)
(0.00334401 6.8178e-06 0)
(0.00310462 5.65963e-06 0)
(0.00287597 4.42792e-06 0)
(0.00265803 3.1369e-06 0)
(0.00245077 1.80964e-06 0)
(0.00225406 4.74417e-07 0)
(0.00206778 -8.35173e-07 0)
(0.00189173 -2.08422e-06 0)
(0.00172568 -3.23776e-06 0)
(0.00156937 -4.2646e-06 0)
(0.00142254 -5.13885e-06 0)
(0.00128488 -5.84264e-06 0)
(0.00115606 -6.36678e-06 0)
(0.00103575 -6.71176e-06 0)
(0.000923607 -6.88687e-06 0)
(0.000819278 -6.90939e-06 0)
(0.000722396 -6.80252e-06 0)
(0.00063259 -6.59336e-06 0)
(0.000549489 -6.31039e-06 0)
(0.000472718 -5.98137e-06 0)
(0.00040191 -5.63127e-06 0)
(0.000336706 -5.28095e-06 0)
(0.000276756 -4.94617e-06 0)
(0.000221731 -4.63737e-06 0)
(0.000171317 -4.35989e-06 0)
(0.00012522 -4.1147e-06 0)
(8.31672e-05 -3.89931e-06 0)
(4.49085e-05 -3.709e-06 0)
(1.02133e-05 -3.53788e-06 0)
(-2.11281e-05 -3.37991e-06 0)
(-4.93055e-05 -3.22965e-06 0)
(-7.44897e-05 -3.08286e-06 0)
(-9.68332e-05 -2.93669e-06 0)
(-0.000116471 -2.78981e-06 0)
(-0.000133522 -2.64224e-06 0)
(-0.000148091 -2.49515e-06 0)
(-0.000160264 -2.35053e-06 0)
(-0.000170119 -2.21092e-06 0)
(-0.000177717 -2.07907e-06 0)
(-0.000183111 -1.95776e-06 0)
(-0.000186341 -1.84955e-06 0)
(-0.000187438 -1.7567e-06 0)
(-0.000186426 -1.68106e-06 0)
(-0.000183321 -1.62406e-06 0)
(-0.00017813 -1.58673e-06 0)
(-0.000170859 -1.56971e-06 0)
(-0.000161505 -1.57329e-06 0)
(-0.000150063 -1.59748e-06 0)
(-0.000136525 -1.64203e-06 0)
(-0.000120882 -1.70651e-06 0)
(-0.000103122 -1.79032e-06 0)
(-8.32329e-05 -1.89275e-06 0)
(-6.12033e-05 -2.01297e-06 0)
(-3.70221e-05 -2.15007e-06 0)
(-1.06802e-05 -2.30307e-06 0)
(1.783e-05 -2.47095e-06 0)
(4.85128e-05 -2.65262e-06 0)
(8.13703e-05 -2.84694e-06 0)
(0.0001164 -3.05273e-06 0)
(0.000153597 -3.26882e-06 0)
(0.000192951 -3.49391e-06 0)
(0.000234448 -3.72684e-06 0)
(0.000278069 -3.96617e-06 0)
(0.000323793 -4.21091e-06 0)
(0.000371591 -4.45936e-06 0)
(0.000421431 -4.71091e-06 0)
(0.000473279 -4.96339e-06 0)
(0.000527089 -5.21697e-06 0)
(0.000582827 -5.46851e-06 0)
(0.000640426 -5.71976e-06 0)
(0.000699867 -5.96564e-06 0)
(0.000761042 -6.21083e-06 0)
(0.000823977 -6.44653e-06 0)
(0.000888483 -6.68285e-06 0)
(0.000954694 -6.90402e-06 0)
(0.00102225 -7.12983e-06 0)
(0.00109153 -7.33212e-06 0)
(0.00116181 -7.54738e-06 0)
(0.00123398 -7.72624e-06 0)
(0.00130659 -7.93279e-06 0)
(0.00138157 -8.0834e-06 0)
(0.001456 -8.28516e-06 0)
(0.00153387 -8.40297e-06 0)
(0.00160942 -8.60518e-06 0)
(0.00169053 -8.68833e-06 0)
(0.00176616 -8.89466e-06 0)
(0.00185136 -8.95123e-06 0)
(0.00192546 -9.15594e-06 0)
(0.0020164 -9.2234e-06 0)
(0.00208648 -9.39397e-06 0)
(0.00218599 -9.59035e-06 0)
(0.00224841 -9.63671e-06 0)
(0.00236098 -1.03049e-05 0)
(0.00241088 -1.00576e-05 0)
(0.00254305 -1.22252e-05 0)
(0.00257589 -1.16397e-05 0)
(0.00273662 -1.87293e-05 0)
(0.00275518 -1.97878e-05 0)
(0.00295828 -4.74765e-05 0)
(0.0396904 0.000724783 0)
(0.0390945 0.000745253 0)
(0.0384558 0.000761001 0)
(0.0377776 0.000772749 0)
(0.0370643 0.00078078 0)
(0.0363191 0.000785792 0)
(0.0355455 0.000787969 0)
(0.0347467 0.000787864 0)
(0.0339254 0.000785615 0)
(0.0330846 0.000781622 0)
(0.0322266 0.000775982 0)
(0.031354 0.000768966 0)
(0.030469 0.000760637 0)
(0.0295739 0.000751168 0)
(0.0286708 0.000740596 0)
(0.0277616 0.000729028 0)
(0.0268485 0.000716485 0)
(0.0259333 0.000703037 0)
(0.025018 0.0006887 0)
(0.0241045 0.000673528 0)
(0.0231948 0.000657543 0)
(0.0222907 0.000640802 0)
(0.021394 0.000623342 0)
(0.0205067 0.000605228 0)
(0.0196306 0.000586521 0)
(0.0187675 0.0005673 0)
(0.0179192 0.000547645 0)
(0.0170872 0.00052765 0)
(0.0162733 0.000507406 0)
(0.0154789 0.000487013 0)
(0.0147055 0.000466567 0)
(0.0139543 0.000446161 0)
(0.0132265 0.000425879 0)
(0.0125231 0.0004058 0)
(0.0118449 0.000385986 0)
(0.0111927 0.000366491 0)
(0.0105669 0.000347354 0)
(0.00996799 0.000328607 0)
(0.00939611 0.000310273 0)
(0.00885132 0.000292372 0)
(0.00833352 0.000274921 0)
(0.00784248 0.000257943 0)
(0.00737784 0.000241464 0)
(0.00693912 0.000225516 0)
(0.00652573 0.000210136 0)
(0.00613702 0.000195362 0)
(0.00577225 0.000181232 0)
(0.00543061 0.000167778 0)
(0.00511129 0.000155025 0)
(0.00481341 0.000142986 0)
(0.00453608 0.000131662 0)
(0.00427841 0.000121041 0)
(0.00403952 0.000111099 0)
(0.00381851 0.000101804 0)
(0.00361453 9.31145e-05 0)
(0.00342673 8.49857e-05 0)
(0.00325432 7.73697e-05 0)
(0.00309649 7.02182e-05 0)
(0.00295252 6.34837e-05 0)
(0.0028217 5.71211e-05 0)
(0.00270338 5.10882e-05 0)
(0.00259692 4.5346e-05 0)
(0.00250177 3.9859e-05 0)
(0.00241737 3.45949e-05 0)
(0.00234326 2.95246e-05 0)
(0.00227897 2.46221e-05 0)
(0.00222409 1.98637e-05 0)
(0.00217827 1.52281e-05 0)
(0.00214114 1.06961e-05 0)
(0.00211242 6.2502e-06 0)
(0.00209183 1.87481e-06 0)
(0.00207911 -2.44421e-06 0)
(0.00207404 -6.71949e-06 0)
(0.00207641 -1.09622e-05 0)
(0.00208605 -1.51819e-05 0)
(0.00210279 -1.93869e-05 0)
(0.00212648 -2.35839e-05 0)
(0.00215697 -2.77784e-05 0)
(0.00219414 -3.1974e-05 0)
(0.00223787 -3.61734e-05 0)
(0.00228804 -4.03776e-05 0)
(0.00234454 -4.45864e-05 0)
(0.00240728 -4.87984e-05 0)
(0.00247614 -5.30109e-05 0)
(0.00255102 -5.72203e-05 0)
(0.00263182 -6.1422e-05 0)
(0.00271843 -6.56105e-05 0)
(0.00281075 -6.97797e-05 0)
(0.00290867 -7.39229e-05 0)
(0.00301206 -7.80328e-05 0)
(0.00312082 -8.21023e-05 0)
(0.00323482 -8.61229e-05 0)
(0.00335393 -9.00882e-05 0)
(0.00347801 -9.39883e-05 0)
(0.00360694 -9.78188e-05 0)
(0.00374058 -0.000101567 0)
(0.00387876 -0.000105235 0)
(0.00402136 -0.000108803 0)
(0.0041682 -0.000112281 0)
(0.00431916 -0.000115642 0)
(0.00447402 -0.000118913 0)
(0.00463272 -0.000122041 0)
(0.00479495 -0.000125093 0)
(0.00496077 -0.000127965 0)
(0.00512967 -0.000130798 0)
(0.00530203 -0.000133388 0)
(0.00547688 -0.000136018 0)
(0.00565525 -0.000138295 0)
(0.00583524 -0.000140759 0)
(0.00601924 -0.000142676 0)
(0.00620345 -0.000145046 0)
(0.00639292 -0.000146532 0)
(0.00658018 -0.000148922 0)
(0.0067754 -0.000149869 0)
(0.0069641 -0.000152452 0)
(0.00716603 -0.000152713 0)
(0.0073538 -0.000155713 0)
(0.00756455 -0.00015514 0)
(0.0077478 -0.000158783 0)
(0.00797121 -0.000157378 0)
(0.00814458 -0.000161727 0)
(0.00838691 -0.000160106 0)
(0.00854288 -0.000164705 0)
(0.00881331 -0.000165397 0)
(0.00894262 -0.000168839 0)
(0.00925255 -0.000180174 0)
(0.00934645 -0.000180624 0)
(0.0097055 -0.000231552 0)
(0.0612962 0.00123879 0)
(0.0608151 0.0013216 0)
(0.0602779 0.00139581 0)
(0.0596868 0.00146264 0)
(0.0590448 0.00152219 0)
(0.0583542 0.0015755 0)
(0.0576173 0.00162268 0)
(0.0568365 0.00166455 0)
(0.0560135 0.00170121 0)
(0.0551506 0.00173324 0)
(0.0542496 0.00176075 0)
(0.0533124 0.00178412 0)
(0.0523407 0.00180344 0)
(0.0513365 0.00181892 0)
(0.0503013 0.00183062 0)
(0.0492372 0.00183866 0)
(0.0481458 0.00184303 0)
(0.0470291 0.00184379 0)
(0.0458889 0.00184092 0)
(0.0447275 0.00183442 0)
(0.0435469 0.00182427 0)
(0.0423494 0.00181047 0)
(0.0411374 0.001793 0)
(0.0399134 0.00177188 0)
(0.03868 0.00174713 0)
(0.0374401 0.00171881 0)
(0.0361965 0.001687 0)
(0.0349524 0.00165182 0)
(0.0337107 0.00161341 0)
(0.0324749 0.00157198 0)
(0.0312481 0.00152775 0)
(0.0300335 0.00148099 0)
(0.0288346 0.00143198 0)
(0.0276545 0.00138106 0)
(0.0264964 0.00132857 0)
(0.0253632 0.00127488 0)
(0.0242577 0.00122034 0)
(0.0231827 0.00116532 0)
(0.0221403 0.00111018 0)
(0.0211326 0.00105525 0)
(0.0201614 0.00100084 0)
(0.0192282 0.000947226 0)
(0.0183339 0.000894647 0)
(0.0174795 0.000843311 0)
(0.0166653 0.000793383 0)
(0.0158915 0.000744997 0)
(0.0151581 0.00069825 0)
(0.0144646 0.000653208 0)
(0.0138106 0.000609915 0)
(0.0131953 0.00056839 0)
(0.0126177 0.000528636 0)
(0.0120769 0.00049064 0)
(0.0115718 0.000454378 0)
(0.0111011 0.000419819 0)
(0.0106635 0.00038692 0)
(0.0102578 0.000355633 0)
(0.00988278 0.000325904 0)
(0.00953702 0.00029767 0)
(0.00921929 0.000270862 0)
(0.00892835 0.000245408 0)
(0.00866298 0.000221228 0)
(0.00842202 0.00019824 0)
(0.00820435 0.00017636 0)
(0.00800888 0.000155502 0)
(0.00783461 0.000135584 0)
(0.00768057 0.000116522 0)
(0.00754583 9.82379e-05 0)
(0.00742955 8.06569e-05 0)
(0.00733091 6.3709e-05 0)
(0.00724915 4.73298e-05 0)
(0.00718357 3.146e-05 0)
(0.0071335 1.60462e-05 0)
(0.00709832 1.04079e-06 0)
(0.00707745 -1.35987e-05 0)
(0.00707034 -2.79094e-05 0)
(0.00707648 -4.19231e-05 0)
(0.00709539 -5.56671e-05 0)
(0.00712663 -6.9164e-05 0)
(0.00716977 -8.24321e-05 0)
(0.0072244 -9.54861e-05 0)
(0.00729013 -0.000108336 0)
(0.0073666 -0.000120991 0)
(0.00745346 -0.000133453 0)
(0.00755037 -0.000145725 0)
(0.00765699 -0.000157805 0)
(0.00777301 -0.000169691 0)
(0.00789812 -0.000181377 0)
(0.00803201 -0.000192856 0)
(0.00817437 -0.000204122 0)
(0.00832491 -0.000215163 0)
(0.00848335 -0.000225972 0)
(0.00864938 -0.000236536 0)
(0.00882272 -0.000246847 0)
(0.00900309 -0.000256893 0)
(0.0091902 -0.000266666 0)
(0.00938378 -0.00027615 0)
(0.00958354 -0.000285347 0)
(0.00978921 -0.000294232 0)
(0.0100005 -0.000302822 0)
(0.0102172 -0.000311074 0)
(0.010439 -0.000319036 0)
(0.0106656 -0.000326626 0)
(0.0108968 -0.000333954 0)
(0.0111323 -0.000340855 0)
(0.0113718 -0.000347565 0)
(0.0116154 -0.00035375 0)
(0.0118622 -0.000359882 0)
(0.012113 -0.000365316 0)
(0.0123661 -0.000370954 0)
(0.0126233 -0.000375573 0)
(0.0128815 -0.00038086 0)
(0.0131448 -0.00038456 0)
(0.0134068 -0.000389721 0)
(0.0136762 -0.000392331 0)
(0.0139403 -0.000397701 0)
(0.0142166 -0.000398972 0)
(0.0144803 -0.000405005 0)
(0.0147654 -0.000404656 0)
(0.015025 -0.000411867 0)
(0.015323 -0.000409791 0)
(0.0155724 -0.000418536 0)
(0.0158903 -0.000415438 0)
(0.0161206 -0.000425311 0)
(0.0164694 -0.000424378 0)
(0.0166674 -0.000432965 0)
(0.017063 -0.000443563 0)
(0.017208 -0.00044537 0)
(0.0176713 -0.000486346 0)
(0.0797619 0.0016305 0)
(0.0793549 0.00176732 0)
(0.0788976 0.00189328 0)
(0.0783915 0.00201011 0)
(0.0778384 0.00211787 0)
(0.0772399 0.00221797 0)
(0.0765969 0.00231053 0)
(0.075911 0.00239659 0)
(0.0751829 0.00247631 0)
(0.0744137 0.0025504 0)
(0.073604 0.00261901 0)
(0.0727548 0.00268257 0)
(0.0718666 0.00274117 0)
(0.0709402 0.00279505 0)
(0.0699761 0.00284421 0)
(0.0689751 0.00288873 0)
(0.0679377 0.00292853 0)
(0.0668647 0.00296358 0)
(0.0657568 0.00299373 0)
(0.0646151 0.00301884 0)
(0.0634403 0.00303873 0)
(0.0622337 0.00305322 0)
(0.0609964 0.00306208 0)
(0.0597299 0.00306513 0)
(0.0584359 0.00306216 0)
(0.0571161 0.00305299 0)
(0.0557725 0.00303746 0)
(0.0544074 0.00301544 0)
(0.0530233 0.00298685 0)
(0.0516229 0.00295165 0)
(0.0502093 0.00290985 0)
(0.0487854 0.00286155 0)
(0.0473549 0.00280688 0)
(0.0459213 0.00274607 0)
(0.0444884 0.00267941 0)
(0.0430602 0.00260727 0)
(0.0416406 0.00253006 0)
(0.0402339 0.00244831 0)
(0.0388441 0.00236256 0)
(0.0374753 0.00227342 0)
(0.0361315 0.00218153 0)
(0.0348166 0.00208756 0)
(0.0335342 0.00199218 0)
(0.0322877 0.00189607 0)
(0.03108 0.00179987 0)
(0.0299139 0.00170418 0)
(0.0287917 0.00160957 0)
(0.0277153 0.00151653 0)
(0.0266862 0.0014255 0)
(0.0257055 0.00133685 0)
(0.0247738 0.00125085 0)
(0.0238915 0.00116773 0)
(0.0230585 0.00108764 0)
(0.0222744 0.00101066 0)
(0.0215385 0.000936845 0)
(0.0208501 0.000866179 0)
(0.0202079 0.000798622 0)
(0.0196108 0.000734101 0)
(0.0190574 0.000672522 0)
(0.0185462 0.000613776 0)
(0.0180757 0.00055774 0)
(0.0176444 0.000504285 0)
(0.0172507 0.000453279 0)
(0.016893 0.000404586 0)
(0.0165699 0.000358073 0)
(0.0162797 0.000313605 0)
(0.0160212 0.000271053 0)
(0.0157927 0.000230293 0)
(0.0155931 0.000191201 0)
(0.0154209 0.000153664 0)
(0.0152749 0.000117572 0)
(0.015154 8.28221e-05 0)
(0.0150569 4.93197e-05 0)
(0.0149826 1.69763e-05 0)
(0.01493 -1.42887e-05 0)
(0.0148982 -4.45484e-05 0)
(0.0148863 -7.38685e-05 0)
(0.0148932 -0.000102307 0)
(0.0149182 -0.000129916 0)
(0.0149605 -0.000156738 0)
(0.0150192 -0.000182813 0)
(0.0150937 -0.000208171 0)
(0.0151832 -0.00023284 0)
(0.015287 -0.000256839 0)
(0.0154045 -0.000280185 0)
(0.015535 -0.000302891 0)
(0.015678 -0.000324965 0)
(0.0158329 -0.000346412 0)
(0.015999 -0.000367236 0)
(0.0161758 -0.000387437 0)
(0.0163629 -0.000407014 0)
(0.0165596 -0.000425965 0)
(0.0167655 -0.000444288 0)
(0.0169802 -0.000461977 0)
(0.0172031 -0.000479035 0)
(0.0174337 -0.00049545 0)
(0.0176717 -0.000511232 0)
(0.0179166 -0.000526361 0)
(0.018168 -0.000540865 0)
(0.0184255 -0.000554702 0)
(0.0186887 -0.000567939 0)
(0.0189573 -0.000580483 0)
(0.0192308 -0.000592482 0)
(0.0195089 -0.000603736 0)
(0.0197913 -0.000614553 0)
(0.0200777 -0.000624518 0)
(0.0203676 -0.000634245 0)
(0.0206612 -0.000642907 0)
(0.0209573 -0.000651692 0)
(0.021257 -0.000659003 0)
(0.0215582 -0.000667076 0)
(0.0218634 -0.000672923 0)
(0.0221682 -0.000680632 0)
(0.0224786 -0.000684801 0)
(0.0227854 -0.000692658 0)
(0.0231014 -0.000694801 0)
(0.023408 -0.000703512 0)
(0.0237312 -0.000703177 0)
(0.0240338 -0.000713592 0)
(0.0243681 -0.000710452 0)
(0.0246607 -0.000723275 0)
(0.0250131 -0.000717873 0)
(0.0252855 -0.000732853 0)
(0.0256688 -0.000728322 0)
(0.0259031 -0.000742873 0)
(0.0263388 -0.000747413 0)
(0.0265037 -0.000755969 0)
(0.0270252 -0.000783076 0)
(0.0957739 0.00199747 0)
(0.0953962 0.0021833 0)
(0.0949766 0.00235622 0)
(0.0945166 0.00251864 0)
(0.0940172 0.00267048 0)
(0.0934797 0.00281351 0)
(0.0929046 0.0029479 0)
(0.0922931 0.00307489 0)
(0.0916452 0.00319473 0)
(0.0909618 0.00330827 0)
(0.0902429 0.00341574 0)
(0.089489 0.00351768 0)
(0.0887 0.00361423 0)
(0.0878763 0.00370569 0)
(0.0870178 0.00379209 0)
(0.0861245 0.00387354 0)
(0.0851963 0.00394996 0)
(0.0842334 0.00402128 0)
(0.0832358 0.00408733 0)
(0.0822034 0.00414791 0)
(0.0811365 0.00420275 0)
(0.0800352 0.00425158 0)
(0.0788999 0.00429405 0)
(0.0777308 0.00432983 0)
(0.0765287 0.00435855 0)
(0.0752941 0.00437985 0)
(0.0740279 0.00439337 0)
(0.0727313 0.00439875 0)
(0.0714055 0.00439569 0)
(0.0700519 0.00438389 0)
(0.0686724 0.00436312 0)
(0.0672689 0.00433319 0)
(0.0658437 0.00429398 0)
(0.0643992 0.00424544 0)
(0.0629382 0.00418759 0)
(0.0614638 0.00412054 0)
(0.0599792 0.0040445 0)
(0.0584878 0.00395975 0)
(0.0569935 0.00386668 0)
(0.0555001 0.00376577 0)
(0.0540117 0.00365756 0)
(0.0525324 0.00354272 0)
(0.0510664 0.00342194 0)
(0.049618 0.00329602 0)
(0.0481915 0.00316578 0)
(0.0467909 0.00303207 0)
(0.0454203 0.00289579 0)
(0.0440835 0.0027578 0)
(0.0427841 0.00261898 0)
(0.0415253 0.00248014 0)
(0.04031 0.00234208 0)
(0.0391408 0.00220552 0)
(0.0380198 0.00207109 0)
(0.0369489 0.00193937 0)
(0.0359293 0.00181084 0)
(0.034962 0.00168588 0)
(0.0340475 0.0015648 0)
(0.033186 0.00144782 0)
(0.0323774 0.0013351 0)
(0.0316211 0.0012267 0)
(0.0309165 0.00112265 0)
(0.0302625 0.00102289 0)
(0.0296579 0.00092737 0)
(0.0291015 0.00083596 0)
(0.0285918 0.000748529 0)
(0.0281273 0.00066492 0)
(0.0277062 0.000584966 0)
(0.0273271 0.000508495 0)
(0.0269881 0.000435329 0)
(0.0266877 0.000365296 0)
(0.0264241 0.000298224 0)
(0.0261958 0.00023395 0)
(0.0260011 0.000172316 0)
(0.0258384 0.000113175 0)
(0.0257063 5.63889e-05 0)
(0.0256033 1.82756e-06 0)
(0.0255278 -5.06277e-05 0)
(0.0254787 -0.000101086 0)
(0.0254544 -0.000149647 0)
(0.0254538 -0.000196402 0)
(0.0254757 -0.000241432 0)
(0.0255189 -0.000284809 0)
(0.0255821 -0.000326598 0)
(0.0256645 -0.000366859 0)
(0.0257649 -0.00040564 0)
(0.0258823 -0.000442988 0)
(0.0260157 -0.000478941 0)
(0.0261644 -0.000513535 0)
(0.0263273 -0.000546799 0)
(0.0265036 -0.000578761 0)
(0.0266926 -0.000609444 0)
(0.0268934 -0.00063887 0)
(0.0271053 -0.000667061 0)
(0.0273276 -0.000694033 0)
(0.0275596 -0.000719807 0)
(0.0278006 -0.000744396 0)
(0.0280501 -0.000767827 0)
(0.0283073 -0.000790102 0)
(0.0285718 -0.000811266 0)
(0.0288429 -0.000831299 0)
(0.0291202 -0.000850283 0)
(0.0294031 -0.000868149 0)
(0.0296913 -0.000885056 0)
(0.0299841 -0.000900833 0)
(0.0302812 -0.000915791 0)
(0.0305822 -0.000929553 0)
(0.0308867 -0.000942728 0)
(0.0311943 -0.000954536 0)
(0.0315047 -0.000966149 0)
(0.0318176 -0.000976026 0)
(0.0321326 -0.000986384 0)
(0.0324498 -0.000994288 0)
(0.032768 -0.00100382 0)
(0.0330889 -0.0010096 0)
(0.0334088 -0.00101891 0)
(0.0337334 -0.00102226 0)
(0.034053 -0.00103219 0)
(0.0343824 -0.00103266 0)
(0.0346986 -0.00104423 0)
(0.035036 -0.00104138 0)
(0.0353429 -0.00105567 0)
(0.0356954 -0.0010495 0)
(0.0359821 -0.00106707 0)
(0.0363635 -0.00105927 0)
(0.0366101 -0.00107878 0)
(0.0370449 -0.00107523 0)
(0.0372147 -0.00109041 0)
(0.0377445 -0.00110262 0)
(0.108333 0.00234355 0)
(0.107999 0.00256629 0)
(0.107633 0.0027747 0)
(0.107237 0.00297164 0)
(0.10681 0.0031571 0)
(0.106353 0.00333307 0)
(0.105865 0.00349988 0)
(0.105349 0.0036589 0)
(0.104803 0.00381054 0)
(0.104228 0.00395573 0)
(0.103624 0.00409484 0)
(0.10299 0.00422847 0)
(0.102326 0.00435686 0)
(0.101633 0.00448036 0)
(0.100909 0.00459905 0)
(0.100155 0.00471307 0)
(0.0993702 0.00482236 0)
(0.098554 0.00492684 0)
(0.0977062 0.00502633 0)
(0.0968266 0.00512059 0)
(0.0959146 0.00520931 0)
(0.0949702 0.00529213 0)
(0.093993 0.00536863 0)
(0.0929831 0.00543836 0)
(0.0919403 0.00550084 0)
(0.0908646 0.00555555 0)
(0.0897564 0.00560197 0)
(0.088616 0.00563957 0)
(0.0874438 0.00566784 0)
(0.0862406 0.00568627 0)
(0.0850071 0.0056944 0)
(0.0837446 0.0056918 0)
(0.0824543 0.00567811 0)
(0.0811378 0.00565302 0)
(0.0797967 0.0056163 0)
(0.0784332 0.00556781 0)
(0.0770495 0.0055075 0)
(0.075648 0.00543542 0)
(0.0742316 0.00535172 0)
(0.0728032 0.00525668 0)
(0.0713659 0.00515066 0)
(0.0699233 0.00503416 0)
(0.0684788 0.00490774 0)
(0.0670361 0.00477208 0)
(0.065599 0.00462796 0)
(0.0641716 0.00447621 0)
(0.0627576 0.00431772 0)
(0.0613612 0.00415346 0)
(0.059986 0.00398439 0)
(0.0586361 0.00381151 0)
(0.0573151 0.00363583 0)
(0.0560264 0.00345831 0)
(0.0547734 0.00327993 0)
(0.0535592 0.00310158 0)
(0.0523865 0.00292412 0)
(0.0512578 0.00274834 0)
(0.0501751 0.00257495 0)
(0.0491404 0.0024046 0)
(0.0481549 0.00223782 0)
(0.0472198 0.00207509 0)
(0.0463358 0.00191678 0)
(0.0455033 0.00176319 0)
(0.0447223 0.00161455 0)
(0.0439927 0.001471 0)
(0.043314 0.00133262 0)
(0.0426855 0.00119945 0)
(0.0421062 0.00107146 0)
(0.0415751 0.000948583 0)
(0.0410908 0.000830724 0)
(0.040652 0.000717757 0)
(0.0402572 0.000609539 0)
(0.0399049 0.000505911 0)
(0.0395935 0.000406705 0)
(0.0393212 0.000311749 0)
(0.0390865 0.00022087 0)
(0.0388877 0.000133898 0)
(0.0387232 5.06653e-05 0)
(0.0385912 -2.89884e-05 0)
(0.0384902 -0.000105216 0)
(0.0384186 -0.000178164 0)
(0.0383748 -0.000247967 0)
(0.0383574 -0.000314754 0)
(0.0383649 -0.000378643 0)
(0.0383959 -0.000439745 0)
(0.038449 -0.000498161 0)
(0.038523 -0.000553986 0)
(0.0386165 -0.000607307 0)
(0.0387283 -0.000658206 0)
(0.0388573 -0.000706756 0)
(0.0390023 -0.000753029 0)
(0.0391623 -0.00079709 0)
(0.0393363 -0.000839 0)
(0.0395232 -0.00087882 0)
(0.0397222 -0.000916604 0)
(0.0399323 -0.00095241 0)
(0.0401526 -0.000986286 0)
(0.0403824 -0.00101829 0)
(0.0406209 -0.00104847 0)
(0.0408674 -0.00107688 0)
(0.0411211 -0.00110356 0)
(0.0413815 -0.0011286 0)
(0.0416478 -0.00115198 0)
(0.0419195 -0.00117387 0)
(0.042196 -0.00119414 0)
(0.0424769 -0.00121312 0)
(0.0427614 -0.00123049 0)
(0.0430496 -0.00124683 0)
(0.0433404 -0.00126145 0)
(0.0436341 -0.00127549 0)
(0.0439295 -0.0012875 0)
(0.0442273 -0.00129964 0)
(0.044526 -0.00130908 0)
(0.0448265 -0.00131988 0)
(0.0451276 -0.00132667 0)
(0.0454295 -0.00133689 0)
(0.0457325 -0.00134071 0)
(0.0460342 -0.0013514 0)
(0.0463395 -0.00135168 0)
(0.0466385 -0.00136426 0)
(0.0469483 -0.00136021 0)
(0.0472399 -0.00137627 0)
(0.04756 -0.00136741 0)
(0.0478343 -0.00138783 0)
(0.0481773 -0.00137564 0)
(0.0484142 -0.00139863 0)
(0.0488062 -0.00138778 0)
(0.0489669 -0.00140775 0)
(0.0494548 -0.00140898 0)
(0.115817 0.00262989 0)
(0.115571 0.00288065 0)
(0.115304 0.00311632 0)
(0.115019 0.00334035 0)
(0.114713 0.00355264 0)
(0.114389 0.00375529 0)
(0.114043 0.00394877 0)
(0.113677 0.00413444 0)
(0.11329 0.00431286 0)
(0.112881 0.00448496 0)
(0.11245 0.00465123 0)
(0.111996 0.00481226 0)
(0.111519 0.00496838 0)
(0.111017 0.00511995 0)
(0.11049 0.00526711 0)
(0.109938 0.00540999 0)
(0.10936 0.00554857 0)
(0.108754 0.00568278 0)
(0.108121 0.00581242 0)
(0.107459 0.00593724 0)
(0.106768 0.00605692 0)
(0.106047 0.00617105 0)
(0.105296 0.00627915 0)
(0.104513 0.00638073 0)
(0.1037 0.0064752 0)
(0.102854 0.00656196 0)
(0.101977 0.00664038 0)
(0.101067 0.00670982 0)
(0.100126 0.0067696 0)
(0.0991516 0.00681907 0)
(0.098146 0.0068576 0)
(0.0971091 0.00688458 0)
(0.0960415 0.00689943 0)
(0.0949443 0.00690164 0)
(0.0938185 0.00689076 0)
(0.0926654 0.00686641 0)
(0.0914865 0.0068283 0)
(0.0902836 0.00677625 0)
(0.0890587 0.00671018 0)
(0.0878141 0.00663011 0)
(0.0865522 0.00653619 0)
(0.0852756 0.00642871 0)
(0.0839872 0.00630804 0)
(0.08269 0.00617471 0)
(0.0813873 0.00602933 0)
(0.0800824 0.00587265 0)
(0.0787787 0.00570548 0)
(0.0774797 0.00552876 0)
(0.076189 0.00534346 0)
(0.0749102 0.00515064 0)
(0.0736469 0.00495137 0)
(0.0724024 0.00474676 0)
(0.0711803 0.00453793 0)
(0.0699838 0.00432598 0)
(0.0688159 0.00411197 0)
(0.0676797 0.00389696 0)
(0.0665777 0.00368193 0)
(0.0655125 0.00346779 0)
(0.0644862 0.0032554 0)
(0.0635007 0.00304554 0)
(0.0625578 0.00283891 0)
(0.0616586 0.0026361 0)
(0.0608043 0.00243766 0)
(0.0599956 0.00224403 0)
(0.0592331 0.00205557 0)
(0.0585169 0.00187257 0)
(0.057847 0.00169526 0)
(0.0572231 0.0015238 0)
(0.0566448 0.00135829 0)
(0.0561114 0.00119876 0)
(0.0556221 0.00104523 0)
(0.0551757 0.000897662 0)
(0.0547713 0.000755981 0)
(0.0544075 0.000620096 0)
(0.0540831 0.00048989 0)
(0.0537965 0.000365229 0)
(0.0535465 0.000245969 0)
(0.0533314 0.000131956 0)
(0.0531497 2.30325e-05 0)
(0.0529999 -8.09628e-05 0)
(0.0528805 -0.00018019 0)
(0.0527899 -0.000274809 0)
(0.0527267 -0.000364975 0)
(0.0526892 -0.000450841 0)
(0.0526761 -0.000532553 0)
(0.052686 -0.000610253 0)
(0.0527174 -0.000684078 0)
(0.052769 -0.00075416 0)
(0.0528394 -0.000820625 0)
(0.0529275 -0.000883594 0)
(0.053032 -0.000943184 0)
(0.0531518 -0.000999508 0)
(0.0532856 -0.00105268 0)
(0.0534326 -0.00110279 0)
(0.0535915 -0.00114996 0)
(0.0537615 -0.00119428 0)
(0.0539417 -0.00123585 0)
(0.054131 -0.00127476 0)
(0.0543288 -0.00131112 0)
(0.0545342 -0.00134501 0)
(0.0547465 -0.00137655 0)
(0.0549649 -0.00140578 0)
(0.0551889 -0.00143288 0)
(0.0554177 -0.00145782 0)
(0.055651 -0.00148087 0)
(0.0558877 -0.00150185 0)
(0.056128 -0.00152126 0)
(0.0563708 -0.00153861 0)
(0.0566163 -0.00155482 0)
(0.0568632 -0.00156884 0)
(0.0571125 -0.00158236 0)
(0.0573619 -0.00159325 0)
(0.0576137 -0.00160469 0)
(0.0578645 -0.00161255 0)
(0.0581176 -0.0016227 0)
(0.0583688 -0.00162745 0)
(0.058622 -0.00163731 0)
(0.0588735 -0.00163863 0)
(0.0591251 -0.00164952 0)
(0.0593781 -0.00164684 0)
(0.0596243 -0.00166031 0)
(0.0598833 -0.00165293 0)
(0.0601156 -0.00167056 0)
(0.0603918 -0.00165784 0)
(0.0605934 -0.00168087 0)
(0.0609083 -0.00166488 0)
(0.0610436 -0.00168702 0)
(0.0614445 -0.00167879 0)
(0.116604 0.002819 0)
(0.116495 0.00308014 0)
(0.116379 0.00332727 0)
(0.116261 0.00356316 0)
(0.116136 0.00378837 0)
(0.116004 0.00400453 0)
(0.115862 0.00421252 0)
(0.115712 0.00441344 0)
(0.11555 0.00460811 0)
(0.115377 0.00479729 0)
(0.115189 0.00498164 0)
(0.114988 0.00516168 0)
(0.114771 0.00533783 0)
(0.114537 0.00551039 0)
(0.114285 0.00567958 0)
(0.114014 0.00584549 0)
(0.113723 0.00600814 0)
(0.11341 0.00616741 0)
(0.113075 0.00632312 0)
(0.112715 0.00647499 0)
(0.112331 0.00662264 0)
(0.111921 0.00676564 0)
(0.111483 0.00690346 0)
(0.111018 0.00703551 0)
(0.110523 0.00716113 0)
(0.109998 0.00727963 0)
(0.109443 0.00739025 0)
(0.108856 0.00749222 0)
(0.108236 0.00758473 0)
(0.107585 0.00766696 0)
(0.1069 0.00773811 0)
(0.106183 0.00779737 0)
(0.105433 0.00784399 0)
(0.10465 0.00787724 0)
(0.103836 0.00789645 0)
(0.102989 0.00790104 0)
(0.102113 0.00789049 0)
(0.101207 0.00786439 0)
(0.100273 0.00782245 0)
(0.0993128 0.00776447 0)
(0.0983281 0.0076904 0)
(0.097321 0.00760031 0)
(0.0962937 0.0074944 0)
(0.0952488 0.00737301 0)
(0.0941888 0.00723662 0)
(0.0931167 0.00708581 0)
(0.0920353 0.00692131 0)
(0.0909477 0.00674394 0)
(0.0898572 0.00655463 0)
(0.0887669 0.00635439 0)
(0.0876801 0.00614431 0)
(0.0866 0.00592552 0)
(0.0855299 0.00569921 0)
(0.084473 0.00546657 0)
(0.0834323 0.00522881 0)
(0.0824107 0.00498714 0)
(0.0814111 0.00474272 0)
(0.0804361 0.00449669 0)
(0.0794881 0.00425013 0)
(0.0785694 0.00400407 0)
(0.0776819 0.00375946 0)
(0.0768275 0.00351718 0)
(0.0760076 0.00327802 0)
(0.0752236 0.0030427 0)
(0.0744765 0.00281184 0)
(0.0737671 0.002586 0)
(0.0730959 0.00236563 0)
(0.0724633 0.00215111 0)
(0.0718693 0.00194278 0)
(0.071314 0.00174086 0)
(0.0707969 0.00154554 0)
(0.0703178 0.00135695 0)
(0.0698759 0.00117516 0)
(0.0694705 0.00100019 0)
(0.0691007 0.000832039 0)
(0.0687657 0.000670662 0)
(0.0684642 0.000515985 0)
(0.0681951 0.000367913 0)
(0.0679574 0.000226329 0)
(0.0677496 9.1102e-05 0)
(0.0675705 -3.791e-05 0)
(0.0674189 -0.000160859 0)
(0.0672933 -0.000277904 0)
(0.0671924 -0.000389208 0)
(0.067115 -0.000494935 0)
(0.0670597 -0.000595252 0)
(0.0670252 -0.000690324 0)
(0.0670103 -0.000780318 0)
(0.0670137 -0.000865397 0)
(0.0670342 -0.000945723 0)
(0.0670706 -0.00102145 0)
(0.0671218 -0.00109275 0)
(0.0671867 -0.00115976 0)
(0.0672643 -0.00122265 0)
(0.0673535 -0.00128156 0)
(0.0674534 -0.00133663 0)
(0.0675631 -0.00138803 0)
(0.0676816 -0.00143587 0)
(0.0678082 -0.00148033 0)
(0.067942 -0.00152152 0)
(0.0680824 -0.0015596 0)
(0.0682286 -0.00159468 0)
(0.06838 -0.00162695 0)
(0.0685359 -0.00165645 0)
(0.0686958 -0.00168346 0)
(0.0688591 -0.0017079 0)
(0.0690254 -0.00173022 0)
(0.069194 -0.00175007 0)
(0.069365 -0.0017683 0)
(0.0695371 -0.00178399 0)
(0.0697113 -0.00179878 0)
(0.0698854 -0.00181065 0)
(0.0700615 -0.00182275 0)
(0.0702363 -0.00183101 0)
(0.0704135 -0.00184137 0)
(0.0705879 -0.00184594 0)
(0.0707654 -0.00185583 0)
(0.0709387 -0.00185625 0)
(0.0711155 -0.00186744 0)
(0.0712878 -0.00186261 0)
(0.0714618 -0.00187752 0)
(0.0716353 -0.0018658 0)
(0.0718016 -0.00188646 0)
(0.0719843 -0.00186916 0)
(0.0721286 -0.00189203 0)
(0.0723376 -0.00187218 0)
(0.0724314 -0.00189463 0)
(0.0727071 -0.00188018 0)
(0.109728 0.0028476 0)
(0.109802 0.00310445 0)
(0.109886 0.00334877 0)
(0.109983 0.00358337 0)
(0.110087 0.00380921 0)
(0.110198 0.00402741 0)
(0.110312 0.0042392 0)
(0.11043 0.00444531 0)
(0.110548 0.00464675 0)
(0.110665 0.00484408 0)
(0.110779 0.00503805 0)
(0.110889 0.00522905 0)
(0.110992 0.00541757 0)
(0.111088 0.00560385 0)
(0.111174 0.00578812 0)
(0.11125 0.00597045 0)
(0.111313 0.00615087 0)
(0.111361 0.00632924 0)
(0.111395 0.0065054 0)
(0.111411 0.00667904 0)
(0.111408 0.00684978 0)
(0.111385 0.00701715 0)
(0.11134 0.0071806 0)
(0.111272 0.0073395 0)
(0.111179 0.00749315 0)
(0.111059 0.00764076 0)
(0.110912 0.00778152 0)
(0.110736 0.00791455 0)
(0.11053 0.00803893 0)
(0.110292 0.0081537 0)
(0.110022 0.00825793 0)
(0.10972 0.00835064 0)
(0.109383 0.00843089 0)
(0.109012 0.00849775 0)
(0.108607 0.00855036 0)
(0.108167 0.00858789 0)
(0.107692 0.00860961 0)
(0.107184 0.00861487 0)
(0.106642 0.00860311 0)
(0.106067 0.00857391 0)
(0.105461 0.00852697 0)
(0.104825 0.00846212 0)
(0.10416 0.00837935 0)
(0.103469 0.00827878 0)
(0.102753 0.00816069 0)
(0.102015 0.00802552 0)
(0.101257 0.00787383 0)
(0.100481 0.00770633 0)
(0.0996911 0.00752386 0)
(0.0988894 0.00732738 0)
(0.0980788 0.00711792 0)
(0.0972625 0.00689664 0)
(0.0964433 0.00666474 0)
(0.0956242 0.00642348 0)
(0.0948082 0.00617414 0)
(0.0939982 0.00591803 0)
(0.0931969 0.00565646 0)
(0.092407 0.00539071 0)
(0.091631 0.00512205 0)
(0.0908712 0.00485167 0)
(0.0901299 0.00458074 0)
(0.089409 0.00431035 0)
(0.0887104 0.0040415 0)
(0.0880357 0.00377515 0)
(0.0873861 0.00351214 0)
(0.0867629 0.00325324 0)
(0.086167 0.00299914 0)
(0.0855992 0.00275044 0)
(0.0850601 0.00250766 0)
(0.0845499 0.00227124 0)
(0.0840689 0.00204154 0)
(0.0836171 0.00181885 0)
(0.0831943 0.0016034 0)
(0.0828002 0.00139537 0)
(0.0824343 0.00119486 0)
(0.0820962 0.00100194 0)
(0.0817852 0.000816631 0)
(0.0815004 0.000638919 0)
(0.0812412 0.000468753 0)
(0.0810066 0.000306054 0)
(0.0807957 0.000150721 0)
(0.0806075 2.63171e-06 0)
(0.0804409 -0.000138354 0)
(0.080295 -0.000272388 0)
(0.0801686 -0.000399634 0)
(0.0800608 -0.000520265 0)
(0.0799705 -0.000634459 0)
(0.0798966 -0.0007424 0)
(0.0798381 -0.000844274 0)
(0.079794 -0.000940273 0)
(0.0797634 -0.00103059 0)
(0.0797452 -0.0011154 0)
(0.0797385 -0.00119492 0)
(0.0797424 -0.00126932 0)
(0.079756 -0.00133881 0)
(0.0797786 -0.00140355 0)
(0.0798094 -0.00146376 0)
(0.0798474 -0.0015196 0)
(0.0798922 -0.00157128 0)
(0.0799429 -0.00161895 0)
(0.0799989 -0.00166282 0)
(0.0800597 -0.00170304 0)