/*--------------------------------*- C++ -*----------------------------------*\
| =========                 |                                                 |
| \\      /  F ield         | OpenFOAM: The Open Source CFD Toolbox           |
|  \\    /   O peration     | Version:  4.1                                   |
|   \\  /    A nd           | Web:      www.OpenFOAM.org                      |
|    \\/     M anipulation  |                                                 |
\*---------------------------------------------------------------------------*/
FoamFile
{
    version     2.0;
    format      ascii;
    class       volScalarField;
    location    "749";
    object      p;
}
// * * * * * * * * * * * * * * * * * * * * * * * * * * * * * * * * * * * * * //

dimensions      [1 -1 -2 0 0 0 0];

internalField   nonuniform List<scalar> 
3264
(
0.712509
0.712507
0.712506
0.712506
0.712505
0.712506
0.712507
0.712509
0.712512
0.712515
0.71252
0.712525
0.712531
0.712538
0.712547
0.712556
0.712566
0.712578
0.71259
0.712604
0.712618
0.712634
0.712651
0.712669
0.712688
0.712708
0.712729
0.712751
0.712774
0.712799
0.712825
0.712852
0.71288
0.712909
0.712939
0.712971
0.713003
0.713037
0.713072
0.713109
0.713146
0.713184
0.713224
0.713264
0.713306
0.713348
0.713392
0.713436
0.71348
0.713526
0.713572
0.713618
0.713665
0.713711
0.713758
0.713805
0.713851
0.713897
0.713942
0.713986
0.71403
0.714072
0.714114
0.714154
0.714193
0.71423
0.714266
0.7143
0.714333
0.714363
0.714392
0.714419
0.714445
0.714469
0.714491
0.714511
0.71453
0.714547
0.714562
0.714577
0.714589
0.714601
0.714612
0.714621
0.71463
0.714637
0.714644
0.71465
0.714656
0.71466
0.714665
0.714669
0.714672
0.714675
0.714678
0.714681
0.714683
0.714685
0.714687
0.714689
0.71469
0.714692
0.714693
0.714694
0.714696
0.714697
0.714698
0.714699
0.714699
0.7147
0.714701
0.714701
0.714702
0.714702
0.714702
0.714702
0.714702
0.714702
0.714701
0.714701
0.7147
0.7147
0.714699
0.714698
0.714697
0.714695
0.714694
0.714692
0.714691
0.714689
0.714687
0.714684
0.714682
0.71468
0.714677
0.714674
0.714671
0.714668
0.714665
0.714662
0.714658
0.714655
0.714651
0.714647
0.714643
0.714639
0.714635
0.71463
0.714626
0.714621
0.714616
0.714612
0.714607
0.714602
0.714596
0.714591
0.714586
0.71458
0.714575
0.714569
0.714563
0.714557
0.714551
0.714545
0.714539
0.714533
0.714527
0.714521
0.714514
0.714508
0.714501
0.714494
0.714488
0.714481
0.714474
0.714467
0.71446
0.714453
0.714446
0.714439
0.714432
0.714425
0.714418
0.71441
0.714403
0.714396
0.714388
0.714381
0.714373
0.714366
0.714358
0.714351
0.714343
0.714335
0.714328
0.71432
0.714313
0.714305
0.714297
0.71429
0.71251
0.712509
0.712508
0.712508
0.712508
0.712509
0.71251
0.712511
0.712514
0.712517
0.712521
0.712527
0.712533
0.71254
0.712548
0.712557
0.712568
0.712579
0.712591
0.712605
0.712619
0.712635
0.712651
0.712669
0.712688
0.712708
0.712729
0.712751
0.712775
0.712799
0.712825
0.712852
0.712879
0.712909
0.712939
0.71297
0.713003
0.713037
0.713071
0.713107
0.713145
0.713183
0.713222
0.713263
0.713304
0.713346
0.713389
0.713433
0.713478
0.713523
0.713569
0.713615
0.713661
0.713708
0.713755
0.713801
0.713847
0.713893
0.713938
0.713983
0.714026
0.714069
0.71411
0.71415
0.714189
0.714226
0.714262
0.714296
0.714329
0.71436
0.714389
0.714416
0.714441
0.714465
0.714487
0.714508
0.714526
0.714544
0.714559
0.714574
0.714587
0.714599
0.714609
0.714619
0.714627
0.714635
0.714642
0.714648
0.714654
0.714659
0.714663
0.714667
0.714671
0.714674
0.714677
0.71468
0.714682
0.714684
0.714686
0.714688
0.71469
0.714692
0.714693
0.714694
0.714696
0.714697
0.714698
0.714699
0.714699
0.7147
0.714701
0.714701
0.714702
0.714702
0.714702
0.714702
0.714702
0.714702
0.714702
0.714701
0.7147
0.7147
0.714699
0.714698
0.714697
0.714695
0.714694
0.714692
0.714691
0.714689
0.714687
0.714685
0.714682
0.71468
0.714677
0.714674
0.714671
0.714668
0.714665
0.714662
0.714658
0.714655
0.714651
0.714647
0.714643
0.714639
0.714635
0.71463
0.714626
0.714621
0.714616
0.714612
0.714607
0.714602
0.714596
0.714591
0.714586
0.71458
0.714575
0.714569
0.714563
0.714557
0.714551
0.714545
0.714539
0.714533
0.714527
0.714521
0.714514
0.714508
0.714501
0.714494
0.714488
0.714481
0.714474
0.714467
0.71446
0.714453
0.714446
0.714439
0.714432
0.714425
0.714418
0.71441
0.714403
0.714396
0.714388
0.714381
0.714373
0.714366
0.714358
0.714351
0.714343
0.714335
0.714328
0.71432
0.714313
0.714305
0.714297
0.71429
0.712512
0.71251
0.712509
0.712508
0.712508
0.712508
0.712509
0.71251
0.712513
0.712516
0.71252
0.712525
0.712532
0.712539
0.712547
0.712556
0.712566
0.712578
0.71259
0.712603
0.712618
0.712633
0.71265
0.712668
0.712687
0.712707
0.712728
0.71275
0.712773
0.712798
0.712823
0.71285
0.712878
0.712907
0.712937
0.712968
0.713001
0.713035
0.713069
0.713105
0.713142
0.713181
0.71322
0.71326
0.713302
0.713344
0.713387
0.713431
0.713475
0.713521
0.713566
0.713612
0.713659
0.713705
0.713752
0.713798
0.713845
0.71389
0.713936
0.71398
0.714024
0.714066
0.714108
0.714148
0.714187
0.714224
0.71426
0.714294
0.714326
0.714357
0.714386
0.714413
0.714439
0.714463
0.714485
0.714505
0.714524
0.714541
0.714557
0.714571
0.714584
0.714596
0.714607
0.714617
0.714625
0.714633
0.71464
0.714646
0.714652
0.714657
0.714662
0.714666
0.71467
0.714673
0.714676
0.714679
0.714681
0.714684
0.714686
0.714688
0.714689
0.714691
0.714693
0.714694
0.714695
0.714696
0.714698
0.714698
0.714699
0.7147
0.714701
0.714701
0.714702
0.714702
0.714702
0.714702
0.714702
0.714702
0.714702
0.714701
0.714701
0.7147
0.714699
0.714698
0.714697
0.714696
0.714694
0.714693
0.714691
0.714689
0.714687
0.714685
0.714682
0.71468
0.714677
0.714675
0.714672
0.714669
0.714665
0.714662
0.714659
0.714655
0.714651
0.714647
0.714643
0.714639
0.714635
0.714631
0.714626
0.714621
0.714617
0.714612
0.714607
0.714602
0.714597
0.714591
0.714586
0.71458
0.714575
0.714569
0.714563
0.714558
0.714552
0.714546
0.714539
0.714533
0.714527
0.714521
0.714514
0.714508
0.714501
0.714495
0.714488
0.714481
0.714474
0.714467
0.71446
0.714453
0.714446
0.714439
0.714432
0.714425
0.714418
0.71441
0.714403
0.714396
0.714388
0.714381
0.714373
0.714366
0.714358
0.714351
0.714343
0.714335
0.714328
0.71432
0.714312
0.714305
0.714297
0.714289
0.712506
0.712506
0.712504
0.712505
0.712505
0.712506
0.712506
0.712508
0.712511
0.712514
0.712518
0.712523
0.712529
0.712537
0.712545
0.712554
0.712564
0.712576
0.712588
0.712601
0.712616
0.712631
0.712648
0.712666
0.712685
0.712705
0.712726
0.712748
0.712771
0.712795
0.712821
0.712848
0.712875
0.712904
0.712934
0.712966
0.712998
0.713032
0.713067
0.713102
0.713139
0.713178
0.713217
0.713257
0.713298
0.71334
0.713383
0.713427
0.713472
0.713517
0.713563
0.713609
0.713655
0.713701
0.713748
0.713794
0.71384
0.713886
0.713931
0.713975
0.714019
0.714061
0.714103
0.714143
0.714181
0.714219
0.714254
0.714288
0.714321
0.714351
0.71438
0.714407
0.714433
0.714457
0.714479
0.714499
0.714518
0.714535
0.714551
0.714565
0.714578
0.71459
0.714601
0.714611
0.71462
0.714628
0.714635
0.714642
0.714647
0.714653
0.714658
0.714662
0.714666
0.714669
0.714673
0.714676
0.714678
0.714681
0.714683
0.714686
0.714688
0.714689
0.714691
0.714693
0.714694
0.714696
0.714697
0.714698
0.714699
0.7147
0.714701
0.714701
0.714702
0.714702
0.714702
0.714703
0.714703
0.714702
0.714702
0.714702
0.714701
0.7147
0.7147
0.714699
0.714697
0.714696
0.714695
0.714693
0.714691
0.71469
0.714687
0.714685
0.714683
0.71468
0.714678
0.714675
0.714672
0.714669
0.714666
0.714662
0.714659
0.714655
0.714652
0.714648
0.714644
0.714639
0.714635
0.714631
0.714626
0.714622
0.714617
0.714612
0.714607
0.714602
0.714597
0.714591
0.714586
0.714581
0.714575
0.714569
0.714564
0.714558
0.714552
0.714546
0.71454
0.714533
0.714527
0.714521
0.714514
0.714508
0.714501
0.714495
0.714488
0.714481
0.714474
0.714468
0.714461
0.714454
0.714447
0.714439
0.714432
0.714425
0.714418
0.714411
0.714403
0.714396
0.714388
0.714381
0.714373
0.714366
0.714358
0.714351
0.714343
0.714335
0.714328
0.71432
0.714312
0.714304
0.714297
0.714289
0.712503
0.712503
0.712501
0.712501
0.7125
0.7125
0.712501
0.712503
0.712506
0.712509
0.712514
0.712519
0.712526
0.712533
0.712542
0.712551
0.712561
0.712573
0.712585
0.712599
0.712613
0.712629
0.712646
0.712663
0.712682
0.712702
0.712723
0.712746
0.712769
0.712793
0.712819
0.712845
0.712873
0.712902
0.712932
0.712963
0.712996
0.713029
0.713064
0.7131
0.713137
0.713175
0.713214
0.713254
0.713296
0.713338
0.713381
0.713424
0.713469
0.713514
0.71356
0.713606
0.713652
0.713698
0.713744
0.713791
0.713836
0.713882
0.713926
0.713971
0.714014
0.714056
0.714097
0.714136
0.714175
0.714211
0.714247
0.71428
0.714312
0.714343
0.714371
0.714398
0.714423
0.714447
0.714468
0.714488
0.714507
0.714524
0.71454
0.714555
0.714568
0.71458
0.714591
0.714601
0.71461
0.714618
0.714626
0.714633
0.714639
0.714644
0.71465
0.714654
0.714659
0.714663
0.714667
0.71467
0.714673
0.714676
0.714679
0.714682
0.714684
0.714686
0.714688
0.71469
0.714692
0.714694
0.714695
0.714697
0.714698
0.714699
0.7147
0.714701
0.714701
0.714702
0.714702
0.714703
0.714703
0.714703
0.714703
0.714702
0.714702
0.714701
0.7147
0.714699
0.714698
0.714697
0.714695
0.714694
0.714692
0.71469
0.714688
0.714686
0.714684
0.714681
0.714678
0.714676
0.714673
0.71467
0.714666
0.714663
0.714659
0.714656
0.714652
0.714648
0.714644
0.71464
0.714636
0.714631
0.714627
0.714622
0.714617
0.714612
0.714607
0.714602
0.714597
0.714592
0.714586
0.714581
0.714575
0.71457
0.714564
0.714558
0.714552
0.714546
0.71454
0.714534
0.714527
0.714521
0.714515
0.714508
0.714502
0.714495
0.714488
0.714481
0.714475
0.714468
0.714461
0.714454
0.714447
0.71444
0.714432
0.714425
0.714418
0.714411
0.714403
0.714396
0.714389
0.714381
0.714374
0.714366
0.714358
0.714351
0.714343
0.714335
0.714328
0.71432
0.714312
0.714304
0.714296
0.714288
0.712472
0.712486
0.712486
0.712492
0.712493
0.712496
0.712497
0.7125
0.712503
0.712507
0.712512
0.712517
0.712524
0.712531
0.71254
0.712549
0.71256
0.712571
0.712584
0.712597
0.712612
0.712628
0.712644
0.712662
0.712681
0.712701
0.712722
0.712744
0.712768
0.712792
0.712818
0.712844
0.712872
0.712901
0.712931
0.712963
0.712995
0.713029
0.713063
0.713099
0.713136
0.713174
0.713214
0.713254
0.713295
0.713337
0.71338
0.713423
0.713468
0.713513
0.713558
0.713604
0.713649
0.713695
0.713741
0.713787
0.713832
0.713877
0.713921
0.713965
0.714007
0.714048
0.714089
0.714127
0.714165
0.714201
0.714235
0.714268
0.714299
0.714329
0.714357
0.714383
0.714408
0.714431
0.714452
0.714472
0.71449
0.714507
0.714523
0.714537
0.71455
0.714563
0.714574
0.714584
0.714594
0.714602
0.71461
0.714618
0.714625
0.714631
0.714637
0.714642
0.714648
0.714652
0.714657
0.714661
0.714665
0.714668
0.714672
0.714675
0.714678
0.714681
0.714684
0.714686
0.714688
0.71469
0.714692
0.714694
0.714696
0.714697
0.714699
0.7147
0.714701
0.714701
0.714702
0.714703
0.714703
0.714703
0.714703
0.714703
0.714702
0.714702
0.714701
0.7147
0.714699
0.714698
0.714696
0.714695
0.714693
0.714691
0.714689
0.714687
0.714685
0.714682
0.714679
0.714677
0.714674
0.71467
0.714667
0.714664
0.71466
0.714657
0.714653
0.714649
0.714645
0.714641
0.714636
0.714632
0.714627
0.714623
0.714618
0.714613
0.714608
0.714603
0.714598
0.714592
0.714587
0.714581
0.714576
0.71457
0.714564
0.714558
0.714552
0.714546
0.71454
0.714534
0.714528
0.714521
0.714515
0.714508
0.714502
0.714495
0.714489
0.714482
0.714475
0.714468
0.714461
0.714454
0.714447
0.71444
0.714433
0.714426
0.714418
0.714411
0.714404
0.714396
0.714389
0.714381
0.714374
0.714366
0.714359
0.714351
0.714343
0.714336
0.714328
0.71432
0.714312
0.714304
0.714296
0.714288
0.712471
0.712487
0.712486
0.712489
0.712489
0.712492
0.712494
0.712497
0.712501
0.712505
0.71251
0.712516
0.712523
0.712531
0.712539
0.712549
0.712559
0.712571
0.712584
0.712597
0.712612
0.712628
0.712645
0.712663
0.712682
0.712702
0.712723
0.712745
0.712769
0.712793
0.712819
0.712846
0.712874
0.712903
0.712933
0.712964
0.712997
0.713031
0.713066
0.713102
0.713139
0.713177
0.713216
0.713256
0.713297
0.713339
0.713382
0.713426
0.71347
0.713514
0.713559
0.713604
0.71365
0.713695
0.71374
0.713785
0.71383
0.713873
0.713917
0.713959
0.714
0.71404
0.714079
0.714117
0.714153
0.714188
0.714221
0.714253
0.714283
0.714311
0.714338
0.714363
0.714387
0.714409
0.71443
0.714449
0.714467
0.714484
0.714499
0.714513
0.714527
0.714539
0.714551
0.714562
0.714572
0.714581
0.71459
0.714598
0.714606
0.714613
0.71462
0.714626
0.714632
0.714638
0.714643
0.714648
0.714653
0.714658
0.714662
0.714666
0.71467
0.714674
0.714677
0.71468
0.714683
0.714686
0.714689
0.714691
0.714693
0.714695
0.714697
0.714698
0.7147
0.714701
0.714702
0.714702
0.714703
0.714703
0.714703
0.714703
0.714703
0.714702
0.714702
0.714701
0.7147
0.714699
0.714698
0.714696
0.714694
0.714692
0.71469
0.714688
0.714686
0.714683
0.714681
0.714678
0.714675
0.714672
0.714668
0.714665
0.714661
0.714658
0.714654
0.71465
0.714646
0.714641
0.714637
0.714633
0.714628
0.714623
0.714618
0.714614
0.714609
0.714603
0.714598
0.714593
0.714587
0.714582
0.714576
0.71457
0.714565
0.714559
0.714553
0.714547
0.714541
0.714534
0.714528
0.714522
0.714515
0.714509
0.714502
0.714496
0.714489
0.714482
0.714475
0.714468
0.714462
0.714455
0.714447
0.71444
0.714433
0.714426
0.714419
0.714411
0.714404
0.714397
0.714389
0.714382
0.714374
0.714367
0.714359
0.714351
0.714344
0.714336
0.714328
0.71432
0.714312
0.714304
0.714296
0.714287
0.712317
0.712455
0.712472
0.712493
0.712496
0.712499
0.712501
0.712503
0.712506
0.71251
0.712514
0.71252
0.712526
0.712534
0.712542
0.712552
0.712562
0.712574
0.712586
0.7126
0.712615
0.712631
0.712648
0.712666
0.712685
0.712705
0.712727
0.712749
0.712773
0.712798
0.712823
0.712851
0.712879
0.712908
0.712939
0.71297
0.713003
0.713037
0.713072
0.713109
0.713146
0.713184
0.713224
0.713264
0.713305
0.713347
0.713389
0.713432
0.713476
0.71352
0.713565
0.713609
0.713654
0.713698
0.713742
0.713786
0.713829
0.713871
0.713913
0.713954
0.713993
0.714032
0.714069
0.714105
0.714139
0.714172
0.714204
0.714233
0.714262
0.714289
0.714314
0.714338
0.714361
0.714382
0.714402
0.714421
0.714438
0.714455
0.71447
0.714485
0.714498
0.714511
0.714523
0.714535
0.714545
0.714556
0.714565
0.714575
0.714583
0.714592
0.714599
0.714607
0.714614
0.714621
0.714628
0.714634
0.71464
0.714645
0.714651
0.714656
0.714661
0.714665
0.714669
0.714673
0.714677
0.714681
0.714684
0.714687
0.71469
0.714692
0.714694
0.714696
0.714698
0.7147
0.714701
0.714702
0.714703
0.714703
0.714704
0.714704
0.714704
0.714703
0.714703
0.714702
0.714701
0.7147
0.714699
0.714697
0.714696
0.714694
0.714692
0.71469
0.714687
0.714685
0.714682
0.714679
0.714676
0.714673
0.714669
0.714666
0.714662
0.714659
0.714655
0.714651
0.714647
0.714642
0.714638
0.714633
0.714629
0.714624
0.714619
0.714614
0.714609
0.714604
0.714599
0.714593
0.714588
0.714582
0.714577
0.714571
0.714565
0.714559
0.714553
0.714547
0.714541
0.714535
0.714529
0.714522
0.714516
0.714509
0.714503
0.714496
0.714489
0.714483
0.714476
0.714469
0.714462
0.714455
0.714448
0.714441
0.714434
0.714426
0.714419
0.714412
0.714405
0.714397
0.71439
0.714382
0.714375
0.714367
0.714359
0.714352
0.714344
0.714336
0.714328
0.71432
0.714312
0.714304
0.714296
0.714288
0.713039
0.712983
0.71292
0.712854
0.712781
0.712704
0.712617
0.7125
0.713045
0.712999
0.712936
0.712867
0.712794
0.712717
0.712627
0.712531
0.713049
0.71301
0.712952
0.712887
0.712818
0.712746
0.712676
0.712606
0.713058
0.713024
0.712972
0.712911
0.712847
0.712782
0.712719
0.712661
0.713071
0.713039
0.71299
0.712933
0.712874
0.712816
0.712762
0.712714
0.713085
0.713052
0.713003
0.712949
0.712895
0.712843
0.712795
0.712752
0.7131
0.713062
0.713012
0.71296
0.712908
0.71286
0.712815
0.712775
0.713108
0.71306
0.71301
0.71296
0.712911
0.712865
0.712822
0.712782
0.71244
0.712461
0.712481
0.712492
0.712498
0.712501
0.712503
0.712506
0.712509
0.712513
0.712518
0.712523
0.71253
0.712537
0.712546
0.712556
0.712566
0.712578
0.712591
0.712605
0.71262
0.712636
0.712654
0.712672
0.712691
0.712712
0.712734
0.712757
0.712781
0.712806
0.712833
0.71286
0.712889
0.712919
0.71295
0.712982
0.713015
0.71305
0.713085
0.713122
0.713159
0.713198
0.713237
0.713277
0.713318
0.71336
0.713402
0.713445
0.713488
0.713532
0.713575
0.713619
0.713662
0.713705
0.713747
0.713789
0.713831
0.713871
0.713911
0.71395
0.713987
0.714023
0.714058
0.714092
0.714124
0.714155
0.714185
0.714213
0.714239
0.714265
0.714289
0.714311
0.714333
0.714353
0.714372
0.714391
0.714408
0.714424
0.71444
0.714454
0.714468
0.714482
0.714495
0.714507
0.714519
0.71453
0.714541
0.714551
0.714561
0.71457
0.714579
0.714588
0.714597
0.714605
0.714612
0.71462
0.714627
0.714633
0.71464
0.714646
0.714652
0.714657
0.714662
0.714667
0.714672
0.714676
0.71468
0.714683
0.714687
0.71469
0.714692
0.714695
0.714697
0.714699
0.7147
0.714702
0.714703
0.714704
0.714704
0.714704
0.714704
0.714704
0.714704
0.714703
0.714702
0.714701
0.7147
0.714699
0.714697
0.714695
0.714693
0.714691
0.714689
0.714686
0.714683
0.71468
0.714677
0.714674
0.714671
0.714667
0.714664
0.71466
0.714656
0.714652
0.714648
0.714643
0.714639
0.714634
0.71463
0.714625
0.71462
0.714615
0.71461
0.714605
0.7146
0.714594
0.714589
0.714583
0.714577
0.714572
0.714566
0.71456
0.714554
0.714548
0.714542
0.714536
0.714529
0.714523
0.714516
0.71451
0.714503
0.714497
0.71449
0.714483
0.714476
0.71447
0.714463
0.714456
0.714449
0.714441
0.714434
0.714427
0.71442
0.714412
0.714405
0.714398
0.71439
0.714383
0.714375
0.714368
0.71436
0.714352
0.714344
0.714337
0.714329
0.714321
0.714313
0.714305
0.714296
0.714288
0.71246
0.712471
0.712484
0.712496
0.712504
0.712508
0.712511
0.712514
0.712517
0.712521
0.712525
0.712531
0.712537
0.712545
0.712553
0.712563
0.712574
0.712586
0.712599
0.712613
0.712629
0.712645
0.712663
0.712682
0.712702
0.712723
0.712746
0.712769
0.712794
0.71282
0.712847
0.712875
0.712904
0.712935
0.712967
0.712999
0.713033
0.713068
0.713104
0.713141
0.713179
0.713218
0.713257
0.713297
0.713338
0.713379
0.713421
0.713463
0.713506
0.713548
0.71359
0.713632
0.713674
0.713715
0.713756
0.713796
0.713835
0.713873
0.713911
0.713947
0.713982
0.714016
0.714048
0.714079
0.714109
0.714138
0.714166
0.714192
0.714217
0.71424
0.714263
0.714285
0.714305
0.714325
0.714344
0.714362
0.714379
0.714396
0.714412
0.714427
0.714442
0.714456
0.714469
0.714482
0.714495
0.714507
0.714519
0.714531
0.714542
0.714552
0.714562
0.714572
0.714582
0.714591
0.7146
0.714608
0.714616
0.714624
0.714631
0.714638
0.714644
0.714651
0.714656
0.714662
0.714667
0.714672
0.714676
0.71468
0.714684
0.714688
0.714691
0.714694
0.714696
0.714698
0.7147
0.714702
0.714703
0.714704
0.714705
0.714705
0.714705
0.714705
0.714705
0.714705
0.714704
0.714703
0.714702
0.7147
0.714699
0.714697
0.714695
0.714692
0.71469
0.714687
0.714685
0.714682
0.714679
0.714675
0.714672
0.714669
0.714665
0.714661
0.714657
0.714653
0.714649
0.714644
0.71464
0.714635
0.714631
0.714626
0.714621
0.714616
0.714611
0.714606
0.7146
0.714595
0.714589
0.714584
0.714578
0.714572
0.714567
0.714561
0.714555
0.714549
0.714542
0.714536
0.71453
0.714523
0.714517
0.714511
0.714504
0.714497
0.714491
0.714484
0.714477
0.71447
0.714463
0.714456
0.714449
0.714442
0.714435
0.714428
0.71442
0.714413
0.714406
0.714398
0.714391
0.714383
0.714376
0.714368
0.71436
0.714353
0.714345
0.714337
0.714329
0.714321
0.714313
0.714305
0.714297
0.714289
0.712554
0.71253
0.712524
0.712524
0.712525
0.712526
0.712527
0.712528
0.71253
0.712533
0.712536
0.712541
0.712548
0.712555
0.712564
0.712573
0.712584
0.712597
0.71261
0.712625
0.712641
0.712658
0.712676
0.712695
0.712716
0.712738
0.712761
0.712785
0.712811
0.712838
0.712865
0.712894
0.712925
0.712956
0.712988
0.713022
0.713056
0.713091
0.713128
0.713165
0.713203
0.713242
0.713281
0.713321
0.713361
0.713402
0.713443
0.713484
0.713525
0.713566
0.713607
0.713648
0.713687
0.713727
0.713765
0.713803
0.71384
0.713876
0.71391
0.713944
0.713977
0.714008
0.714039
0.714068
0.714096
0.714122
0.714148
0.714173
0.714197
0.71422
0.714241
0.714262
0.714283
0.714302
0.714321
0.714339
0.714357
0.714374
0.71439
0.714406
0.714421
0.714436
0.714451
0.714465
0.714478
0.714491
0.714504
0.714516
0.714528
0.71454
0.714551
0.714561
0.714572
0.714581
0.714591
0.7146
0.714609
0.714617
0.714625
0.714632
0.71464
0.714646
0.714653
0.714659
0.714664
0.714669
0.714674
0.714679
0.714683
0.714687
0.71469
0.714693
0.714696
0.714698
0.7147
0.714702
0.714703
0.714705
0.714705
0.714706
0.714706
0.714706
0.714706
0.714706
0.714705
0.714704
0.714703
0.714701
0.7147
0.714698
0.714696
0.714694
0.714691
0.714689
0.714686
0.714683
0.71468
0.714677
0.714673
0.71467
0.714666
0.714662
0.714658
0.714654
0.71465
0.714645
0.714641
0.714636
0.714632
0.714627
0.714622
0.714617
0.714612
0.714606
0.714601
0.714596
0.71459
0.714585
0.714579
0.714573
0.714567
0.714561
0.714555
0.714549
0.714543
0.714537
0.71453
0.714524
0.714518
0.714511
0.714504
0.714498
0.714491
0.714484
0.714478
0.714471
0.714464
0.714457
0.71445
0.714442
0.714435
0.714428
0.714421
0.714414
0.714406
0.714399
0.714391
0.714384
0.714376
0.714369
0.714361
0.714353
0.714345
0.714338
0.71433
0.714322
0.714314
0.714306
0.714298
0.71429
0.712615
0.712587
0.712572
0.712564
0.712558
0.712555
0.712552
0.71255
0.71255
0.712551
0.712553
0.712557
0.712562
0.712569
0.712577
0.712586
0.712597
0.712609
0.712623
0.712637
0.712654
0.712671
0.71269
0.71271
0.712731
0.712754
0.712778
0.712803
0.712829
0.712856
0.712885
0.712914
0.712945
0.712977
0.71301
0.713044
0.713079
0.713114
0.713151
0.713188
0.713226
0.713265
0.713304
0.713343
0.713383
0.713423
0.713463
0.713503
0.713543
0.713582
0.713621
0.71366
0.713698
0.713735
0.713772
0.713807
0.713842
0.713876
0.713909
0.71394
0.713971
0.714001
0.714029
0.714057
0.714084
0.714109
0.714134
0.714158
0.714182
0.714204
0.714226
0.714247
0.714267
0.714286
0.714306
0.714324
0.714342
0.714359
0.714376
0.714393
0.714409
0.714424
0.714439
0.714454
0.714468
0.714482
0.714495
0.714508
0.71452
0.714532
0.714544
0.714555
0.714566
0.714576
0.714586
0.714596
0.714605
0.714613
0.714622
0.71463
0.714637
0.714644
0.714651
0.714657
0.714663
0.714668
0.714673
0.714678
0.714682
0.714686
0.71469
0.714693
0.714696
0.714698
0.714701
0.714702
0.714704
0.714705
0.714706
0.714707
0.714707
0.714707
0.714707
0.714707
0.714706
0.714705
0.714704
0.714703
0.714701
0.714699
0.714697
0.714695
0.714692
0.71469
0.714687
0.714684
0.714681
0.714678
0.714674
0.714671
0.714667
0.714663
0.714659
0.714655
0.714651
0.714646
0.714642
0.714637
0.714632
0.714628
0.714623
0.714618
0.714612
0.714607
0.714602
0.714596
0.714591
0.714585
0.714579
0.714574
0.714568
0.714562
0.714556
0.71455
0.714543
0.714537
0.714531
0.714525
0.714518
0.714512
0.714505
0.714498
0.714492
0.714485
0.714478
0.714471
0.714464
0.714457
0.71445
0.714443
0.714436
0.714429
0.714421
0.714414
0.714407
0.714399
0.714392
0.714384
0.714377
0.714369
0.714361
0.714354
0.714346
0.714338
0.71433
0.714322
0.714314
0.714306
0.714298
0.714291
0.712675
0.712645
0.712624
0.712609
0.712598
0.712589
0.712581
0.712576
0.712572
0.71257
0.71257
0.712572
0.712576
0.712582
0.712589
0.712598
0.712608
0.71262
0.712634
0.712649
0.712665
0.712683
0.712702
0.712723
0.712744
0.712768
0.712792
0.712817
0.712844
0.712872
0.712901
0.712931
0.712963
0.712995
0.713028
0.713062
0.713097
0.713133
0.713169
0.713207
0.713244
0.713283
0.713321
0.71336
0.713399
0.713438
0.713477
0.713516
0.713554
0.713592
0.71363
0.713667
0.713703
0.713739
0.713774
0.713808
0.713841
0.713874
0.713905
0.713936
0.713965
0.713994
0.714022
0.714049
0.714075
0.714101
0.714125
0.714149
0.714172
0.714195
0.714216
0.714237
0.714258
0.714278
0.714297
0.714316
0.714334
0.714352
0.714369
0.714386
0.714402
0.714418
0.714434
0.714449
0.714463
0.714477
0.714491
0.714504
0.714517
0.714529
0.714541
0.714552
0.714563
0.714574
0.714584
0.714594
0.714603
0.714612
0.71462
0.714628
0.714636
0.714643
0.71465
0.714656
0.714662
0.714668
0.714673
0.714678
0.714682
0.714686
0.71469
0.714693
0.714696
0.714699
0.714701
0.714703
0.714705
0.714706
0.714707
0.714708
0.714708
0.714708
0.714708
0.714707
0.714707
0.714706
0.714705
0.714703
0.714702
0.7147
0.714698
0.714696
0.714693
0.714691
0.714688
0.714685
0.714682
0.714678
0.714675
0.714671
0.714668
0.714664
0.71466
0.714656
0.714651
0.714647
0.714642
0.714638
0.714633
0.714628
0.714623
0.714618
0.714613
0.714608
0.714602
0.714597
0.714591
0.714586
0.71458
0.714574
0.714568
0.714562
0.714556
0.71455
0.714544
0.714538
0.714531
0.714525
0.714518
0.714512
0.714505
0.714499
0.714492
0.714485
0.714478
0.714471
0.714464
0.714457
0.71445
0.714443
0.714436
0.714429
0.714422
0.714414
0.714407
0.714399
0.714392
0.714384
0.714377
0.714369
0.714362
0.714354
0.714346
0.714338
0.71433
0.714322
0.714314
0.714306
0.714298
0.714291
0.712716
0.712686
0.712662
0.712642
0.712626
0.712612
0.712601
0.712592
0.712586
0.712582
0.71258
0.712581
0.712584
0.712589
0.712595
0.712604
0.712614
0.712626
0.71264
0.712655
0.712672
0.71269
0.712709
0.71273
0.712752
0.712775
0.7128
0.712826
0.712853
0.712881
0.71291
0.712941
0.712972
0.713004
0.713038
0.713072
0.713107
0.713142
0.713178
0.713215
0.713253
0.71329
0.713328
0.713366
0.713405
0.713443
0.713481
0.713519
0.713556
0.713594
0.71363
0.713667
0.713702
0.713737
0.713771
0.713805
0.713837
0.713869
0.7139
0.713931
0.71396
0.713989
0.714016
0.714043
0.71407
0.714095
0.71412
0.714144
0.714167
0.71419
0.714212
0.714233
0.714254
0.714274
0.714294
0.714313
0.714331
0.714349
0.714367
0.714383
0.7144
0.714416
0.714431
0.714447
0.714461
0.714475
0.714489
0.714502
0.714515
0.714528
0.71454
0.714551
0.714562
0.714573
0.714583
0.714593
0.714602
0.714611
0.71462
0.714628
0.714636
0.714643
0.71465
0.714656
0.714662
0.714668
0.714673
0.714678
0.714683
0.714687
0.71469
0.714694
0.714697
0.714699
0.714702
0.714704
0.714705
0.714706
0.714707
0.714708
0.714709
0.714709
0.714709
0.714708
0.714707
0.714707
0.714705
0.714704
0.714702
0.714701
0.714698
0.714696
0.714694
0.714691
0.714688
0.714685
0.714682
0.714679
0.714676
0.714672
0.714668
0.714664
0.71466
0.714656
0.714652
0.714647
0.714643
0.714638
0.714633
0.714629
0.714624
0.714618
0.714613
0.714608
0.714603
0.714597
0.714592
0.714586
0.71458
0.714574
0.714569
0.714563
0.714557
0.71455
0.714544
0.714538
0.714532
0.714525
0.714519
0.714512
0.714506
0.714499
0.714492
0.714485
0.714479
0.714472
0.714465
0.714458
0.714451
0.714444
0.714436
0.714429
0.714422
0.714415
0.714407
0.7144
0.714392
0.714385
0.714377
0.714369
0.714362
0.714354
0.714346
0.714338
0.71433
0.714323
0.714315
0.714307
0.714298
0.714291
0.71274
0.712709
0.712683
0.71266
0.71264
0.712624
0.71261
0.712599
0.712592
0.712587
0.712584
0.712584
0.712587
0.712591
0.712598
0.712606
0.712617
0.712629
0.712642
0.712658
0.712674
0.712692
0.712712
0.712733
0.712755
0.712778
0.712803
0.712829
0.712856
0.712884
0.712913
0.712944
0.712975
0.713007
0.71304
0.713074
0.713109
0.713144
0.71318
0.713217
0.713254
0.713291
0.713329
0.713367
0.713404
0.713442
0.71348
0.713518
0.713555
0.713592
0.713628
0.713664
0.7137
0.713734
0.713768
0.713802
0.713835
0.713866
0.713898
0.713928
0.713957
0.713986
0.714014
0.714041
0.714067
0.714093
0.714118
0.714142
0.714165
0.714188
0.71421
0.714231
0.714252
0.714273
0.714292
0.714311
0.71433
0.714348
0.714365
0.714383
0.714399
0.714415
0.714431
0.714446
0.714461
0.714475
0.714489
0.714502
0.714515
0.714527
0.714539
0.714551
0.714562
0.714573
0.714583
0.714593
0.714602
0.714611
0.71462
0.714628
0.714636
0.714643
0.71465
0.714656
0.714663
0.714668
0.714673
0.714678
0.714683
0.714687
0.714691
0.714694
0.714697
0.7147
0.714702
0.714704
0.714705
0.714707
0.714708
0.714708
0.714709
0.714709
0.714709
0.714708
0.714708
0.714707
0.714706
0.714704
0.714703
0.714701
0.714699
0.714697
0.714694
0.714692
0.714689
0.714686
0.714683
0.714679
0.714676
0.714672
0.714668
0.714665
0.71466
0.714656
0.714652
0.714648
0.714643
0.714638
0.714634
0.714629
0.714624
0.714619
0.714613
0.714608
0.714603
0.714597
0.714592
0.714586
0.71458
0.714575
0.714569
0.714563
0.714557
0.714551
0.714544
0.714538
0.714532
0.714525
0.714519
0.714512
0.714506
0.714499
0.714492
0.714486
0.714479
0.714472
0.714465
0.714458
0.714451
0.714444
0.714436
0.714429
0.714422
0.714415
0.714407
0.7144
0.714392
0.714385
0.714377
0.71437
0.714362
0.714354
0.714346
0.714338
0.714331
0.714323
0.714315
0.714307
0.714298
0.714291
0.712746
0.712713
0.712685
0.71266
0.712638
0.71262
0.712606
0.712595
0.712587
0.712582
0.712579
0.712579
0.712582
0.712587
0.712593
0.712602
0.712612
0.712624
0.712638
0.712653
0.71267
0.712688
0.712708
0.712728
0.712751
0.712774
0.712799
0.712825
0.712852
0.71288
0.712909
0.712939
0.71297
0.713003
0.713036
0.713069
0.713104
0.713139
0.713175
0.713212
0.713249
0.713286
0.713324
0.713361
0.713399
0.713437
0.713475
0.713513
0.71355
0.713587
0.713624
0.71366
0.713695
0.71373
0.713765
0.713798
0.713831
0.713863
0.713894
0.713925
0.713954
0.713983
0.714011
0.714039
0.714065
0.714091
0.714116
0.71414
0.714164
0.714187
0.714209
0.71423
0.714251
0.714272
0.714292
0.714311
0.714329
0.714348
0.714365
0.714382
0.714399
0.714415
0.714431
0.714446
0.714461
0.714475
0.714489
0.714502
0.714515
0.714528
0.71454
0.714552
0.714563
0.714573
0.714584
0.714594
0.714603
0.714612
0.714621
0.714629
0.714637
0.714644
0.714651
0.714657
0.714663
0.714669
0.714674
0.714679
0.714684
0.714688
0.714692
0.714695
0.714698
0.7147
0.714703
0.714705
0.714706
0.714708
0.714709
0.714709
0.71471
0.71471
0.71471
0.714709
0.714709
0.714708
0.714706
0.714705
0.714703
0.714702
0.7147
0.714697
0.714695
0.714692
0.714689
0.714686
0.714683
0.71468
0.714676
0.714673
0.714669
0.714665
0.714661
0.714657
0.714653
0.714648
0.714644
0.714639
0.714634
0.714629
0.714624
0.714619
0.714614
0.714609
0.714603
0.714598
0.714592
0.714587
0.714581
0.714575
0.714569
0.714563
0.714557
0.714551
0.714545
0.714538
0.714532
0.714526
0.714519
0.714513
0.714506
0.714499
0.714493
0.714486
0.714479
0.714472
0.714465
0.714458
0.714451
0.714444
0.714437
0.71443
0.714422
0.714415
0.714407
0.7144
0.714393
0.714385
0.714377
0.71437
0.714362
0.714354
0.714346
0.714339
0.714331
0.714323
0.714315
0.714307
0.714298
0.714291
)
;

boundaryField
{
    inlet
    {
        type            zeroGradient;
    }
    outlet
    {