/*--------------------------------*- C++ -*----------------------------------*\
| =========                 |                                                 |
| \\      /  F ield         | OpenFOAM: The Open Source CFD Toolbox           |
|  \\    /   O peration     | Version:  4.1                                   |
|   \\  /    A nd           | Web:      www.OpenFOAM.org                      |
|    \\/     M anipulation  |                                                 |
\*---------------------------------------------------------------------------*/
FoamFile
{
    version     2.0;
    format      ascii;
    class       volVectorField;
    location    "0.0351";
    object      U;
}
// * * * * * * * * * * * * * * * * * * * * * * * * * * * * * * * * * * * * * //

dimensions      [0 1 -1 0 0 0 0];

internalField   nonuniform List<vector> 
441
(
(-9.69259e-05 7.6452e-05 0)
(-0.000488864 0.000284799 0)
(-0.00110079 0.000501551 0)
(-0.00188536 0.000657502 0)
(-0.00276796 0.000735673 0)
(-0.00366809 0.000737778 0)
(-0.00451145 0.000673272 0)
(-0.00523536 0.000554678 0)
(-0.00579081 0.000395336 0)
(-0.00614259 0.000208458 0)
(-0.00626893 6.96342e-06 0)
(-0.00616122 -0.000196247 0)
(-0.00582422 -0.000387851 0)
(-0.00527682 -0.000553753 0)
(-0.00455298 -0.000679078 0)
(-0.00370256 -0.000748742 0)
(-0.00279086 -0.000748881 0)
(-0.00189598 -0.000669556 0)
(-0.00110215 -0.000509715 0)
(-0.000486253 -0.000288111 0)
(-9.55255e-05 -7.62111e-05 0)
(-0.000352948 0.000441258 0)
(-0.00156891 0.00137673 0)
(-0.00329132 0.0022248 0)
(-0.00539497 0.00281557 0)
(-0.00770223 0.00309717 0)
(-0.0100228 0.00307737 0)
(-0.0121797 0.002793 0)
(-0.0140221 0.00229332 0)
(-0.0154314 0.00163121 0)
(-0.016322 0.000859286 0)
(-0.0166409 2.9038e-05 0)
(-0.0163675 -0.000808075 0)
(-0.0155136 -0.00159892 0)
(-0.0141254 -0.00228733 0)
(-0.0122854 -0.0028141 0)
(-0.0101139 -0.00311938 0)
(-0.00776713 -0.00314855 0)
(-0.00543064 -0.00286278 0)
(-0.00330327 -0.00225684 0)
(-0.00156828 -0.00138963 0)
(-0.00035137 -0.000440769 0)
(-0.000639709 0.00106473 0)
(-0.00268131 0.0030581 0)
(-0.0054249 0.00472571 0)
(-0.00867177 0.00584424 0)
(-0.0121663 0.00634682 0)
(-0.0156406 0.00625849 0)
(-0.0188461 0.00565347 0)
(-0.0215718 0.00462826 0)
(-0.0236508 0.00328601 0)
(-0.0249631 0.00172932 0)
(-0.0254342 5.86961e-05 0)
(-0.0250348 -0.00162551 0)
(-0.0237812 -0.00321967 0)
(-0.0217377 -0.00461428 0)
(-0.0190196 -0.00569385 0)
(-0.015795 -0.00634156 0)
(-0.0122827 -0.00645014 0)
(-0.00874306 -0.00594092 0)
(-0.0054568 -0.00479324 0)
(-0.00268878 -0.00308727 0)
(-0.000639682 -0.00106559 0)
(-0.000918096 0.00194805 0)
(-0.00375609 0.00533141 0)
(-0.00746109 0.00800198 0)
(-0.0117558 0.00972706 0)
(-0.0163103 0.0104518 0)
(-0.020791 0.0102363 0)
(-0.0248948 0.00920552 0)
(-0.0283667 0.00751445 0)
(-0.0310074 0.00532625 0)
(-0.0326737 0.00280202 0)
(-0.0332767 9.89352e-05 0)
(-0.0327808 -0.00262638 0)
(-0.0312038 -0.00521215 0)
(-0.0286201 -0.00748689 0)
(-0.0251652 -0.00926893 0)
(-0.0210393 -0.0103729 0)
(-0.0165066 -0.0106257 0)
(-0.0118859 -0.00989381 0)
(-0.007529 -0.00812284 0)
(-0.00378014 -0.00538792 0)
(-0.000921724 -0.00195325 0)
(-0.00118825 0.0030878 0)
(-0.00480527 0.00819667 0)
(-0.00944672 0.012058 0)
(-0.0147502 0.0144641 0)
(-0.020308 0.0154021 0)
(-0.025724 0.0149905 0)
(-0.0306483 0.0134229 0)
(-0.034793 0.0109261 0)
(-0.0379365 0.00773306 0)
(-0.0399216 0.00407025 0)
(-0.0406504 0.000156575 0)
(-0.040082 -0.00379076 0)
(-0.0382327 -0.00754719 0)
(-0.03518 -0.0108731 0)
(-0.0310693 -0.0135116 0)
(-0.0261213 -0.0151967 0)
(-0.0206346 -0.0156732 0)
(-0.0149798 -0.0147323 0)
(-0.00957852 -0.0122607 0)
(-0.00486057 -0.00829951 0)
(-0.00119914 -0.00310328 0)
(-0.00146053 0.00448745 0)
(-0.00586855 0.0116667 0)
(-0.011458 0.0169123 0)
(-0.0177728 0.0200713 0)
(-0.0243217 0.0212047 0)
(-0.0306459 0.0205176 0)
(-0.0363535 0.0182947 0)
(-0.0411316 0.0148504 0)
(-0.0447458 0.0104975 0)
(-0.0470321 0.00553364 0)
(-0.0478888 0.000241856 0)
(-0.0472705 -0.00509898 0)
(-0.0451888 -0.0101999 0)
(-0.041717 -0.0147493 0)
(-0.037001 -0.0184074 0)
(-0.0312713 -0.0208133 0)
(-0.0248524 -0.0216101 0)
(-0.0181627 -0.0204871 0)
(-0.0116962 -0.0172413 0)
(-0.00597797 -0.0118472 0)
(-0.00148436 -0.00452429 0)
(-0.00174621 0.00616184 0)
(-0.00698763 0.0157738 0)
(-0.0135668 0.022602 0)
(-0.0209219 0.0265792 0)
(-0.028471 0.027877 0)
(-0.0356922 0.0268211 0)
(-0.0421572 0.0238143 0)
(-0.0475376 0.0192771 0)
(-0.0515956 0.0136128 0)
(-0.0541695 0.0071941 0)
(-0.0551588 0.000367824 0)
(-0.0545153 -0.00652808 0)
(-0.052242 -0.0131424 0)
(-0.0484004 -0.0190905 0)
(-0.0431258 -0.0239425 0)
(-0.0366463 -0.0272286 0)
(-0.029302 -0.0284653 0)
(-0.0215534 -0.0272074 0)
(-0.0139699 -0.0231228 0)
(-0.00718335 -0.0160811 0)
(-0.00179111 -0.00623889 0)
(-0.00205366 0.00813645 0)
(-0.00819276 0.020567 0)
(-0.0158195 0.0291759 0)
(-0.0242494 0.0340211 0)
(-0.0328025 0.0354307 0)
(-0.0408962 0.033893 0)
(-0.048075 0.0299609 0)
(-0.0540076 0.0241825 0)
(-0.0584668 0.017062 0)
(-0.0613038 0.00904873 0)
(-0.062427 0.000549186 0)
(-0.0617871 -0.00804679 0)
(-0.0593755 -0.0163326 0)
(-0.0552325 -0.0238533 0)
(-0.0494688 -0.030085 0)
(-0.0422939 -0.0344335 0)
(-0.0340475 -0.0362611 0)
(-0.0252221 -0.0349467 0)
(-0.0164614 -0.0299792 0)
(-0.00851668 -0.0210729 0)
(-0.00213034 -0.00828324 0)
(-0.00238594 0.0104442 0)
(-0.00949338 0.0261025 0)
(-0.0182195 0.0366791 0)
(-0.0277361 0.0424129 0)
(-0.0372591 0.0438482 0)
(-0.0461528 0.0416884 0)
(-0.0539505 0.0366757 0)
(-0.0603375 0.0295089 0)
(-0.0651156 0.0208024 0)
(-0.0681648 0.0110807 0)
(-0.0694119 0.000800302 0)
(-0.0688108 -0.00960989 0)
(-0.0663372 -0.0197009 0)
(-0.0620001 -0.0289567 0)
(-0.0558681 -0.0367593 0)
(-0.0481093 -0.0423766 0)
(-0.039039 -0.0449855 0)
(-0.0291616 -0.0437395 0)
(-0.0191869 -0.0378833 0)
(-0.00999638 -0.0269058 0)
(-0.00250766 -0.0107038 0)
(-0.00273843 0.0131202 0)
(-0.0108692 0.0324289 0)
(-0.0207097 0.0451301 0)
(-0.0312642 0.0517229 0)
(-0.0416433 0.0530488 0)
(-0.0511748 0.0500928 0)
(-0.059407 0.0438317 0)
(-0.0660701 0.0351396 0)
(-0.0710205 0.0247474 0)
(-0.0741868 0.0132477 0)
(-0.0755279 0.00113192 0)
(-0.0750061 -0.0111529 0)
(-0.0725798 -0.0231364 0)
(-0.0682148 -0.0342584 0)
(-0.0619165 -0.0438145 0)
(-0.053782 -0.0509263 0)
(-0.0440666 -0.0545538 0)
(-0.0332527 -0.0535659 0)
(-0.0220951 -0.0468789 0)
(-0.0116086 -0.0336577 0)
(-0.00292061 -0.013552 0)
(-0.00309583 0.0161954 0)
(-0.0122588 0.0395678 0)
(-0.0231505 0.0544888 0)
(-0.034584 0.061833 0)
(-0.0455735 0.0628474 0)
(-0.0554416 0.0588814 0)
(-0.0637918 0.0511983 0)
(-0.0704379 0.0408699 0)
(-0.0753234 0.0287448 0)
(-0.0784502 0.0154696 0)
(-0.079825 0.00154642 0)
(-0.0794271 -0.0125879 0)
(-0.0771966 -0.0264723 0)
(-0.0730458 -0.0395302 0)
(-0.0668942 -0.0509894 0)
(-0.0587316 -0.0598266 0)
(-0.048705 -0.064758 0)
(-0.0372218 -0.0643025 0)
(-0.0250389 -0.0569408 0)
(-0.0132928 -0.0413768 0)
(-0.00335499 -0.0168763 0)
(-0.00342761 0.0196876 0)
(-0.0135431 0.047487 0)
(-0.0252882 0.064615 0)
(-0.0372671 0.0724874 0)
(-0.0484261 0.072902 0)
(-0.058136 0.067673 0)
(-0.0661122 0.0584032 0)
(-0.0723021 0.0463789 0)
(-0.0767737 0.0325571 0)
(-0.0796279 0.0176145 0)
(-0.0809368 0.00203165 0)
(-0.0807062 -0.0138025 0)
(-0.0788608 -0.0294759 0)
(-0.0752526 -0.0444356 0)
(-0.0696952 -0.057876 0)
(-0.0620318 -0.0686466 0)
(-0.0522416 -0.0752062 0)
(-0.0405811 -0.0756591 0)
(-0.0277349 -0.0679212 0)
(-0.0149212 -0.0500471 0)
(-0.00377935 -0.0207118 0)
(-0.00367996 0.0235908 0)
(-0.0145176 0.056066 0)
(-0.0267047 0.0752133 0)
(-0.0386384 0.0832302 0)
(-0.049258 0.0826554 0)
(-0.058066 0.0758817 0)
(-0.0649662 0.0648982 0)
(-0.0700953 0.051206 0)
(-0.0736826 0.0358464 0)
(-0.0759502 0.0194897 0)
(-0.0770488 0.00255402 0)
(-0.0770206 -0.0146633 0)
(-0.0757821 -0.0318466 0)
(-0.0731268 -0.048518 0)
(-0.068752 -0.063891 0)
(-0.0623222 -0.0767317 0)
(-0.0535841 -0.0852542 0)
(-0.0425453 -0.0871004 0)
(-0.0297018 -0.0794777 0)
(-0.0162638 -0.0595418 0)
(-0.00413564 -0.0250649 0)
(-0.00376075 0.0278593 0)
(-0.0148395 0.0650477 0)
(-0.0267303 0.0857609 0)
(-0.037665 0.0933289 0)
(-0.0466918 0.0912721 0)
(-0.053565 0.0826761 0)
(-0.0584662 0.0699378 0)
(-0.0617738 0.0547444 0)
(-0.0639019 0.0381737 0)
(-0.0652012 0.02084 0)
(-0.0659044 0.00305268 0)
(-0.0660961 -0.0150271 0)
(-0.0656968 -0.033229 0)
(-0.0644573 -0.0512089 0)
(-0.0619691 -0.0682698 0)
(-0.0577081 -0.0831708 0)
(-0.0511374 -0.0939409 0)
(-0.0419061 -0.0977546 0)
(-0.030158 -0.0909789 0)
(-0.0169286 -0.0695566 0)
(-0.0043224 -0.0298924 0)
(-0.00350841 0.032382 0)
(-0.0139231 0.0739656 0)
(-0.0242784 0.0954079 0)
(-0.0327676 0.101686 0)
(-0.0387408 0.097584 0)
(-0.0423571 0.0869625 0)
(-0.0441581 0.0725909 0)
(-0.044789 0.0562658 0)
(-0.0448388 0.0390241 0)
(-0.0447662 0.0213629 0)
(-0.0448688 0.00343809 0)
(-0.045271 -0.0147617 0)
(-0.0459137 -0.0332502 0)
(-0.0465393 -0.0518718 0)
(-0.0466779 -0.0701016 0)
(-0.0456521 -0.0868034 0)
(-0.0426368 -0.099946 0)
(-0.0368355 -0.106319 0)
(-0.027843 -0.101382 0)
(-0.0162464 -0.0795123 0)
(-0.0041619 -0.0350668 0)
(-0.00262312 0.0369353 0)
(-0.0107125 0.082023 0)
(-0.017523 0.102837 0)
(-0.0214871 0.106743 0)
(-0.0225363 0.100068 0)
(-0.0213788 0.087423 0)
(-0.0189422 0.0718132 0)
(-0.0160938 0.0550009 0)
(-0.013529 0.037875 0)
(-0.0117487 0.0207512 0)
(-0.0110701 0.00360036 0)
(-0.011641 -0.0137749 0)
(-0.0134394 -0.0315861 0)
(-0.0162525 -0.0498994 0)
(-0.0196364 -0.0684368 0)
(-0.0228676 -0.0863041 0)
(-0.0249237 -0.101612 0)
(-0.0245704 -0.110988 0)
(-0.0206882 -0.109081 0)
(-0.0130356 -0.0884055 0)
(-0.00333022 -0.0403168 0)
(-0.000494784 0.0410692 0)
(-0.00316854 0.0878641 0)
(-0.00325187 0.106063 0)
(9.57406e-05 0.106415 0)
(0.00608072 0.0969096 0)
(0.0134364 0.0826611 0)
(0.0209785 0.0666197 0)
(0.0277854 0.0502997 0)
(0.0332084 0.0343213 0)
(0.0368214 0.0187709 0)
(0.0383629 0.00343369 0)
(0.0376951 -0.0120493 0)
(0.0347913 -0.0280587 0)
(0.0297562 -0.0448717 0)
(0.0228836 -0.0624942 0)
(0.0147515 -0.0803997 0)
(0.00633747 -0.0970995 0)
(-0.000908461 -0.10946 0)
(-0.0051943 -0.111731 0)
(-0.00508768 -0.0945536 0)
(-0.00118586 -0.0450996 0)
(0.00428999 0.0438693 0)
(0.0129638 0.0891858 0)
(0.024435 0.10222 0)
(0.0383271 0.0981613 0)
(0.0531037 0.0862752 0)
(0.0673507 0.0715436 0)
(0.0800486 0.0564073 0)
(0.090553 0.0418928 0)
(0.0984933 0.0282633 0)
(0.103667 0.0153768 0)
(0.105958 0.0028814 0)
(0.105281 -0.00967168 0)
(0.101562 -0.0227515 0)
(0.0947487 -0.0367726 0)
(0.0848599 -0.051986 0)
(0.072085 -0.0682815 0)
(0.0569512 -0.0848024 0)
(0.0405524 -0.0991874 0)
(0.0247606 -0.106161 0)
(0.012034 -0.0952155 0)
(0.00372423 -0.0483402 0)
(0.0158628 0.0431023 0)
(0.0472603 0.0816957 0)
(0.0766177 0.0873242 0)
(0.103358 0.0794003 0)
(0.126851 0.0669656 0)
(0.146772 0.0538234 0)
(0.163041 0.041443 0)
(0.175716 0.0302348 0)
(0.18493 0.0201308 0)
(0.190815 0.0108457 0)
(0.193454 0.00199642 0)
(0.192848 -0.00684183 0)
(0.188898 -0.0161044 0)
(0.181396 -0.0262101 0)
(0.170037 -0.0375168 0)
(0.15445 -0.0502235 0)
(0.134281 -0.0641355 0)
(0.109361 -0.0780796 0)
(0.0800901 -0.0884664 0)
(0.0479611 -0.0857176 0)
(0.0155805 -0.0475863 0)
(0.0495892 0.0348821 0)
(0.122847 0.0595905 0)
(0.174108 0.0579526 0)
(0.21058 0.0494426 0)
(0.237813 0.0399714 0)
(0.258501 0.0311841 0)
(0.27418 0.023491 0)
(0.285784 0.0168513 0)
(0.293928 0.0110632 0)
(0.29902 0.00586752 0)
(0.301294 0.000987518 0)
(0.300824 -0.00385765 0)
(0.297522 -0.0089484 0)
(0.291118 -0.0145621 0)
(0.28112 -0.0209665 0)
(0.26673 -0.0283993 0)
(0.246689 -0.0370105 0)
(0.218955 -0.046665 0)
(0.180289 -0.0562583 0)
(0.125239 -0.0604533 0)
(0.049707 -0.038545 0)
(0.18289 0.00469094 0)
(0.296893 0.00839644 0)
(0.351024 0.0120081 0)
(0.37866 0.0118135 0)
(0.39571 0.0100259 0)
(0.407182 0.00794539 0)
(0.415249 0.00600002 0)
(0.420928 0.00428814 0)
(0.424777 0.00278999 0)
(0.427119 0.00144718 0)
(0.428132 0.000189927 0)
(0.427885 -0.00105314 0)
(0.426339 -0.00235031 0)
(0.423343 -0.00376139 0)
(0.418582 -0.00532568 0)
(0.411471 -0.00703235 0)
(0.400862 -0.00874674 0)
(0.384227 -0.0100473 0)
(0.355755 -0.00989627 0)
(0.298524 -0.00716095 0)
(0.181165 -0.00733214 0)
)
;

boundaryField
{
    movingWall
    {
        type            fixedValue;
        value           uniform (0.5 0 0);
    }
    fixedWalls
    {
        type            noSlip;
    }
    frontAndBack
    {
        type            empty;
    }
}


// ************************************************************************* //
