/*--------------------------------*- C++ -*----------------------------------*\
| =========                 |                                                 |
| \\      /  F ield         | OpenFOAM: The Open Source CFD Toolbox           |
|  \\    /   O peration     | Version:  4.1                                   |
|   \\  /    A nd           | Web:      www.OpenFOAM.org                      |
|    \\/     M anipulation  |                                                 |
\*---------------------------------------------------------------------------*/
FoamFile
{
    version     2.0;
    format      ascii;
    class       volScalarField;
    location    "2310";
    object      p;
}
// * * * * * * * * * * * * * * * * * * * * * * * * * * * * * * * * * * * * * //

dimensions      [1 -1 -2 0 0 0 0];

internalField   nonuniform List<scalar> 
1275
(
0.712261
0.712213
0.712206
0.712163
0.712151
0.712107
0.712091
0.71204
0.712025
0.711956
0.712273
0.712221
0.712215
0.71217
0.71216
0.712116
0.712103
0.712057
0.712049
0.712002
0.712291
0.712236
0.712231
0.712184
0.712175
0.712131
0.712119
0.712076
0.712065
0.712026
0.71231
0.712255
0.712251
0.712203
0.712195
0.712153
0.712143
0.712104
0.712096
0.712062
0.71233
0.712274
0.71227
0.712223
0.712215
0.712175
0.712165
0.712129
0.712118
0.712088
0.712345
0.712291
0.712287
0.712241
0.712234
0.712195
0.712185
0.712152
0.712142
0.712114
0.712354
0.712301
0.712297
0.712254
0.712246
0.712209
0.712198
0.712167
0.712155
0.712129
0.712357
0.712308
0.712303
0.712262
0.712253
0.712218
0.712206
0.712176
0.712164
0.712137
0.71235
0.712308
0.712302
0.712263
0.712253
0.712219
0.712207
0.712177
0.712164
0.712138
0.712082
0.712088
0.712094
0.712101
0.712107
0.712114
0.712122
0.712129
0.712137
0.712146
0.712155
0.712164
0.712173
0.712184
0.712194
0.712206
0.712218
0.71223
0.712243
0.712258
0.712272
0.712288
0.712305
0.712323
0.712342
0.712363
0.712385
0.712408
0.712433
0.712459
0.712487
0.712517
0.712548
0.712581
0.712616
0.712652
0.712689
0.712728
0.712767
0.712806
0.712845
0.712884
0.712922
0.712959
0.712994
0.713027
0.713057
0.713085
0.71311
0.713132
0.713151
0.713167
0.713181
0.713191
0.7132
0.713206
0.713211
0.713215
0.713217
0.713218
0.713219
0.713219
0.713219
0.713219
0.713218
0.713218
0.713218
0.713219
0.713219
0.71322
0.713221
0.713223
0.713225
0.713227
0.71323
0.713233
0.713236
0.713239
0.711933
0.711984
0.711977
0.711999
0.711994
0.712002
0.711999
0.712002
0.712
0.712001
0.712
0.712
0.711999
0.712
0.711999
0.712
0.712
0.712001
0.712001
0.712002
0.712003
0.712004
0.712005
0.712007
0.712009
0.71201
0.712012
0.712015
0.712017
0.71202
0.712023
0.712026
0.712029
0.712032
0.712036
0.71204
0.712044
0.712048
0.712053
0.712058
0.712062
0.712068
0.712073
0.71208
0.712085
0.712093
0.712098
0.712106
0.712113
0.712121
0.712129
0.712138
0.712147
0.712156
0.712166
0.712177
0.712188
0.712199
0.712211
0.712224
0.712238
0.712252
0.712267
0.712282
0.712299
0.712317
0.712335
0.712355
0.712375
0.712397
0.71242
0.712444
0.712469
0.712496
0.712524
0.712553
0.712583
0.712614
0.712646
0.712679
0.712713
0.712747
0.712782
0.712816
0.71285
0.712883
0.712915
0.712946
0.712975
0.713002
0.713026
0.713049
0.713069
0.713086
0.713102
0.713115
0.713126
0.713135
0.713142
0.713148
0.713153
0.713157
0.71316
0.713163
0.713165
0.713167
0.713168
0.71317
0.713172
0.713174
0.713176
0.713179
0.713182
0.713184
0.713187
0.713191
0.713194
0.713198
0.713202
0.713206
0.71321
0.713215
0.71322
0.712006
0.71201
0.712004
0.71201
0.712003
0.712006
0.712001
0.712003
0.712
0.712
0.711999
0.711999
0.711998
0.711999
0.711999
0.711999
0.712
0.712001
0.712001
0.712003
0.712004
0.712005
0.712007
0.712009
0.712011
0.712013
0.712015
0.712018
0.712021
0.712024
0.712027
0.712031
0.712034
0.712038
0.712043
0.712047
0.712052
0.712057
0.712062
0.712068
0.712074
0.71208
0.712086
0.712093
0.712101
0.712108
0.712116
0.712125
0.712133
0.712143
0.712152
0.712163
0.712174
0.712185
0.712197
0.71221
0.712223
0.712237
0.712251
0.712267
0.712283
0.7123
0.712317
0.712336
0.712355
0.712375
0.712396
0.712418
0.712441
0.712465
0.71249
0.712516
0.712542
0.71257
0.712598
0.712627
0.712657
0.712687
0.712717
0.712747
0.712778
0.712808
0.712837
0.712866
0.712894
0.71292
0.712945
0.712968
0.71299
0.71301
0.713028
0.713044
0.713058
0.713071
0.713081
0.713091
0.713098
0.713105
0.713111
0.713115
0.71312
0.713124
0.713128
0.713131
0.713135
0.713138
0.713142
0.713146
0.713149
0.713153
0.713156
0.71316
0.713164
0.713168
0.713172
0.713177
0.713181
0.713186
0.71319
0.713195
0.7132
0.713205
0.713211
0.712015
0.712015
0.712009
0.712015
0.71201
0.712013
0.712009
0.71201
0.712007
0.712007
0.712005
0.712005
0.712003
0.712003
0.712003
0.712003
0.712003
0.712003
0.712004
0.712005
0.712006
0.712008
0.71201
0.712012
0.712014
0.712016
0.712019
0.712022
0.712026
0.712029
0.712033
0.712037
0.712041
0.712046
0.712051
0.712056
0.712062
0.712068
0.712074
0.712081
0.712087
0.712095
0.712102
0.712111
0.712119
0.712129
0.712138
0.712148
0.712159
0.71217
0.712181
0.712194
0.712207
0.71222
0.712234
0.712249
0.712265
0.712281
0.712298
0.712316
0.712334
0.712354
0.712374
0.712395
0.712416
0.712439
0.712462
0.712486
0.712511
0.712536
0.712562
0.712588
0.712615
0.712643
0.71267
0.712698
0.712725
0.712753
0.71278
0.712807
0.712833
0.712858
0.712883
0.712906
0.712928
0.712949
0.712968
0.712986
0.713002
0.713017
0.71303
0.713041
0.713051
0.71306
0.713069
0.713076
0.713083
0.713089
0.713095
0.7131
0.713105
0.71311
0.713115
0.713119
0.713123
0.713127
0.713132
0.713136
0.71314
0.713145
0.713149
0.713153
0.713158
0.713163
0.713167
0.713172
0.713177
0.713181
0.713186
0.713191
0.713197
0.713202
0.713207
0.71206
0.712047
0.712042
0.712036
0.71203
0.712026
0.712021
0.712018
0.712013
0.712011
0.712008
0.712007
0.712005
0.712005
0.712004
0.712004
0.712004
0.712005
0.712005
0.712007
0.712008
0.71201
0.712012
0.712015
0.712017
0.71202
0.712024
0.712027
0.712031
0.712035
0.71204
0.712045
0.71205
0.712055
0.712061
0.712067
0.712074
0.71208
0.712088
0.712095
0.712104
0.712112
0.712121
0.712131
0.712141
0.712151
0.712162
0.712174
0.712186
0.712199
0.712213
0.712227
0.712242
0.712257
0.712274
0.712291
0.712308
0.712327
0.712346
0.712366
0.712387
0.712408
0.71243
0.712453
0.712476
0.7125
0.712525
0.71255
0.712575
0.712601
0.712627
0.712653
0.712679
0.712705
0.712731
0.712757
0.712782
0.712806
0.71283
0.712853
0.712876
0.712897
0.712916
0.712935
0.712952
0.712968
0.712983
0.712996
0.713009
0.71302
0.713031
0.71304
0.713049
0.713057
0.713065
0.713071
0.713078
0.713083
0.713089
0.713094
0.713099
0.713104
0.713109
0.713114
0.713119
0.713124
0.713129
0.713134
0.713139
0.713143
0.713148
0.713152
0.713157
0.713162
0.713166
0.713171
0.713176
0.713181
0.713186
0.713191
0.713196
0.713201
0.713207
0.71208
0.712063
0.712056
0.712046
0.71204
0.712034
0.712029
0.712024
0.71202
0.712016
0.712013
0.712011
0.712009
0.712007
0.712006
0.712006
0.712006
0.712006
0.712007
0.712008
0.71201
0.712012
0.712014
0.712017
0.71202
0.712024
0.712027
0.712031
0.712036
0.712041
0.712046
0.712051
0.712057
0.712063
0.71207
0.712077
0.712084
0.712092
0.7121
0.712109
0.712118
0.712127
0.712137
0.712148
0.712159
0.712171
0.712184
0.712197
0.71221
0.712225
0.71224
0.712256
0.712272
0.712289
0.712307
0.712325
0.712345
0.712365
0.712385
0.712407
0.712429
0.712451
0.712475
0.712498
0.712523
0.712547
0.712572
0.712597
0.712623
0.712648
0.712673
0.712698
0.712723
0.712748
0.712772
0.712795
0.712817
0.712839
0.71286
0.712879
0.712898
0.712916
0.712933
0.712948
0.712963
0.712977
0.71299
0.713001
0.713012
0.713022
0.713031
0.713039
0.713046
0.713054
0.713061
0.713067
0.713074
0.713081
0.713087
0.713093
0.713099
0.713104
0.713109
0.713114
0.713119
0.713124
0.713129
0.713133
0.713138
0.713143
0.713147
0.713152
0.713157
0.713161
0.713166
0.713171
0.713176
0.713181
0.713186
0.713191
0.713196
0.713201
0.713207
0.712106
0.712086
0.712078
0.712064
0.712056
0.712046
0.712039
0.712032
0.712026
0.712021
0.712017
0.712013
0.712011
0.712009
0.712008
0.712007
0.712007
0.712007
0.712008
0.712009
0.712011
0.712014
0.712016
0.712019
0.712023
0.712027
0.712031
0.712035
0.71204
0.712045
0.712051
0.712057
0.712063
0.71207
0.712077
0.712085
0.712093
0.712101
0.71211
0.71212
0.712129
0.71214
0.712151
0.712163
0.712175
0.712187
0.712201
0.712215
0.71223
0.712245
0.712261
0.712278
0.712295
0.712313
0.712332
0.712352
0.712372
0.712393
0.712414
0.712437
0.712459
0.712482
0.712506
0.71253
0.712554
0.712579
0.712603
0.712628
0.712653
0.712677
0.712701
0.712725
0.712748
0.712771
0.712793
0.712814
0.712835
0.712855
0.712874
0.712892
0.712909
0.712924
0.712939
0.712953
0.712966
0.712978
0.712989
0.713
0.71301
0.713019
0.713028
0.713037
0.713046
0.713054
0.713061
0.713068
0.713075
0.713081
0.713087
0.713092
0.713098
0.713103
0.713108
0.713114
0.713119
0.713124
0.713128
0.713133
0.713138
0.713143
0.713147
0.713152
0.713157
0.713162
0.713166
0.713171
0.713176
0.713181
0.713186
0.713191
0.713196
0.713202
0.713207
0.712118
0.712096
0.712087
0.71207
0.712062
0.71205
0.712043
0.712034
0.712028
0.712022
0.712018
0.712013
0.712011
0.712008
0.712007
0.712006
0.712006
0.712007
0.712008
0.712009
0.712011
0.712013
0.712016
0.71202
0.712023
0.712027
0.712032
0.712036
0.712042
0.712047
0.712053
0.712059
0.712066
0.712073
0.712081
0.712089
0.712097
0.712106
0.712115
0.712125
0.712135
0.712146
0.712158
0.71217
0.712182
0.712196
0.71221
0.712224
0.712239
0.712255
0.712271
0.712289
0.712306
0.712325
0.712344
0.712364
0.712385
0.712406
0.712427
0.712449
0.712472
0.712495
0.712519
0.712543
0.712567
0.712591
0.712615
0.712639
0.712663
0.712687
0.71271
0.712733
0.712755
0.712777
0.712798
0.712818
0.712838
0.712856
0.712874
0.712891
0.712907
0.712922
0.712936
0.71295
0.712964
0.712976
0.712988
0.712999
0.713009
0.713019
0.713028
0.713037
0.713045
0.713052
0.713059
0.713066
0.713073
0.713079
0.713086
0.713092
0.713097
0.713103
0.713108
0.713113
0.713119
0.713123
0.713128
0.713133
0.713138
0.713142
0.713147
0.713152
0.713157
0.713161
0.713166
0.713171
0.713176
0.713181
0.713186
0.713191
0.713196
0.713202
0.713207
0.712126
0.712104
0.712093
0.712076
0.712067
0.712054
0.712046
0.712036
0.71203
0.712023
0.712019
0.712014
0.712012
0.712009
0.712008
0.712007
0.712007
0.712007
0.712008
0.71201
0.712012
0.712014
0.712017
0.71202
0.712024
0.712028
0.712033
0.712038
0.712043
0.712049
0.712055
0.712061
0.712068
0.712075
0.712083
0.712091
0.712099
0.712108
0.712118
0.712128
0.712138
0.712149
0.712161
0.712173
0.712186
0.712199
0.712213
0.712228
0.712243
0.712259
0.712276
0.712293
0.712311
0.71233
0.712349
0.712369
0.712389
0.712411
0.712432
0.712454
0.712477
0.7125
0.712523
0.712547
0.71257
0.712594
0.712618
0.712641
0.712665
0.712688
0.712711
0.712733
0.712755
0.712776
0.712797
0.712817
0.712837
0.712855
0.712873
0.71289
0.712907
0.712922
0.712936
0.71295
0.712963
0.712975
0.712987
0.712997
0.713008
0.713017
0.713027
0.713035
0.713044
0.713052
0.713059
0.713066
0.713073
0.713079
0.713085
0.713091
0.713097
0.713102
0.713108
0.713113
0.713118
0.713123
0.713128
0.713133
0.713138
0.713142
0.713147
0.713152
0.713157
0.713161
0.713166
0.713171
0.713176
0.713181
0.713186
0.713191
0.713196
0.713202
0.713207
0.712126
0.712104
0.712093
0.712076
0.712066
0.712052
0.712044
0.712034
0.712028
0.712021
0.712017
0.712012
0.712009
0.712007
0.712005
0.712004
0.712004
0.712005
0.712006
0.712007
0.71201
0.712012
0.712015
0.712018
0.712022
0.712026
0.712031
0.712036
0.712041
0.712047
0.712053
0.712059
0.712066
0.712073
0.712081
0.712089
0.712098
0.712107
0.712116
0.712126
0.712137
0.712148
0.712159
0.712171
0.712184
0.712197
0.712211
0.712226
0.712241
0.712257
0.712273
0.712291
0.712308
0.712327
0.712346
0.712366
0.712386
0.712407
0.712428
0.71245
0.712473
0.712496
0.712519
0.712542
0.712566
0.712589
0.712613
0.712637
0.71266
0.712684
0.712707
0.712729
0.712751
0.712773
0.712794
0.712814
0.712834
0.712852
0.71287
0.712887
0.712904
0.712919
0.712934
0.712948
0.712961
0.712973
0.712985
0.712996
0.713007
0.713017
0.713026
0.713035
0.713043
0.713051
0.713058
0.713065
0.713072
0.713079
0.713085
0.713091
0.713097
0.713102
0.713108
0.713113
0.713118
0.713123
0.713128
0.713133
0.713137
0.713142
0.713147
0.713151
0.713156
0.713161
0.713166
0.713171
0.713176
0.71318
0.713186
0.713191
0.713196
0.713201
0.713207
)
;

boundaryField
{
    inlet
    {
        type            zeroGradient;
    }
    outlet
    {
        type            fixedValue;
        value           nonuniform 0();
    }
    walls
    {
        type            zeroGradient;
    }
    symwall
    {
        type            empty;
    }
    procBoundary2to0
    {
        type            processor;
        value           nonuniform List<scalar> 
133
(
0.712077
0.712082
0.712088
0.712094
0.7121
0.712106
0.712113
0.712119
0.712126
0.712134
0.712142
0.71215
0.712158
0.712167
0.712176
0.712186
0.712196
0.712207
0.712218
0.71223
0.712243
0.712257
0.712271
0.712287
0.712304
0.712322
0.712341
0.712362
0.712385
0.712409
0.712436
0.712464
0.712495
0.712527
0.712562
0.712599
0.712638
0.712679
0.712722
0.712766
0.71281
0.712855
0.7129
0.712944
0.712987
0.713028
0.713067
0.713104
0.713137
0.713167
0.713194
0.713218
0.713237
0.713254
0.713267
0.713277
0.713285
0.71329
0.713293
0.713294
0.713294
0.713293
0.713291
0.713289
0.713286
0.713284
0.713281
0.713278
0.713276
0.713274
0.713272
0.713271
0.71327
0.71327
0.71327
0.71327
0.713271
0.712252
0.71221
0.712202
0.712161
0.712149
0.712105
0.71209
0.712039
0.712029
0.711956
0.711973
0.712
0.711994
0.711999
0.711994
0.711996
0.711993
0.711995
0.711993
0.711994
0.711994
0.711995
0.711994
0.711995
0.711995
0.711996
0.711997
0.711998
0.711998
0.712
0.712001
0.712002
0.712003
0.712005
0.712007
0.712009
0.71201
0.712013
0.712015
0.712017
0.71202
0.712023
0.712026
0.712029
0.712032
0.712036
0.712039
0.712043
0.712047
0.712052
0.712056
0.712061
0.712066
0.712071
0.712077
0.712077
)
;
    }
    procBoundary2to1
    {
        type            processor;
        value           uniform 0.713273;
    }
    procBoundary2to3
    {
        type            processor;
        value           nonuniform List<scalar> 10(0.713243 0.713225 0.713216 0.713213 0.713212 0.713212 0.713213 0.713213 0.713213 0.713213);
    }
}


// ************************************************************************* //
