/*--------------------------------*- C++ -*----------------------------------*\
| =========                 |                                                 |
| \\      /  F ield         | OpenFOAM: The Open Source CFD Toolbox           |
|  \\    /   O peration     | Version:  4.1                                   |
|   \\  /    A nd           | Web:      www.OpenFOAM.org                      |
|    \\/     M anipulation  |                                                 |
\*---------------------------------------------------------------------------*/
FoamFile
{
    version     2.0;
    format      ascii;
    class       volVectorField;
    location    "0.0144";
    object      U;
}
// * * * * * * * * * * * * * * * * * * * * * * * * * * * * * * * * * * * * * //

dimensions      [0 1 -1 0 0 0 0];

internalField   nonuniform List<vector> 
441
(
(-0.000123557 0.000111324 0)
(-0.000566619 0.000301324 0)
(-0.00115855 0.000455048 0)
(-0.00183228 0.000536023 0)
(-0.00252165 0.000551587 0)
(-0.00317344 0.000517299 0)
(-0.0037487 0.000447771 0)
(-0.00422045 0.000354412 0)
(-0.00457062 0.00024554 0)
(-0.00478762 0.000127196 0)
(-0.00486467 4.05502e-06 0)
(-0.00479906 -0.000119792 0)
(-0.00459191 -0.000240148 0)
(-0.00424863 -0.000352021 0)
(-0.00377993 -0.000448862 0)
(-0.00320363 -0.000521712 0)
(-0.00254725 -0.000558463 0)
(-0.00185095 -0.0005439 0)
(-0.00116969 -0.000462143 0)
(-0.000571373 -0.000306012 0)
(-0.000124316 -0.00011284 0)
(-0.000345951 0.000539451 0)
(-0.00150788 0.00137952 0)
(-0.00299259 0.00195921 0)
(-0.00464168 0.00224415 0)
(-0.00630643 0.002277 0)
(-0.00786824 0.00211891 0)
(-0.00924009 0.00182576 0)
(-0.0103615 0.00144112 0)
(-0.0111919 0.000996808 0)
(-0.0117053 0.000515993 0)
(-0.0118867 1.66394e-05 0)
(-0.0117301 -0.000485491 0)
(-0.0112382 -0.00097422 0)
(-0.0104229 -0.00143034 0)
(-0.00930853 -0.00182873 0)
(-0.00793491 -0.00213504 0)
(-0.00636355 -0.002303 0)
(-0.004684 -0.00227441 0)
(-0.00301844 -0.00198689 0)
(-0.00151933 -0.00139832 0)
(-0.000347897 -0.000545787 0)
(-0.000550609 0.00115003 0)
(-0.00228256 0.00284932 0)
(-0.00443346 0.00394883 0)
(-0.00678546 0.00446291 0)
(-0.00913918 0.00449404 0)
(-0.0113361 0.00416317 0)
(-0.0132597 0.00357706 0)
(-0.0148288 0.00281827 0)
(-0.015989 0.00194696 0)
(-0.0167057 0.00100688 0)
(-0.0169589 3.18516e-05 0)
(-0.0167406 -0.000948486 0)
(-0.0160542 -0.00190372 0)
(-0.0149156 -0.00279768 0)
(-0.0133569 -0.00358289 0)
(-0.0114313 -0.00419439 0)
(-0.00922143 -0.00454444 0)
(-0.0068471 -0.00452178 0)
(-0.00447176 -0.00400297 0)
(-0.00230009 -0.0028864 0)
(-0.000553928 -0.00116263 0)
(-0.000718464 0.00191249 0)
(-0.00291176 0.00464303 0)
(-0.00559096 0.00634092 0)
(-0.00849081 0.00710318 0)
(-0.0113727 0.00711375 0)
(-0.0140496 0.00656696 0)
(-0.0163851 0.00562929 0)
(-0.0182854 0.00442821 0)
(-0.0196883 0.00305608 0)
(-0.0205548 0.00157968 0)
(-0.0208624 5.02613e-05 0)
(-0.0206018 -0.00148754 0)
(-0.0197763 -0.00298791 0)
(-0.018403 -0.00439596 0)
(-0.0165175 -0.00563911 0)
(-0.0141803 -0.00661744 0)
(-0.0114866 -0.00719521 0)
(-0.00857714 -0.00719859 0)
(-0.00564545 -0.00642902 0)
(-0.00293734 -0.00470363 0)
(-0.00072362 -0.00193313 0)
(-0.000865211 0.00280808 0)
(-0.00346768 0.00672443 0)
(-0.0066153 0.00909506 0)
(-0.00999769 0.010123 0)
(-0.0133391 0.0100935 0)
(-0.0164272 0.00928871 0)
(-0.0191103 0.00794468 0)
(-0.0212865 0.00623995 0)
(-0.0228902 0.00430263 0)
(-0.0238812 0.00222424 0)
(-0.0242365 7.39954e-05 0)
(-0.0239462 -0.00208851 0)
(-0.0230122 -0.00420198 0)
(-0.0214505 -0.00619211 0)
(-0.0192961 -0.00795907 0)
(-0.0166123 -0.00936377 0)
(-0.0135023 -0.0102154 0)
(-0.0101232 -0.0102666 0)
(-0.00669603 -0.00922854 0)
(-0.0035066 -0.00681682 0)
(-0.000873461 -0.00283976 0)
(-0.001011 0.00383607 0)
(-0.00402744 0.00909556 0)
(-0.00765013 0.0122163 0)
(-0.011519 0.0135271 0)
(-0.0153178 0.0134347 0)
(-0.0188084 0.0123258 0)
(-0.0218257 0.0105176 0)
(-0.024263 0.00824712 0)
(-0.026055 0.00568196 0)
(-0.0271635 0.00293953 0)
(-0.027567 0.000106506 0)
(-0.0272554 -0.00274379 0)
(-0.0262283 -0.00553581 0)
(-0.0244974 -0.00817605 0)
(-0.0220935 -0.0105358 0)
(-0.0190782 -0.0124321 0)
(-0.015559 -0.0136103 0)
(-0.0117076 -0.0137364 0)
(-0.00777392 -0.012413 0)
(-0.00408875 -0.00923321 0)
(-0.00102452 -0.00388406 0)
(-0.00117395 0.00501329 0)
(-0.0046591 0.0117939 0)
(-0.00881777 0.0157504 0)
(-0.0132293 0.0173593 0)
(-0.0175297 0.0171732 0)
(-0.0214527 0.0157038 0)
(-0.0248211 0.0133643 0)
(-0.0275274 0.0104593 0)
(-0.0295111 0.00719995 0)
(-0.0307398 0.00373023 0)
(-0.0311962 0.00015248 0)
(-0.0308707 -0.00344914 0)
(-0.0297589 -0.00698762 0)
(-0.027865 -0.0103518 0)
(-0.0252105 -0.0133831 0)
(-0.0218496 -0.0158492 0)
(-0.0178897 -0.0174208 0)
(-0.0135157 -0.0176599 0)
(-0.0090096 -0.0160373 0)
(-0.00475646 -0.0119981 0)
(-0.00119609 -0.00508638 0)
(-0.00136956 0.00637228 0)
(-0.00542089 0.0148877 0)
(-0.0102202 0.0197767 0)
(-0.0152688 0.0216933 0)
(-0.0201445 0.0213679 0)
(-0.0245501 0.0194643 0)
(-0.0282994 0.0165113 0)
(-0.0312899 0.0128921 0)
(-0.0334724 0.00886613 0)
(-0.0348261 0.00460321 0)
(-0.0353418 0.000217923 0)
(-0.035011 -0.00419982 0)
(-0.0338238 -0.00855668 0)
(-0.0317722 -0.0127274 0)
(-0.0288617 -0.0165233 0)
(-0.0251307 -0.0196573 0)
(-0.0206791 -0.0217116 0)
(-0.0157015 -0.022121 0)
(-0.0105158 -0.0201934 0)
(-0.00557423 -0.0151907 0)
(-0.00140524 -0.00648441 0)
(-0.00161132 0.00796025 0)
(-0.00636381 0.0184723 0)
(-0.0119433 0.0244014 0)
(-0.0177486 0.0266225 0)
(-0.0232863 0.0260884 0)
(-0.0282273 0.0236521 0)
(-0.0323825 0.0199832 0)
(-0.0356641 0.0155571 0)
(-0.0380444 0.010686 0)
(-0.0395226 0.00556352 0)
(-0.0401024 0.00031021 0)
(-0.0397786 -0.00498645 0)
(-0.0385335 -0.0102352 0)
(-0.036341 -0.0153032 0)
(-0.0331806 -0.0199738 0)
(-0.0290631 -0.0238997 0)
(-0.0240688 -0.0265579 0)
(-0.0183937 -0.0272256 0)
(-0.0123927 -0.0250043 0)
(-0.00660158 -0.0189221 0)
(-0.00166764 -0.00813286 0)
(-0.00191044 0.00983921 0)
(-0.00753091 0.0226682 0)
(-0.0140544 0.0297511 0)
(-0.0207445 0.0322485 0)
(-0.0270232 0.0314002 0)
(-0.0325322 0.0282987 0)
(-0.0370921 0.0237869 0)
(-0.0406455 0.0184487 0)
(-0.0432007 0.012652 0)
(-0.0447881 0.00660953 0)
(-0.0454316 0.000437753 0)
(-0.0451322 -0.00579061 0)
(-0.0438622 -0.0119991 0)
(-0.0415699 -0.0180584 0)
(-0.0381963 -0.0237301 0)
(-0.0337072 -0.0286027 0)
(-0.0281435 -0.0320289 0)
(-0.0216866 -0.0330891 0)
(-0.0147244 -0.0306173 0)
(-0.00789243 -0.0233338 0)
(-0.00199739 -0.0101044 0)
(-0.0022732 0.0120862 0)
(-0.00894726 0.0276166 0)
(-0.0165814 0.0359603 0)
(-0.0242634 0.0386624 0)
(-0.0313206 0.0373418 0)
(-0.0373769 0.0333993 0)
(-0.0422846 0.0278915 0)
(-0.0460399 0.0215276 0)
(-0.0487069 0.0147318 0)
(-0.050362 0.00772631 0)
(-0.0510582 0.00060877 0)
(-0.0508062 -0.00658037 0)
(-0.0495668 -0.0137979 0)
(-0.047255 -0.020935 0)
(-0.0437582 -0.0277435 0)
(-0.0389744 -0.0337489 0)
(-0.0328761 -0.0381607 0)
(-0.0256016 -0.0398134 0)
(-0.0175548 -0.0371905 0)
(-0.00948365 -0.0285939 0)
(-0.00240405 -0.0124909 0)
(-0.00269351 0.0147912 0)
(-0.0105926 0.0334676 0)
(-0.0194602 0.0431464 0)
(-0.0281647 0.0459095 0)
(-0.0359386 0.043887 0)
(-0.042416 0.0388775 0)
(-0.047516 0.0321983 0)
(-0.0513205 0.0246982 0)
(-0.0539736 0.0168524 0)
(-0.0556136 0.0088764 0)
(-0.0563324 0.000828425 0)
(-0.056155 -0.00730642 0)
(-0.0550305 -0.0155424 0)
(-0.0528345 -0.0238159 0)
(-0.0493859 -0.0318902 0)
(-0.0444886 -0.0392379 0)
(-0.0380083 -0.0449116 0)
(-0.0299937 -0.0474448 0)
(-0.0208269 -0.044861 0)
(-0.011364 -0.0348823 0)
(-0.00288456 -0.015401 0)
(-0.00313817 0.0180474 0)
(-0.0123465 0.0403482 0)
(-0.0224339 0.0513571 0)
(-0.0320134 0.0539262 0)
(-0.0402494 0.0508819 0)
(-0.0468389 0.0445314 0)
(-0.0518197 0.036499 0)
(-0.0553982 0.0277787 0)
(-0.0578228 0.0188803 0)
(-0.0593072 0.00998795 0)
(-0.0599897 0.00109378 0)
(-0.0599141 -0.00789987 0)
(-0.0590203 -0.017094 0)
(-0.0571436 -0.0265019 0)
(-0.0540262 -0.0359314 0)
(-0.0493543 -0.0448282 0)
(-0.0428424 -0.0520891 0)
(-0.0343839 -0.0558963 0)
(-0.0242659 -0.0536792 0)
(-0.0134117 -0.0423519 0)
(-0.00340694 -0.0189496 0)
(-0.00352043 0.0219287 0)
(-0.0138911 0.0482964 0)
(-0.02488 0.060471 0)
(-0.034844 0.0624325 0)
(-0.0429568 0.0579497 0)
(-0.0490666 0.0499593 0)
(-0.053396 0.0404245 0)
(-0.0563127 0.030468 0)
(-0.0581843 0.0206009 0)
(-0.0593028 0.0109421 0)
(-0.0598528 0.00138667 0)
(-0.0598988 -0.00827385 0)
(-0.0593786 -0.018257 0)
(-0.0580973 -0.0286894 0)
(-0.0557271 -0.0394686 0)
(-0.0518301 -0.0500619 0)
(-0.0459327 -0.0592432 0)
(-0.0376931 -0.0648193 0)
(-0.0271847 -0.0634861 0)
(-0.0152863 -0.0510447 0)
(-0.00388165 -0.0232308 0)
(-0.00365524 0.026442 0)
(-0.0145518 0.0571372 0)
(-0.0255444 0.0700325 0)
(-0.0348214 0.0707704 0)
(-0.0417251 0.0643628 0)
(-0.0463808 0.0544749 0)
(-0.0492597 0.0433949 0)
(-0.0509054 0.0323199 0)
(-0.0517918 0.0217066 0)
(-0.0522693 0.0115656 0)
(-0.0525529 0.0016664 0)
(-0.0527245 -0.00833139 0)
(-0.0527314 -0.0187838 0)
(-0.0523749 -0.0299637 0)
(-0.0512931 -0.0419106 0)
(-0.0489546 -0.0541892 0)
(-0.0446975 -0.065534 0)
(-0.0378768 -0.0734197 0)
(-0.0281916 -0.0737128 0)
(-0.0162541 -0.0607393 0)
(-0.00411414 -0.0282617 0)
(-0.00318005 0.0314423 0)
(-0.013029 0.0662789 0)
(-0.0221401 0.0790047 0)
(-0.0287923 0.0776964 0)
(-0.0327583 0.0689092 0)
(-0.0345692 0.0570425 0)
(-0.0349613 0.0446033 0)
(-0.0346079 0.0327514 0)
(-0.0340248 0.0218103 0)
(-0.0335623 0.0116396 0)
(-0.0334275 0.00186691 0)
(-0.0337062 -0.00798198 0)
(-0.0343702 -0.0184025 0)
(-0.0352623 -0.0298282 0)
(-0.0360618 -0.0424865 0)
(-0.0362377 -0.0561343 0)
(-0.0350216 -0.0696167 0)
(-0.0314737 -0.0802428 0)
(-0.0247694 -0.0830979 0)
(-0.0149039 -0.0707034 0)
(-0.00372307 -0.0338838 0)
(-0.00138493 0.0364743 0)
(-0.00689044 0.0743812 0)
(-0.0107113 0.0854412 0)
(-0.0117207 0.0811775 0)
(-0.0104113 0.0698276 0)
(-0.00773374 0.0563063 0)
(-0.00456497 0.043088 0)
(-0.00154922 0.0311217 0)
(0.000896466 0.0205106 0)
(0.00252453 0.0109392 0)
(0.00319876 0.00190554 0)
(0.00285419 -0.00716715 0)
(0.00148131 -0.0168785 0)
(-0.000862266 -0.0277989 0)
(-0.00400804 -0.0403561 0)
(-0.00759699 -0.0545846 0)
(-0.0109725 -0.0696445 0)
(-0.0130974 -0.0830156 0)
(-0.0126466 -0.0893534 0)
(-0.00862871 -0.0793161 0)
(-0.00196825 -0.0395838 0)
(0.00325662 0.0405001 0)
(0.00856893 0.0788895 0)
(0.0155048 0.0861748 0)
(0.0240453 0.0783603 0)
(0.0330568 0.0649752 0)
(0.0415512 0.0508367 0)
(0.0489079 0.0379732 0)
(0.0548201 0.0269275 0)
(0.0591778 0.017531 0)
(0.0619647 0.00931608 0)
(0.0631868 0.00171041 0)
(0.0628313 -0.00589191 0)
(0.0608462 -0.0141142 0)
(0.0571423 -0.0235853 0)
(0.0516219 -0.0348775 0)
(0.0442531 -0.0483207 0)
(0.0352137 -0.0635749 0)
(0.0251168 -0.0787698 0)
(0.0152559 -0.088946 0)
(0.00750162 -0.083582 0)
(0.00272481 -0.0441873 0)
(0.0149542 0.0410479 0)
(0.0432502 0.0749928 0)
(0.0682424 0.0765747 0)
(0.0896895 0.0659664 0)
(0.107397 0.0524548 0)
(0.121519 0.0397239 0)
(0.132413 0.0289309 0)
(0.140492 0.0201261 0)
(0.146142 0.012927 0)
(0.14966 0.0068183 0)
(0.151233 0.00126773 0)
(0.150919 -0.00424926 0)
(0.148634 -0.0102638 0)
(0.144145 -0.0173329 0)
(0.13705 -0.0260297 0)
(0.126779 -0.0368546 0)
(0.112649 -0.0499704 0)
(0.0940181 -0.0645405 0)
(0.0706937 -0.0771754 0)
(0.0435442 -0.0782312 0)
(0.014639 -0.0449992 0)
(0.0490498 0.0339498 0)
(0.120246 0.056236 0)
(0.168358 0.0523597 0)
(0.20082 0.042344 0)
(0.223557 0.0322665 0)
(0.239699 0.0237016 0)
(0.251166 0.0168752 0)
(0.259186 0.0115386 0)
(0.264574 0.00731176 0)
(0.267852 0.00380854 0)
(0.269318 0.000672486 0)
(0.269079 -0.00242812 0)
(0.267056 -0.00582188 0)
(0.262956 -0.00985775 0)
(0.256221 -0.014918 0)
(0.245908 -0.0214031 0)
(0.230506 -0.0296562 0)
(0.207602 -0.0397212 0)
(0.173478 -0.0505873 0)
(0.122166 -0.0568348 0)
(0.0491162 -0.0373828 0)
(0.182756 0.00448481 0)
(0.296125 0.00758652 0)
(0.349114 0.0106027 0)
(0.375161 0.0100082 0)
(0.390362 0.00806179 0)
(0.39994 0.00604176 0)
(0.406253 0.00432461 0)
(0.410451 0.00295257 0)
(0.413174 0.00185869 0)
(0.41479 0.000951349 0)
(0.415497 0.000140109 0)
(0.415369 -0.00065969 0)
(0.414367 -0.00152916 0)
(0.412327 -0.00254722 0)
(0.408907 -0.00378343 0)
(0.403459 -0.00526937 0)
(0.394731 -0.00691988 0)
(0.380036 -0.00835741 0)
(0.353358 -0.00856309 0)
(0.297549 -0.00636844 0)
(0.181032 -0.00712247 0)
)
;

boundaryField
{
    movingWall
    {
        type            fixedValue;
        value           uniform (0.5 0 0);
    }
    fixedWalls
    {
        type            noSlip;
    }
    frontAndBack
    {
        type            empty;
    }
}


// ************************************************************************* //
