/*--------------------------------*- C++ -*----------------------------------*\
| =========                 |                                                 |
| \\      /  F ield         | OpenFOAM: The Open Source CFD Toolbox           |
|  \\    /   O peration     | Version:  4.1                                   |
|   \\  /    A nd           | Web:      www.OpenFOAM.org                      |
|    \\/     M anipulation  |                                                 |
\*---------------------------------------------------------------------------*/
FoamFile
{
    version     2.0;
    format      ascii;
    class       volVectorField;
    location    "0.0108";
    object      U;
}
// * * * * * * * * * * * * * * * * * * * * * * * * * * * * * * * * * * * * * //

dimensions      [0 1 -1 0 0 0 0];

internalField   nonuniform List<vector> 
441
(
(-0.000133958 0.000124796 0)
(-0.000592992 0.000302524 0)
(-0.00116943 0.000428668 0)
(-0.00179454 0.000482713 0)
(-0.00241114 0.000480519 0)
(-0.002979 0.000439965 0)
(-0.00347126 0.000374508 0)
(-0.00387024 0.000293096 0)
(-0.00416417 0.000201539 0)
(-0.00434538 0.000103808 0)
(-0.0044093 2.94069e-06 0)
(-0.00435406 -9.83847e-05 0)
(-0.00418048 -0.000197432 0)
(-0.00389219 -0.000290998 0)
(-0.00349621 -0.000374835 0)
(-0.00300398 -0.000442755 0)
(-0.00243334 -0.000485357 0)
(-0.00181179 -0.000488706 0)
(-0.00118064 -0.000434534 0)
(-0.000598401 -0.000306826 0)
(-0.000135015 -0.000126489 0)
(-0.000338829 0.000573558 0)
(-0.00146262 0.00135649 0)
(-0.00283325 0.00182326 0)
(-0.00429407 0.00200229 0)
(-0.00572024 0.001968 0)
(-0.00702534 0.00178948 0)
(-0.00815194 0.00151726 0)
(-0.00906231 0.00118472 0)
(-0.00973144 0.000813597 0)
(-0.010143 0.00041884 0)
(-0.0102875 1.20155e-05 0)
(-0.0101609 -0.000396593 0)
(-0.00976499 -0.000796485 0)
(-0.00910759 -0.00117546 0)
(-0.00820358 -0.00151748 0)
(-0.00707727 -0.00179939 0)
(-0.00576667 -0.00198603 0)
(-0.00433044 -0.00202509 0)
(-0.0028571 -0.00184598 0)
(-0.00147423 -0.00137363 0)
(-0.000341032 -0.000580388 0)
(-0.000510046 0.00117251 0)
(-0.00210358 0.00272283 0)
(-0.00400821 0.00359393 0)
(-0.00601736 0.00390659 0)
(-0.00796791 0.00381719 0)
(-0.00974693 0.00345869 0)
(-0.0112791 0.00292598 0)
(-0.0125151 0.00228132 0)
(-0.0134224 0.00156509 0)
(-0.01398 0.000805047 0)
(-0.0141756 2.2624e-05 0)
(-0.0140043 -0.000763159 0)
(-0.0134681 -0.00153288 0)
(-0.0125768 -0.00226393 0)
(-0.0113497 -0.00292656 0)
(-0.00981817 -0.00347765 0)
(-0.00803191 -0.00385166 0)
(-0.00606778 -0.00395024 0)
(-0.00404157 -0.00363756 0)
(-0.00212008 -0.00275588 0)
(-0.000513386 -0.00118565 0)
(-0.000640127 0.00188627 0)
(-0.00258469 0.00432462 0)
(-0.00488066 0.00564977 0)
(-0.00728617 0.00610282 0)
(-0.00961095 0.0059399 0)
(-0.0117242 0.0053683 0)
(-0.0135395 0.00453348 0)
(-0.0150009 0.00353029 0)
(-0.0160721 0.00241996 0)
(-0.0167304 0.00124427 0)
(-0.0169622 3.51648e-05 0)
(-0.0167622 -0.00117917 0)
(-0.0161321 -0.00236998 0)
(-0.0150822 -0.00350348 0)
(-0.0136328 -0.00453487 0)
(-0.0118189 -0.00539866 0)
(-0.00969646 -0.00599484 0)
(-0.00735397 -0.00617242 0)
(-0.00492589 -0.00571943 0)
(-0.00260735 -0.00437744 0)
(-0.000644903 -0.0019072 0)
(-0.000750126 0.00269806 0)
(-0.00299777 0.00612937 0)
(-0.00563165 0.00795456 0)
(-0.00837735 0.00855433 0)
(-0.0110195 0.00830022 0)
(-0.013412 0.00748448 0)
(-0.0154602 0.0063098 0)
(-0.0171045 0.00490747 0)
(-0.0183079 0.00336152 0)
(-0.0190475 0.00172853 0)
(-0.0193103 5.09816e-05 0)
(-0.0190904 -0.00163412 0)
(-0.0183891 -0.00328895 0)
(-0.017215 -0.00486852 0)
(-0.0155877 -0.00631197 0)
(-0.0135422 -0.00752918 0)
(-0.011138 -0.00838129 0)
(-0.00847213 -0.00865738 0)
(-0.00569554 -0.00805803 0)
(-0.00303023 -0.00620801 0)
(-0.000757193 -0.00272923 0)
(-0.000860429 0.00361053 0)
(-0.00342001 0.0081454 0)
(-0.00640292 0.0105198 0)
(-0.00949771 0.0112721 0)
(-0.0124612 0.010906 0)
(-0.0151316 0.00981121 0)
(-0.0174071 0.00825574 0)
(-0.0192271 0.00641194 0)
(-0.020556 0.00438879 0)
(-0.0213732 0.00225805 0)
(-0.0216672 7.21168e-05 0)
(-0.0214326 -0.00212433 0)
(-0.0206687 -0.00428555 0)
(-0.0193814 -0.00635586 0)
(-0.0175863 -0.00825775 0)
(-0.0153159 -0.00987391 0)
(-0.0126305 -0.0110213 0)
(-0.00963461 -0.0114198 0)
(-0.00649634 -0.010669 0)
(-0.00346821 -0.00825951 0)
(-0.000871208 -0.00365605 0)
(-0.000986794 0.0046415 0)
(-0.00390972 0.0104112 0)
(-0.0072982 0.0133911 0)
(-0.0107942 0.0142995 0)
(-0.0141207 0.0137932 0)
(-0.0170985 0.0123752 0)
(-0.0196201 0.0103895 0)
(-0.0216262 0.00805531 0)
(-0.0230861 0.00550894 0)
(-0.0239845 0.00283732 0)
(-0.0243132 0.00010122 0)
(-0.0240674 -0.00264921 0)
(-0.0232441 -0.00536254 0)
(-0.0218435 -0.00797389 0)
(-0.0198743 -0.010389 0)
(-0.0173626 -0.0124603 0)
(-0.0143659 -0.0139537 0)
(-0.0109948 -0.014508 0)
(-0.0074369 -0.013604 0)
(-0.00398236 -0.0105755 0)
(-0.00100339 -0.0047079 0)
(-0.00114173 0.00582087 0)
(-0.00451321 0.0129881 0)
(-0.00839792 0.016639 0)
(-0.0123766 0.0177018 0)
(-0.0161303 0.0170143 0)
(-0.0194603 0.0152145 0)
(-0.0222558 0.0127361 0)
(-0.0244636 0.00985298 0)
(-0.0260627 0.00673115 0)
(-0.0270471 0.00347193 0)
(-0.0274149 0.000141656 0)
(-0.0271625 -0.00320786 0)
(-0.0262832 -0.0065233 0)
(-0.0247688 -0.00973352 0)
(-0.0226162 -0.0127281 0)
(-0.0198387 -0.0153265 0)
(-0.016486 -0.0172346 0)
(-0.0126715 -0.0179937 0)
(-0.00860465 -0.0169416 0)
(-0.00462308 -0.0132248 0)
(-0.00116728 -0.00591816 0)
(-0.0013367 0.00718982 0)
(-0.00527344 0.015958 0)
(-0.00977445 0.0203541 0)
(-0.014339 0.0215586 0)
(-0.0185958 0.0206292 0)
(-0.022326 0.0183683 0)
(-0.0254205 0.0153183 0)
(-0.02784 0.0118165 0)
(-0.0295808 0.00806121 0)
(-0.0306522 0.00416587 0)
(-0.0310623 0.000197675 0)
(-0.0308105 -0.00379588 0)
(-0.0298849 -0.00776581 0)
(-0.0282644 -0.0116398 0)
(-0.0259269 -0.0152937 0)
(-0.0228645 -0.0185111 0)
(-0.0191093 -0.0209273 0)
(-0.0147712 -0.0219646 0)
(-0.0100822 -0.0207835 0)
(-0.00543949 -0.0162997 0)
(-0.00137587 -0.00733321 0)
(-0.00158345 0.0088026 0)
(-0.00623545 0.0194251 0)
(-0.0115007 0.0246462 0)
(-0.0167694 0.0259592 0)
(-0.0216063 0.0246974 0)
(-0.025775 0.0218683 0)
(-0.0291781 0.0181472 0)
(-0.0318023 0.0139458 0)
(-0.0336728 0.00949581 0)
(-0.0348228 0.00491856 0)
(-0.0352758 0.000274501 0)
(-0.0350361 -0.00440229 0)
(-0.0340848 -0.0090765 0)
(-0.0323828 -0.013683 0)
(-0.0298795 -0.0180894 0)
(-0.0265323 -0.0220422 0)
(-0.0223409 -0.025094 0)
(-0.0173989 -0.0265193 0)
(-0.011957 -0.0252538 0)
(-0.00648564 -0.0199192 0)
(-0.00164324 -0.00901502 0)
(-0.00189347 0.0107299 0)
(-0.0074446 0.0235193 0)
(-0.0136448 0.0296422 0)
(-0.0197386 0.0309949 0)
(-0.0252164 0.0292663 0)
(-0.0298328 0.0257251 0)
(-0.0335203 0.0212102 0)
(-0.0363104 0.0162189 0)
(-0.0382729 0.0110155 0)
(-0.0394764 0.00572114 0)
(-0.0399668 0.000378049 0)
(-0.0397558 -0.00500603 0)
(-0.0388164 -0.0104231 0)
(-0.0370848 -0.0158281 0)
(-0.0344701 -0.0210904 0)
(-0.0308772 -0.0259224 0)
(-0.0262504 -0.0297815 0)
(-0.0206441 -0.0317587 0)
(-0.0143149 -0.0304983 0)
(-0.00781887 -0.0242342 0)
(-0.00198403 -0.0110458 0)
(-0.00227317 0.0130627 0)
(-0.00892972 0.0283982 0)
(-0.0162369 0.0354794 0)
(-0.0232487 0.0367433 0)
(-0.0293764 0.0343507 0)
(-0.0343873 0.0299072 0)
(-0.0382728 0.0244521 0)
(-0.0411362 0.0185779 0)
(-0.0431118 0.012575 0)
(-0.0443173 0.00655099 0)
(-0.0448286 0.000513831 0)
(-0.044668 -0.00557261 0)
(-0.0437997 -0.0117458 0)
(-0.0421297 -0.018 0)
(-0.039514 -0.0242233 0)
(-0.0357826 -0.0301039 0)
(-0.0307925 -0.0349961 0)
(-0.0245216 -0.0377652 0)
(-0.0172033 -0.0366741 0)
(-0.00948129 -0.0294297 0)
(-0.00240841 -0.0135327 0)
(-0.00271086 0.0159119 0)
(-0.0106555 0.0342368 0)
(-0.0191812 0.042278 0)
(-0.0271039 0.0432293 0)
(-0.0337701 0.0398918 0)
(-0.0390017 0.0343049 0)
(-0.0428929 0.0277471 0)
(-0.0456525 0.020908 0)
(-0.0475014 0.0140893 0)
(-0.0486183 0.00736405 0)
(-0.0491156 0.000684307 0)
(-0.04903 -0.00605133 0)
(-0.0483175 -0.0129486 0)
(-0.0468514 -0.0200657 0)
(-0.0444251 -0.027337 0)
(-0.0407721 -0.0344485 0)
(-0.0356231 -0.0406549 0)
(-0.0288248 -0.044555 0)
(-0.0205301 -0.0439148 0)
(-0.0114468 -0.0357106 0)
(-0.00290801 -0.0166085 0)
(-0.00314832 0.0193967 0)
(-0.0124186 0.0411852 0)
(-0.0220697 0.0500707 0)
(-0.0306525 0.050345 0)
(-0.0375033 0.045683 0)
(-0.0425707 0.0386717 0)
(-0.046109 0.0308569 0)
(-0.0484664 0.0230111 0)
(-0.0499655 0.0154174 0)
(-0.0508509 0.00808496 0)
(-0.0512729 0.000884011 0)
(-0.0512838 -0.00637509 0)
(-0.0508358 -0.0138905 0)
(-0.0497744 -0.0218146 0)
(-0.0478319 -0.0301647 0)
(-0.0446352 -0.0386665 0)
(-0.039754 -0.0465021 0)
(-0.0328348 -0.051981 0)
(-0.0238545 -0.0522429 0)
(-0.0135053 -0.0432492 0)
(-0.00342514 -0.0204174 0)
(-0.00342594 0.0236037 0)
(-0.0136489 0.0492609 0)
(-0.0238439 0.0586534 0)
(-0.0323417 0.0577001 0)
(-0.0385951 0.0512498 0)
(-0.0427849 0.0425406 0)
(-0.0453808 0.03338 0)
(-0.0468856 0.0245764 0)
(-0.0477165 0.0163464 0)
(-0.04817 0.00859745 0)
(-0.0484227 0.0010926 0)
(-0.0485403 -0.00646505 0)
(-0.0484787 -0.0143857 0)
(-0.0480744 -0.022944 0)
(-0.0470235 -0.0322852 0)
(-0.0448664 -0.0422374 0)
(-0.0410075 -0.0519791 0)
(-0.0348343 -0.0595589 0)
(-0.0260139 -0.0613863 0)
(-0.0150454 -0.0520505 0)
(-0.00379453 -0.0250683 0)
(-0.00318383 0.0284946 0)
(-0.0130641 0.0581262 0)
(-0.0222507 0.0673132 0)
(-0.0290624 0.0643856 0)
(-0.0332938 0.0556858 0)
(-0.0354657 0.0451313 0)
(-0.0362741 0.0347075 0)
(-0.0363351 0.0251657 0)
(-0.0361056 0.016588 0)
(-0.0358865 0.00874228 0)
(-0.0358499 0.00126838 0)
(-0.0360638 -0.00624276 0)
(-0.0364998 -0.0142173 0)
(-0.0370209 -0.0230667 0)
(-0.037348 -0.0331037 0)
(-0.0370129 -0.0443381 0)
(-0.0353256 -0.056068 0)
(-0.031425 -0.0662118 0)
(-0.0245435 -0.0704619 0)
(-0.0146855 -0.0616829 0)
(-0.00364057 -0.0305274 0)
(-0.00166862 0.0337124 0)
(-0.00806911 0.0666817 0)
(-0.0130347 0.0744084 0)
(-0.0153386 0.0686772 0)
(-0.015379 0.0575021 0)
(-0.0140159 0.0453048 0)
(-0.0120451 0.0340365 0)
(-0.0100449 0.0242462 0)
(-0.00838379 0.0158099 0)
(-0.00727605 0.00833583 0)
(-0.00683549 0.00134848 0)
(-0.00711159 -0.00565082 0)
(-0.00810382 -0.0131784 0)
(-0.00975232 -0.0217653 0)
(-0.0119009 -0.0319014 0)
(-0.0142282 -0.0438468 0)
(-0.0161519 -0.057187 0)
(-0.0167533 -0.069992 0)
(-0.0148638 -0.0775234 0)
(-0.00965686 -0.0708085 0)
(-0.00218127 -0.0364018 0)
(0.00274359 0.0382503 0)
(0.00641917 0.0724694 0)
(0.0112666 0.0769024 0)
(0.0175027 0.0678523 0)
(0.0242051 0.0546611 0)
(0.0305582 0.0416999 0)
(0.03606 0.0305246 0)
(0.0404708 0.0213234 0)
(0.0437095 0.0137325 0)
(0.045768 0.0072262 0)
(0.0466556 0.0012647 0)
(0.0463676 -0.00468017 0)
(0.0448702 -0.0111493 0)
(0.0420993 -0.0187261 0)
(0.0379789 -0.0280245 0)
(0.032474 -0.0395574 0)
(0.0257055 -0.0533439 0)
(0.018145 -0.0680209 0)
(0.0108445 -0.0791543 0)
(0.00536155 -0.0765417 0)
(0.00225564 -0.0415661 0)
(0.0143816 0.0395441 0)
(0.0407766 0.0705048 0)
(0.063282 0.0699694 0)
(0.0819615 0.0584365 0)
(0.0969119 0.0450744 0)
(0.108521 0.0332237 0)
(0.117289 0.0236763 0)
(0.123692 0.0162116 0)
(0.128121 0.0103019 0)
(0.130859 0.00539268 0)
(0.132074 0.000981127 0)
(0.131823 -0.00339458 0)
(0.130044 -0.00819984 0)
(0.126542 -0.0139532 0)
(0.120963 -0.0212538 0)
(0.112763 -0.0307324 0)
(0.101225 -0.0428135 0)
(0.0855652 -0.0570308 0)
(0.0653124 -0.0703719 0)
(0.0409369 -0.0733984 0)
(0.0140779 -0.0432372 0)
(0.0486462 0.0332162 0)
(0.11837 0.053882 0)
(0.164438 0.0487845 0)
(0.194547 0.0382214 0)
(0.214917 0.0282193 0)
(0.228911 0.0201505 0)
(0.238588 0.0140251 0)
(0.245225 0.00943573 0)
(0.249626 0.00591923 0)
(0.252286 0.00306836 0)
(0.253476 0.000545225 0)
(0.253293 -0.0019448 0)
(0.251672 -0.00469211 0)
(0.248362 -0.0080236 0)
(0.242851 -0.0123363 0)
(0.234236 -0.0181049 0)
(0.220988 -0.0258209 0)
(0.200585 -0.0357351 0)
(0.16906 -0.0470391 0)
(0.120086 -0.0543951 0)
(0.0487039 -0.0365419 0)
(0.182636 0.00432082 0)
(0.295493 0.00701693 0)
(0.347678 0.00969949 0)
(0.372736 0.00895128 0)
(0.386913 0.00701991 0)
(0.39556 0.0051282 0)
(0.401103 0.00359409 0)
(0.404717 0.00241726 0)
(0.407034 0.00150863 0)
(0.408403 0.000771059 0)
(0.409007 0.000118978 0)
(0.408911 -0.000522701 0)
(0.408084 -0.00122558 0)
(0.406377 -0.00206377 0)
(0.403471 -0.00311209 0)
(0.398736 -0.0044232 0)
(0.390914 -0.00595184 0)
(0.377269 -0.0073741 0)
(0.351675 -0.00771971 0)
(0.296814 -0.00582859 0)
(0.180916 -0.00696356 0)
)
;

boundaryField
{
    movingWall
    {
        type            fixedValue;
        value           uniform (0.5 0 0);
    }
    fixedWalls
    {
        type            noSlip;
    }
    frontAndBack
    {
        type            empty;
    }
}


// ************************************************************************* //
