/*--------------------------------*- C++ -*----------------------------------*\
| =========                 |                                                 |
| \\      /  F ield         | OpenFOAM: The Open Source CFD Toolbox           |
|  \\    /   O peration     | Version:  4.1                                   |
|   \\  /    A nd           | Web:      www.OpenFOAM.org                      |
|    \\/     M anipulation  |                                                 |
\*---------------------------------------------------------------------------*/
FoamFile
{
    version     2.0;
    format      ascii;
    class       volScalarField;
    location    "105";
    object      p;
}
// * * * * * * * * * * * * * * * * * * * * * * * * * * * * * * * * * * * * * //

dimensions      [1 -1 -2 0 0 0 0];

internalField   nonuniform List<scalar> 
3264
(
0.712868
0.712865
0.712859
0.712851
0.71284
0.712829
0.712815
0.712802
0.712789
0.712777
0.712768
0.712761
0.712759
0.712762
0.71277
0.712786
0.712809
0.712841
0.712881
0.712931
0.712991
0.713061
0.71314
0.713229
0.713327
0.713433
0.713546
0.713665
0.713788
0.713915
0.714043
0.714171
0.714298
0.714421
0.714539
0.71465
0.714755
0.714851
0.714938
0.715016
0.715084
0.715143
0.715193
0.715236
0.715271
0.715301
0.715326
0.715347
0.715366
0.715384
0.715401
0.715419
0.715437
0.715458
0.715481
0.715505
0.715532
0.715561
0.715591
0.715622
0.715652
0.715681
0.715709
0.715733
0.715754
0.715771
0.715784
0.715794
0.7158
0.715802
0.715802
0.715799
0.715795
0.715789
0.715781
0.715772
0.715763
0.715752
0.715741
0.71573
0.715719
0.715707
0.715695
0.715683
0.715671
0.715659
0.715647
0.715635
0.715623
0.715611
0.715598
0.715586
0.715574
0.715562
0.71555
0.715538
0.715526
0.715514
0.715502
0.71549
0.715478
0.715466
0.715454
0.715442
0.71543
0.715418
0.715406
0.715394
0.715382
0.71537
0.715358
0.715346
0.715334
0.715322
0.71531
0.715298
0.715286
0.715274
0.715262
0.71525
0.715238
0.715226
0.715214
0.715202
0.71519
0.715178
0.715167
0.715155
0.715143
0.715131
0.715119
0.715107
0.715095
0.715083
0.715071
0.715059
0.715047
0.715035
0.715023
0.715011
0.714999
0.714987
0.714975
0.714963
0.714951
0.714939
0.714927
0.714915
0.714903
0.714891
0.714879
0.714867
0.714855
0.714843
0.714831
0.714819
0.714807
0.714795
0.714783
0.714771
0.714759
0.714747
0.714735
0.714723
0.714711
0.714699
0.714687
0.714675
0.714663
0.714651
0.714639
0.714627
0.714615
0.714603
0.714591
0.71458
0.714568
0.714556
0.714544
0.714532
0.71452
0.714508
0.714496
0.714484
0.714472
0.71446
0.714448
0.714436
0.714424
0.714412
0.7144
0.714388
0.714376
0.714364
0.714352
0.71434
0.714328
0.714316
0.714304
0.714292
0.712872
0.712869
0.712864
0.712857
0.712848
0.712837
0.712824
0.712811
0.712797
0.712784
0.712774
0.712766
0.712762
0.712763
0.71277
0.712784
0.712805
0.712835
0.712874
0.712923
0.712981
0.71305
0.713128
0.713216
0.713313
0.713419
0.713531
0.71365
0.713773
0.7139
0.714029
0.714157
0.714284
0.714407
0.714526
0.714639
0.714744
0.714841
0.714929
0.715007
0.715076
0.715136
0.715187
0.715231
0.715267
0.715297
0.715322
0.715344
0.715363
0.715381
0.715399
0.715416
0.715435
0.715455
0.715478
0.715503
0.71553
0.715559
0.715589
0.71562
0.715651
0.715681
0.715709
0.715734
0.715755
0.715772
0.715786
0.715795
0.715801
0.715803
0.715803
0.7158
0.715796
0.715789
0.715781
0.715773
0.715763
0.715752
0.715742
0.71573
0.715719
0.715707
0.715695
0.715683
0.715671
0.715659
0.715647
0.715635
0.715623
0.715611
0.715598
0.715586
0.715574
0.715562
0.71555
0.715538
0.715526
0.715514
0.715502
0.71549
0.715478
0.715466
0.715454
0.715442
0.71543
0.715418
0.715406
0.715394
0.715382
0.71537
0.715358
0.715346
0.715334
0.715322
0.71531
0.715298
0.715286
0.715274
0.715262
0.71525
0.715238
0.715226
0.715214
0.715202
0.71519
0.715178
0.715167
0.715155
0.715143
0.715131
0.715119
0.715107
0.715095
0.715083
0.715071
0.715059
0.715047
0.715035
0.715023
0.715011
0.714999
0.714987
0.714975
0.714963
0.714951
0.714939
0.714927
0.714915
0.714903
0.714891
0.714879
0.714867
0.714855
0.714843
0.714831
0.714819
0.714807
0.714795
0.714783
0.714771
0.714759
0.714747
0.714735
0.714723
0.714711
0.714699
0.714687
0.714675
0.714663
0.714651
0.714639
0.714627
0.714615
0.714603
0.714591
0.71458
0.714568
0.714556
0.714544
0.714532
0.71452
0.714508
0.714496
0.714484
0.714472
0.71446
0.714448
0.714436
0.714424
0.714412
0.7144
0.714388
0.714376
0.714364
0.714352
0.71434
0.714328
0.714316
0.714304
0.714292
0.712879
0.712874
0.712869
0.712861
0.712851
0.712838
0.712824
0.712809
0.712793
0.712779
0.712767
0.712758
0.712753
0.712753
0.712758
0.712771
0.712792
0.712821
0.712859
0.712907
0.712965
0.713033
0.713111
0.713198
0.713295
0.7134
0.713513
0.713632
0.713755
0.713882
0.714011
0.71414
0.714267
0.714391
0.71451
0.714623
0.714729
0.714827
0.714916
0.714995
0.715065
0.715125
0.715177
0.715221
0.715258
0.715288
0.715314
0.715336
0.715355
0.715374
0.715391
0.71541
0.71543
0.715451
0.715475
0.7155
0.715528
0.715558
0.715589
0.715621
0.715653
0.715684
0.715712
0.715737
0.715759
0.715776
0.715789
0.715798
0.715804
0.715806
0.715805
0.715802
0.715797
0.71579
0.715782
0.715773
0.715763
0.715753
0.715742
0.71573
0.715719
0.715707
0.715695
0.715683
0.715671
0.715659
0.715647
0.715635
0.715623
0.71561
0.715598
0.715586
0.715574
0.715562
0.71555
0.715538
0.715526
0.715514
0.715502
0.71549
0.715478
0.715466
0.715454
0.715442
0.71543
0.715418
0.715406
0.715394
0.715382
0.71537
0.715358
0.715346
0.715334
0.715322
0.71531
0.715298
0.715286
0.715274
0.715262
0.71525
0.715238
0.715226
0.715214
0.715202
0.71519
0.715178
0.715167
0.715155
0.715143
0.715131
0.715119
0.715107
0.715095
0.715083
0.715071
0.715059
0.715047
0.715035
0.715023
0.715011
0.714999
0.714987
0.714975
0.714963
0.714951
0.714939
0.714927
0.714915
0.714903
0.714891
0.714879
0.714867
0.714855
0.714843
0.714831
0.714819
0.714807
0.714795
0.714783
0.714771
0.714759
0.714747
0.714735
0.714723
0.714711
0.714699
0.714687
0.714675
0.714663
0.714651
0.714639
0.714627
0.714615
0.714603
0.714591
0.71458
0.714568
0.714556
0.714544
0.714532
0.71452
0.714508
0.714496
0.714484
0.714472
0.71446
0.714448
0.714436
0.714424
0.714412
0.7144
0.714388
0.714376
0.714364
0.714352
0.71434
0.714328
0.714316
0.714304
0.714292
0.712877
0.712874
0.712869
0.712862
0.71285
0.712837
0.712821
0.712805
0.712788
0.712772
0.712759
0.712748
0.712742
0.71274
0.712745
0.712756
0.712775
0.712803
0.712841
0.712888
0.712945
0.713012
0.71309
0.713177
0.713273
0.713378
0.71349
0.713608
0.713731
0.713857
0.713985
0.714112
0.714239
0.714362
0.71448
0.714592
0.714696
0.714793
0.71488
0.714959
0.715029
0.715089
0.715142
0.715187
0.715226
0.715259
0.715288
0.715313
0.715336
0.715357
0.715377
0.715398
0.715419
0.715443
0.715468
0.715496
0.715526
0.715558
0.715591
0.715625
0.715658
0.71569
0.715719
0.715744
0.715766
0.715782
0.715795
0.715803
0.715808
0.715809
0.715808
0.715804
0.715798
0.715791
0.715783
0.715774
0.715764
0.715753
0.715742
0.71573
0.715719
0.715707
0.715695
0.715683
0.715671
0.715659
0.715647
0.715635
0.715623
0.71561
0.715598
0.715586
0.715574
0.715562
0.71555
0.715538
0.715526
0.715514
0.715502
0.71549
0.715478
0.715466
0.715454
0.715442
0.71543
0.715418
0.715406
0.715394
0.715382
0.71537
0.715358
0.715346
0.715334
0.715322
0.71531
0.715298
0.715286
0.715274
0.715262
0.71525
0.715238
0.715226
0.715214
0.715202
0.71519
0.715178
0.715167
0.715155
0.715143
0.715131
0.715119
0.715107
0.715095
0.715083
0.715071
0.715059
0.715047
0.715035
0.715023
0.715011
0.714999
0.714987
0.714975
0.714963
0.714951
0.714939
0.714927
0.714915
0.714903
0.714891
0.714879
0.714867
0.714855
0.714843
0.714831
0.714819
0.714807
0.714795
0.714783
0.714771
0.714759
0.714747
0.714735
0.714723
0.714711
0.714699
0.714687
0.714675
0.714663
0.714651
0.714639
0.714627
0.714615
0.714603
0.714591
0.71458
0.714568
0.714556
0.714544
0.714532
0.71452
0.714508
0.714496
0.714484
0.714472
0.71446
0.714448
0.714436
0.714424
0.714412
0.7144
0.714388
0.714376
0.714364
0.714352
0.71434
0.714328
0.714316
0.714304
0.714292
0.712875
0.712874
0.712868
0.712861
0.712848
0.712833
0.712816
0.712799
0.712781
0.712765
0.712751
0.712739
0.712732
0.71273
0.712734
0.712744
0.712763
0.712791
0.712827
0.712874
0.712931
0.712997
0.713074
0.71316
0.713256
0.713359
0.71347
0.713586
0.713707
0.713831
0.713956
0.71408
0.714203
0.714322
0.714435
0.714543
0.714642
0.714734
0.714817
0.714891
0.714957
0.715015
0.715066
0.71511
0.71515
0.715186
0.715219
0.71525
0.715281
0.715311
0.715341
0.715371
0.715401
0.715432
0.715463
0.715495
0.715528
0.715562
0.715598
0.715633
0.715668
0.7157
0.71573
0.715755
0.715776
0.715792
0.715803
0.71581
0.715814
0.715814
0.715811
0.715807
0.7158
0.715793
0.715784
0.715774
0.715764
0.715753
0.715742
0.71573
0.715719
0.715707
0.715695
0.715683
0.715671
0.715659
0.715647
0.715634
0.715622
0.71561
0.715598
0.715586
0.715574
0.715562
0.71555
0.715538
0.715526
0.715514
0.715502
0.71549
0.715478
0.715466
0.715454
0.715442
0.71543
0.715418
0.715406
0.715394
0.715382
0.71537
0.715358
0.715346
0.715334
0.715322
0.71531
0.715298
0.715286
0.715274
0.715262
0.71525
0.715238
0.715226
0.715214
0.715202
0.71519
0.715178
0.715167
0.715155
0.715143
0.715131
0.715119
0.715107
0.715095
0.715083
0.715071
0.715059
0.715047
0.715035
0.715023
0.715011
0.714999
0.714987
0.714975
0.714963
0.714951
0.714939
0.714927
0.714915
0.714903
0.714891
0.714879
0.714867
0.714855
0.714843
0.714831
0.714819
0.714807
0.714795
0.714783
0.714771
0.714759
0.714747
0.714735
0.714723
0.714711
0.714699
0.714687
0.714675
0.714663
0.714651
0.714639
0.714627
0.714615
0.714603
0.714591
0.71458
0.714568
0.714556
0.714544
0.714532
0.71452
0.714508
0.714496
0.714484
0.714472
0.71446
0.714448
0.714436
0.714424
0.714412
0.7144
0.714388
0.714376
0.714364
0.714352
0.71434
0.714328
0.714316
0.714304
0.714292
0.712844
0.71286
0.712858
0.712857
0.712847
0.712834
0.712818
0.7128
0.712782
0.712765
0.71275
0.712737
0.712729
0.712727
0.71273
0.71274
0.712759
0.712786
0.712822
0.712868
0.712924
0.71299
0.713066
0.713151
0.713245
0.713347
0.713455
0.713568
0.713685
0.713805
0.713924
0.714043
0.714158
0.714269
0.714374
0.714473
0.714563
0.714645
0.714718
0.714783
0.714841
0.714892
0.714938
0.71498
0.71502
0.715058
0.715097
0.715136
0.715177
0.715219
0.715262
0.715307
0.715353
0.715398
0.715444
0.715488
0.715532
0.715573
0.715613
0.715651
0.715687
0.71572
0.715748
0.715772
0.715791
0.715805
0.715815
0.71582
0.715821
0.71582
0.715816
0.71581
0.715803
0.715794
0.715785
0.715775
0.715764
0.715753
0.715742
0.71573
0.715718
0.715706
0.715694
0.715682
0.71567
0.715658
0.715646
0.715634
0.715622
0.71561
0.715598
0.715586
0.715574
0.715562
0.71555
0.715538
0.715526
0.715514
0.715502
0.71549
0.715478
0.715466
0.715454
0.715442
0.71543
0.715418
0.715406
0.715394
0.715382
0.71537
0.715358
0.715346
0.715334
0.715322
0.71531
0.715298
0.715286
0.715274
0.715262
0.71525
0.715238
0.715226
0.715214
0.715202
0.71519
0.715178
0.715167
0.715155
0.715143
0.715131
0.715119
0.715107
0.715095
0.715083
0.715071
0.715059
0.715047
0.715035
0.715023
0.715011
0.714999
0.714987
0.714975
0.714963
0.714951
0.714939
0.714927
0.714915
0.714903
0.714891
0.714879
0.714867
0.714855
0.714843
0.714831
0.714819
0.714807
0.714795
0.714783
0.714771
0.714759
0.714747
0.714735
0.714723
0.714711
0.714699
0.714687
0.714675
0.714663
0.714651
0.714639
0.714627
0.714615
0.714603
0.714591
0.71458
0.714568
0.714556
0.714544
0.714532
0.71452
0.714508
0.714496
0.714484
0.714472
0.71446
0.714448
0.714436
0.714424
0.714412
0.7144
0.714388
0.714376
0.714364
0.714352
0.71434
0.714328
0.714316
0.714304
0.714292
0.71285
0.712869
0.712867
0.712865
0.712854
0.71284
0.712823
0.712805
0.712787
0.712769
0.712754
0.712742
0.712734
0.712731
0.712735
0.712745
0.712764
0.712792
0.712829
0.712875
0.712931
0.712997
0.713073
0.713157
0.713249
0.713348
0.713452
0.713561
0.713673
0.713786
0.713897
0.714006
0.714111
0.71421
0.714303
0.714387
0.714462
0.714529
0.714588
0.714639
0.714685
0.714726
0.714765
0.714803
0.714842
0.714883
0.714928
0.714976
0.715029
0.715086
0.715146
0.715209
0.715274
0.715339
0.715403
0.715466
0.715525
0.71558
0.715631
0.715676
0.715716
0.715749
0.715777
0.715798
0.715814
0.715824
0.71583
0.715832
0.715831
0.715827
0.715821
0.715814
0.715806
0.715796
0.715786
0.715775
0.715764
0.715753
0.715742
0.71573
0.715718
0.715706
0.715694
0.715682
0.71567
0.715658
0.715646
0.715634
0.715622
0.71561
0.715598
0.715586
0.715574
0.715562
0.71555
0.715538
0.715526
0.715514
0.715502
0.71549
0.715478
0.715466
0.715454
0.715442
0.71543
0.715418
0.715406
0.715394
0.715382
0.71537
0.715358
0.715346
0.715334
0.715322
0.71531
0.715298
0.715286
0.715274
0.715262
0.71525
0.715238
0.715226
0.715214
0.715202
0.71519
0.715178
0.715167
0.715155
0.715143
0.715131
0.715119
0.715107
0.715095
0.715083
0.715071
0.715059
0.715047
0.715035
0.715023
0.715011
0.714999
0.714987
0.714975
0.714963
0.714951
0.714939
0.714927
0.714915
0.714903
0.714891
0.714879
0.714867
0.714855
0.714843
0.714831
0.714819
0.714807
0.714795
0.714783
0.714771
0.714759
0.714747
0.714735
0.714723
0.714711
0.714699
0.714687
0.714675
0.714663
0.714651
0.714639
0.714627
0.714615
0.714603
0.714591
0.71458
0.714568
0.714556
0.714544
0.714532
0.71452
0.714508
0.714496
0.714484
0.714472
0.71446
0.714448
0.714436
0.714424
0.714412
0.7144
0.714388
0.714376
0.714364
0.714352
0.71434
0.714328
0.714316
0.714304
0.714292
0.712693
0.71284
0.712859
0.712876
0.712868
0.712855
0.712838
0.712819
0.7128
0.712782
0.712767
0.712755
0.712748
0.712747
0.712752
0.712764
0.712785
0.712815
0.712853
0.712901
0.712959
0.713025
0.713101
0.713184
0.713274
0.71337
0.713471
0.713574
0.713678
0.713782
0.713883
0.713979
0.714069
0.714152
0.714227
0.714292
0.714348
0.714396
0.714436
0.714471
0.714503
0.714533
0.714565
0.7146
0.71464
0.714686
0.714739
0.714798
0.714864
0.714937
0.715014
0.715095
0.715179
0.715264
0.715348
0.71543
0.715508
0.71558
0.715645
0.7157
0.715747
0.715783
0.715811
0.71583
0.715842
0.715848
0.71585
0.715848
0.715843
0.715837
0.715829
0.715819
0.715809
0.715799
0.715788
0.715777
0.715765
0.715753
0.715742
0.71573
0.715718
0.715706
0.715694
0.715682
0.71567
0.715658
0.715646
0.715634
0.715622
0.71561
0.715598
0.715586
0.715574
0.715562
0.71555
0.715538
0.715526
0.715514
0.715502
0.71549
0.715478
0.715466
0.715454
0.715442
0.71543
0.715418
0.715406
0.715394
0.715382
0.71537
0.715358
0.715346
0.715334
0.715322
0.71531
0.715298
0.715286
0.715274
0.715262
0.71525
0.715238
0.715226
0.715214
0.715202
0.71519
0.715178
0.715167
0.715155
0.715143
0.715131
0.715119
0.715107
0.715095
0.715083
0.715071
0.715059
0.715047
0.715035
0.715023
0.715011
0.714999
0.714987
0.714975
0.714963
0.714951
0.714939
0.714927
0.714915
0.714903
0.714891
0.714879
0.714867
0.714855
0.714843
0.714831
0.714819
0.714807
0.714795
0.714783
0.714771
0.714759
0.714747
0.714735
0.714723
0.714711
0.714699
0.714687
0.714675
0.714663
0.714651
0.714639
0.714627
0.714615
0.714603
0.714591
0.71458
0.714568
0.714556
0.714544
0.714532
0.71452
0.714508
0.714496
0.714484
0.714472
0.71446
0.714448
0.714436
0.714424
0.714412
0.7144
0.714388
0.714376
0.714364
0.714352
0.71434
0.714328
0.714316
0.714304
0.714292
0.713453
0.713396
0.713332
0.713264
0.713189
0.713109
0.713019
0.712895
0.71346
0.713413
0.713349
0.713279
0.713204
0.713124
0.713031
0.712929
0.713466
0.713426
0.713367
0.713301
0.713231
0.713158
0.713085
0.713013
0.713477
0.713443
0.71339
0.713329
0.713264
0.713199
0.713136
0.713077
0.713492
0.71346
0.713411
0.713355
0.713296
0.713239
0.713186
0.71314
0.713508
0.713476
0.713428
0.713375
0.713322
0.713272
0.713226
0.713186
0.713525
0.713488
0.713439
0.713388
0.713338
0.713292
0.713251
0.713214
0.713534
0.713487
0.713438
0.713389
0.713342
0.713299
0.713259
0.713223
0.712824
0.712846
0.712869
0.712877
0.712873
0.712863
0.712848
0.712832
0.712815
0.7128
0.712788
0.712779
0.712776
0.712778
0.712788
0.712805
0.71283
0.712864
0.712906
0.712958
0.713018
0.713086
0.713162
0.713245
0.713333
0.713426
0.71352
0.713616
0.713711
0.713802
0.713889
0.713969
0.71404
0.714103
0.714155
0.714198
0.714232
0.714259
0.714281
0.7143
0.71432
0.714343
0.714372
0.714408
0.714453
0.714506
0.714569
0.71464
0.714719
0.714806
0.714898
0.714995
0.715095
0.715196
0.715297
0.715396
0.71549
0.715577
0.715654
0.715721
0.715775
0.715816
0.715845
0.715863
0.715872
0.715874
0.715871
0.715865
0.715857
0.715847
0.715837
0.715825
0.715814
0.715802
0.71579
0.715778
0.715766
0.715754
0.715742
0.71573
0.715718
0.715705
0.715693
0.715682
0.71567
0.715658
0.715646
0.715634
0.715622
0.71561
0.715598
0.715586
0.715574
0.715562
0.71555
0.715538
0.715526
0.715514
0.715502
0.71549
0.715478
0.715466
0.715454
0.715442
0.71543
0.715418
0.715406
0.715394
0.715382
0.71537
0.715358
0.715346
0.715334
0.715322
0.71531
0.715298
0.715286
0.715274
0.715262
0.71525
0.715238
0.715226
0.715214
0.715202
0.71519
0.715178
0.715167
0.715155
0.715143
0.715131
0.715119
0.715107
0.715095
0.715083
0.715071
0.715059
0.715047
0.715035
0.715023
0.715011
0.714999
0.714987
0.714975
0.714963
0.714951
0.714939
0.714927
0.714915
0.714903
0.714891
0.714879
0.714867
0.714855
0.714843
0.714831
0.714819
0.714807
0.714795
0.714783
0.714771
0.714759
0.714747
0.714735
0.714723
0.714711
0.714699
0.714687
0.714675
0.714663
0.714651
0.714639
0.714627
0.714615
0.714603
0.714591
0.71458
0.714568
0.714556
0.714544
0.714532
0.71452
0.714508
0.714496
0.714484
0.714472
0.71446
0.714448
0.714436
0.714424
0.714412
0.7144
0.714388
0.714376
0.714364
0.714352
0.71434
0.714328
0.714316
0.714304
0.714292
0.712852
0.71286
0.712873
0.712883
0.712885
0.71288
0.712871
0.71286
0.712849
0.71284
0.712833
0.712831
0.712834
0.712843
0.712859
0.712883
0.712915
0.712955
0.713003
0.713059
0.713123
0.713193
0.713269
0.713349
0.713434
0.71352
0.713607
0.713692
0.713773
0.713848
0.713916
0.713976
0.714025
0.714064
0.714093
0.714113
0.714126
0.714135
0.714143
0.714154
0.714169
0.714193
0.714225
0.714267
0.714319
0.714381
0.714453
0.714534
0.714623
0.714719
0.714822
0.714929
0.71504
0.715152
0.715265
0.715374
0.715479
0.715577
0.715664
0.715739
0.715799
0.715843
0.715874
0.715891
0.715898
0.715897
0.715891
0.715882
0.715871
0.715858
0.715845
0.715832
0.715819
0.715805
0.715792
0.715779
0.715767
0.715754
0.715742
0.715729
0.715717
0.715705
0.715693
0.715681
0.715669
0.715657
0.715645
0.715633
0.715621
0.71561
0.715598
0.715586
0.715574
0.715562
0.71555
0.715538
0.715526
0.715514
0.715502
0.71549
0.715478
0.715466
0.715454
0.715442
0.71543
0.715418
0.715406
0.715394
0.715382
0.71537
0.715358
0.715346
0.715334
0.715322
0.71531
0.715298
0.715286
0.715274
0.715262
0.71525
0.715238
0.715226
0.715214
0.715202
0.71519
0.715178
0.715167
0.715155
0.715143
0.715131
0.715119
0.715107
0.715095
0.715083
0.715071
0.715059
0.715047
0.715035
0.715023
0.715011
0.714999
0.714987
0.714975
0.714963
0.714951
0.714939
0.714927
0.714915
0.714903
0.714891
0.714879
0.714867
0.714855
0.714843
0.714831
0.714819
0.714807
0.714795
0.714783
0.714771
0.714759
0.714747
0.714735
0.714723
0.714711
0.714699
0.714687
0.714675
0.714663
0.714651
0.714639
0.714627
0.714615
0.714603
0.714591
0.71458
0.714568
0.714556
0.714544
0.714532
0.71452
0.714508
0.714496
0.714484
0.714472
0.71446
0.714448
0.714436
0.714424
0.714412
0.7144
0.714388
0.714376
0.714364
0.714352
0.71434
0.714328
0.714316
0.714304
0.714292
0.712958
0.712933
0.712926
0.712925
0.712923
0.71292
0.712915
0.712909
0.712905
0.712903
0.712905
0.712911
0.712923
0.712941
0.712967
0.712999
0.713039
0.713087
0.713141
0.713202
0.713268
0.713339
0.713413
0.713489
0.713567
0.713644
0.713718
0.713788
0.713851
0.713906
0.713952
0.713988
0.714013
0.71403
0.714039
0.714043
0.714044
0.714046
0.714051
0.714062
0.714082
0.71411
0.714148
0.714196
0.714254
0.714322
0.714399
0.714485
0.71458
0.714682
0.71479
0.714903
0.715019
0.715137
0.715255
0.715371
0.715482
0.715585
0.715677
0.715756
0.715819
0.715866
0.715897
0.715914
0.715919
0.715917
0.715909
0.715897
0.715883
0.715868
0.715853
0.715838
0.715823
0.715809
0.715794
0.715781
0.715767
0.715754
0.715742
0.715729
0.715717
0.715705
0.715693
0.715681
0.715669
0.715657
0.715645
0.715633
0.715621
0.715609
0.715597
0.715586
0.715574
0.715562
0.71555
0.715538
0.715526
0.715514
0.715502
0.71549
0.715478
0.715466
0.715454
0.715442
0.71543
0.715418
0.715406
0.715394
0.715382
0.71537
0.715358
0.715346
0.715334
0.715322
0.71531
0.715298
0.715286
0.715274
0.715262
0.71525
0.715238
0.715226
0.715214
0.715202
0.71519
0.715178
0.715167
0.715155
0.715143
0.715131
0.715119
0.715107
0.715095
0.715083
0.715071
0.715059
0.715047
0.715035
0.715023
0.715011
0.714999
0.714987
0.714975
0.714963
0.714951
0.714939
0.714927
0.714915
0.714903
0.714891
0.714879
0.714867
0.714855
0.714843
0.714831
0.714819
0.714807
0.714795
0.714783
0.714771
0.714759
0.714747
0.714735
0.714723
0.714711
0.714699
0.714687
0.714675
0.714663
0.714651
0.714639
0.714627
0.714615
0.714603
0.714591
0.71458
0.714568
0.714556
0.714544
0.714532
0.71452
0.714508
0.714496
0.714484
0.714472
0.71446
0.714448
0.714436
0.714424
0.714412
0.7144
0.714388
0.714376
0.714364
0.714352
0.71434
0.714328
0.714316
0.714304
0.714292
0.71303
0.713003
0.712989
0.712982
0.712979
0.712976
0.712974
0.712974
0.712976
0.712982
0.712992
0.713007
0.713029
0.713056
0.713091
0.713133
0.713181
0.713237
0.713297
0.713362
0.713429
0.713497
0.713566
0.713634
0.713701
0.713764
0.713821
0.713871
0.713913
0.713947
0.713974
0.713992
0.714003
0.714007
0.714006
0.714002
0.714
0.714003
0.714013
0.714031
0.714056
0.714089
0.714131
0.714181
0.714241
0.714311
0.71439
0.714478
0.714575
0.714679
0.714789
0.714905
0.715024
0.715145
0.715266
0.715384
0.715497
0.715601
0.715694
0.715773
0.715836
0.715883
0.715914
0.715931
0.715936
0.715933
0.715923
0.71591
0.715894
0.715877
0.71586
0.715843
0.715827
0.715811
0.715796
0.715782
0.715768
0.715755
0.715742
0.715729
0.715717
0.715705
0.715692
0.715681
0.715669
0.715657
0.715645
0.715633
0.715621
0.715609
0.715597
0.715585
0.715574
0.715562
0.71555
0.715538
0.715526
0.715514
0.715502
0.71549
0.715478
0.715466
0.715454
0.715442
0.71543
0.715418
0.715406
0.715394
0.715382
0.71537
0.715358
0.715346
0.715334
0.715322
0.71531
0.715298
0.715286
0.715274
0.715262
0.71525
0.715238
0.715226
0.715214
0.715202
0.71519
0.715178
0.715167
0.715155
0.715143
0.715131
0.715119
0.715107
0.715095
0.715083
0.715071
0.715059
0.715047
0.715035
0.715023
0.715011
0.714999
0.714987
0.714975
0.714963
0.714951
0.714939
0.714927
0.714915
0.714903
0.714891
0.714879
0.714867
0.714855
0.714843
0.714831
0.714819
0.714807
0.714795
0.714783
0.714771
0.714759
0.714747
0.714735
0.714723
0.714711
0.714699
0.714687
0.714675
0.714663
0.714651
0.714639
0.714627
0.714615
0.714603
0.714591
0.71458
0.714568
0.714556
0.714544
0.714532
0.71452
0.714508
0.714496
0.714484
0.714472
0.71446
0.714448
0.714436
0.714424
0.714412
0.7144
0.714388
0.714376
0.714364
0.714352
0.71434
0.714328
0.714316
0.714304
0.714292
0.713102
0.713075
0.713058
0.713048
0.713042
0.713039
0.713039
0.713042
0.713049
0.713061
0.713079
0.713102
0.713131
0.713168
0.71321
0.71326
0.713315
0.713376
0.713439
0.713504
0.713567
0.713627
0.713685
0.71374
0.713794
0.713844
0.713888
0.713926
0.713954
0.713972
0.713979
0.713977
0.713975
0.713976
0.71398
0.713987
0.713995
0.714005
0.714019
0.714037
0.714062
0.714095
0.714137
0.714188
0.714249
0.71432
0.7144
0.71449
0.714588
0.714694
0.714807
0.714924
0.715044
0.715166
0.715288
0.715406
0.715517
0.71562
0.715712
0.715789
0.715851
0.715896
0.715926
0.715943
0.715948
0.715944
0.715934
0.715919
0.715902
0.715884
0.715866
0.715847
0.71583
0.715813
0.715797
0.715783
0.715768
0.715755
0.715742
0.715729
0.715717
0.715704
0.715692
0.71568
0.715668
0.715657
0.715645
0.715633
0.715621
0.715609
0.715597
0.715585
0.715573
0.715562
0.71555
0.715538
0.715526
0.715514
0.715502
0.71549
0.715478
0.715466
0.715454
0.715442
0.71543
0.715418
0.715406
0.715394
0.715382
0.71537
0.715358
0.715346
0.715334
0.715322
0.71531
0.715298
0.715286
0.715274
0.715262
0.71525
0.715238
0.715226
0.715214
0.715202
0.71519
0.715178
0.715167
0.715155
0.715143
0.715131
0.715119
0.715107
0.715095
0.715083
0.715071
0.715059
0.715047
0.715035
0.715023
0.715011
0.714999
0.714987
0.714975
0.714963
0.714951
0.714939
0.714927
0.714915
0.714903
0.714891
0.714879
0.714867
0.714855
0.714843
0.714831
0.714819
0.714807
0.714795
0.714783
0.714771
0.714759
0.714747
0.714735
0.714723
0.714711
0.714699
0.714687
0.714675
0.714663
0.714651
0.714639
0.714627
0.714615
0.714603
0.714591
0.71458
0.714568
0.714556
0.714544
0.714532
0.71452
0.714508
0.714496
0.714484
0.714472
0.71446
0.714448
0.714436
0.714424
0.714412
0.7144
0.714388
0.714376
0.714364
0.714352
0.71434
0.714328
0.714316
0.714304
0.714292
0.713153
0.713128
0.71311
0.713098
0.71309
0.713087
0.713088
0.713094
0.713105
0.713121
0.713144
0.713172
0.713207
0.713247
0.713294
0.713346
0.713404
0.713465
0.713529
0.713592
0.713652
0.713707
0.713757
0.713804
0.713845
0.713877
0.713895
0.713905
0.713916
0.713931
0.713948
0.713964
0.713977
0.713987
0.713992
0.713997
0.714002
0.71401
0.714024
0.714044
0.714071
0.714106
0.714151
0.714204
0.714267
0.714339
0.714421
0.714512
0.714612
0.714719
0.714832
0.71495
0.71507
0.715192
0.715312
0.715428
0.715538
0.715638
0.715726
0.7158
0.71586
0.715904
0.715933
0.715948
0.715953
0.715949
0.715939
0.715924
0.715906
0.715887
0.715868
0.71585
0.715832
0.715815
0.715798
0.715783
0.715769
0.715755
0.715742
0.715729
0.715716
0.715704
0.715692
0.71568
0.715668
0.715656
0.715645
0.715633
0.715621
0.715609
0.715597
0.715585
0.715573
0.715562
0.71555
0.715538
0.715526
0.715514
0.715502
0.71549
0.715478
0.715466
0.715454
0.715442
0.71543
0.715418
0.715406
0.715394
0.715382
0.71537
0.715358
0.715346
0.715334
0.715322
0.71531
0.715298
0.715286
0.715274
0.715262
0.71525
0.715238
0.715226
0.715214
0.715202
0.71519
0.715178
0.715167
0.715155
0.715143
0.715131
0.715119
0.715107
0.715095
0.715083
0.715071
0.715059
0.715047
0.715035
0.715023
0.715011
0.714999
0.714987
0.714975
0.714963
0.714951
0.714939
0.714927
0.714915
0.714903
0.714891
0.714879
0.714867
0.714855
0.714843
0.714831
0.714819
0.714807
0.714795
0.714783
0.714771
0.714759
0.714747
0.714735
0.714723
0.714711
0.714699
0.714687
0.714675
0.714663
0.714651
0.714639
0.714627
0.714615
0.714603
0.714591
0.71458
0.714568
0.714556
0.714544
0.714532
0.71452
0.714508
0.714496
0.714484
0.714472
0.71446
0.714448
0.714436
0.714424
0.714412
0.7144
0.714388
0.714376
0.714364
0.714352
0.71434
0.714328
0.714316
0.714304
0.714292
0.713184
0.713159
0.71314
0.713127
0.713118
0.713114
0.713116
0.713124
0.713137
0.713156
0.713181
0.713213
0.71325
0.713292
0.713341
0.713395
0.713453
0.713514
0.713575
0.713629
0.713672
0.713706
0.713735
0.713766
0.713802
0.71384
0.713875
0.713905
0.71393
0.713948
0.71396
0.713968
0.713974
0.71398
0.713986
0.713993
0.714002
0.714015
0.714031
0.714053
0.714082
0.714119
0.714164
0.714218
0.714282
0.714356
0.714438
0.71453
0.714631
0.714738
0.714851
0.714969
0.715089
0.71521
0.715328
0.715442
0.715549
0.715647
0.715732
0.715804
0.715861
0.715903
0.715931
0.715947
0.715952
0.715948
0.715938
0.715924
0.715906
0.715888
0.715869
0.71585
0.715832
0.715815
0.715799
0.715784
0.715769
0.715755
0.715742
0.715729
0.715717
0.715704
0.715692
0.71568
0.715668
0.715656
0.715645
0.715633
0.715621
0.715609
0.715597
0.715585
0.715573
0.715562
0.71555
0.715538
0.715526
0.715514
0.715502
0.71549
0.715478
0.715466
0.715454
0.715442
0.71543
0.715418
0.715406
0.715394
0.715382
0.71537
0.715358
0.715346
0.715334
0.715322
0.71531
0.715298
0.715286
0.715274
0.715262
0.71525
0.715238
0.715226
0.715214
0.715202
0.71519
0.715178
0.715167
0.715155
0.715143
0.715131
0.715119
0.715107
0.715095
0.715083
0.715071
0.715059
0.715047
0.715035
0.715023
0.715011
0.714999
0.714987
0.714975
0.714963
0.714951
0.714939
0.714927
0.714915
0.714903
0.714891
0.714879
0.714867
0.714855
0.714843
0.714831
0.714819
0.714807
0.714795
0.714783
0.714771
0.714759
0.714747
0.714735
0.714723
0.714711
0.714699
0.714687
0.714675
0.714663
0.714651
0.714639
0.714627
0.714615
0.714603
0.714591
0.71458
0.714568
0.714556
0.714544
0.714532
0.71452
0.714508
0.714496
0.714484
0.714472
0.71446
0.714448
0.714436
0.714424
0.714412
0.7144
0.714388
0.714376
0.714364
0.714352
0.71434
0.714328
0.714316
0.714304
0.714292
0.713192
0.713167
0.713146
0.71313
0.71312
0.713116
0.713118
0.713125
0.713138
0.713156
0.71318
0.713209
0.713243
0.713282
0.713326
0.713374
0.713427
0.713482
0.713539
0.713594
0.713645
0.713691
0.713734
0.713775
0.713814
0.713847
0.713874
0.713896
0.713915
0.713932
0.713947
0.713959
0.713969
0.713977
0.713985
0.713993
0.714003
0.714016
0.714034
0.714057
0.714088
0.714126
0.714173
0.714229
0.714294
0.714369
0.714452
0.714545
0.714646
0.714754
0.714867
0.714985
0.715104
0.715224
0.715341
0.715453
0.715558
0.715653
0.715736
0.715805
0.715861
0.715901
0.715929
0.715944
0.715949
0.715945
0.715936
0.715922
0.715905
0.715887
0.715869
0.71585
0.715833
0.715816
0.715799
0.715784
0.715769
0.715756
0.715742
0.715729
0.715717
0.715704
0.715692
0.71568
0.715668
0.715656
0.715645
0.715633
0.715621
0.715609
0.715597
0.715585
0.715573
0.715562
0.71555
0.715538
0.715526
0.715514
0.715502
0.71549
0.715478
0.715466
0.715454
0.715442
0.71543
0.715418
0.715406
0.715394
0.715382
0.71537
0.715358
0.715346
0.715334
0.715322
0.71531
0.715298
0.715286
0.715274
0.715262
0.71525
0.715238
0.715226
0.715214
0.715202
0.71519
0.715178
0.715167
0.715155
0.715143
0.715131
0.715119
0.715107
0.715095
0.715083
0.715071
0.715059
0.715047
0.715035
0.715023
0.715011
0.714999
0.714987
0.714975
0.714963
0.714951
0.714939
0.714927
0.714915
0.714903
0.714891
0.714879
0.714867
0.714855
0.714843
0.714831
0.714819
0.714807
0.714795
0.714783
0.714771
0.714759
0.714747
0.714735
0.714723
0.714711
0.714699
0.714687
0.714675
0.714663
0.714651
0.714639
0.714627
0.714615
0.714603
0.714591
0.71458
0.714568
0.714556
0.714544
0.714532
0.71452
0.714508
0.714496
0.714484
0.714472
0.71446
0.714448
0.714436
0.714424
0.714412
0.7144
0.714388
0.714376
0.714364
0.714352
0.71434
0.714328
0.714316
0.714304
0.714292
)
;

boundaryField
{
    inlet
    {
        type            zeroGradient;
    }
    outlet
    {
        type            fixedValue;