/*--------------------------------*- C++ -*----------------------------------*\
| =========                 |                                                 |
| \\      /  F ield         | OpenFOAM: The Open Source CFD Toolbox           |
|  \\    /   O peration     | Version:  4.1                                   |
|   \\  /    A nd           | Web:      www.OpenFOAM.org                      |
|    \\/     M anipulation  |                                                 |
\*---------------------------------------------------------------------------*/
FoamFile
{
    version     2.0;
    format      ascii;
    class       volVectorField;
    location    "2100";
    object      U;
}
// * * * * * * * * * * * * * * * * * * * * * * * * * * * * * * * * * * * * * //

dimensions      [0 1 -1 0 0 0 0];

internalField   nonuniform List<vector> 
1275
(
(0.0146 9.57094e-05 0)
(0.014437 9.7871e-05 0)
(0.0142405 9.8417e-05 0)
(0.0140145 9.75399e-05 0)
(0.0137636 9.54233e-05 0)
(0.0134915 9.23657e-05 0)
(0.013202 8.85001e-05 0)
(0.0128983 8.41082e-05 0)
(0.0125832 7.92995e-05 0)
(0.0122594 7.43018e-05 0)
(0.0119292 6.91996e-05 0)
(0.0115944 6.4159e-05 0)
(0.0112569 5.92353e-05 0)
(0.0109182 5.4537e-05 0)
(0.0105793 5.00901e-05 0)
(0.0102416 4.59553e-05 0)
(0.00990572 4.21339e-05 0)
(0.00957264 3.86503e-05 0)
(0.00924289 3.54875e-05 0)
(0.00891709 3.26453e-05 0)
(0.00859564 3.00955e-05 0)
(0.00827902 2.78234e-05 0)
(0.00796751 2.57958e-05 0)
(0.00766147 2.39908e-05 0)
(0.00736113 2.23754e-05 0)
(0.00706677 2.09258e-05 0)
(0.00677857 1.9612e-05 0)
(0.00649677 1.84121e-05 0)
(0.00622152 1.73007e-05 0)
(0.00595302 1.62595e-05 0)
(0.0056914 1.52688e-05 0)
(0.00543681 1.43147e-05 0)
(0.00518937 1.33833e-05 0)
(0.00494919 1.24653e-05 0)
(0.00471638 1.15525e-05 0)
(0.004491 1.06404e-05 0)
(0.00427312 9.7257e-06 0)
(0.00406278 8.80843e-06 0)
(0.00386001 7.88967e-06 0)
(0.00366482 6.97303e-06 0)
(0.0034772 6.06304e-06 0)
(0.00329711 5.16589e-06 0)
(0.00312451 4.2882e-06 0)
(0.00295934 3.43739e-06 0)
(0.00280152 2.62066e-06 0)
(0.00265095 1.84515e-06 0)
(0.00250752 1.11712e-06 0)
(0.00237112 4.42058e-07 0)
(0.0022416 -1.75938e-07 0)
(0.00211884 -7.34025e-07 0)
(0.00200268 -1.23095e-06 0)
(0.00189296 -1.66688e-06 0)
(0.00178952 -2.04348e-06 0)
(0.00169218 -2.36366e-06 0)
(0.00160079 -2.63144e-06 0)
(0.00151516 -2.85169e-06 0)
(0.00143512 -3.0299e-06 0)
(0.00136049 -3.17186e-06 0)
(0.00129111 -3.28346e-06 0)
(0.00122679 -3.37041e-06 0)
(0.00116738 -3.43815e-06 0)
(0.0011127 -3.49157e-06 0)
(0.00106259 -3.53506e-06 0)
(0.0010169 -3.57233e-06 0)
(0.000975479 -3.60651e-06 0)
(0.000938186 -3.6401e-06 0)
(0.000904882 -3.67507e-06 0)
(0.000875438 -3.71288e-06 0)
(0.00084973 -3.75461e-06 0)
(0.000827644 -3.80103e-06 0)
(0.000809068 -3.85264e-06 0)
(0.0007939 -3.90977e-06 0)
(0.000782043 -3.97264e-06 0)
(0.000773405 -4.04138e-06 0)
(0.000767901 -4.11609e-06 0)
(0.00076545 -4.19683e-06 0)
(0.000765975 -4.28364e-06 0)
(0.000769404 -4.37656e-06 0)
(0.000775669 -4.4756e-06 0)
(0.000784703 -4.58075e-06 0)
(0.000796443 -4.69195e-06 0)
(0.000810829 -4.80912e-06 0)
(0.000827799 -4.93207e-06 0)
(0.000847295 -5.06061e-06 0)
(0.000869261 -5.19442e-06 0)
(0.000893636 -5.33314e-06 0)
(0.000920365 -5.47633e-06 0)
(0.000949387 -5.62347e-06 0)
(0.000980646 -5.77397e-06 0)
(0.00101408 -5.92718e-06 0)
(0.00104962 -6.0824e-06 0)
(0.00108722 -6.23887e-06 0)
(0.0011268 -6.39582e-06 0)
(0.0011683 -6.5524e-06 0)
(0.00121165 -6.70785e-06 0)
(0.00125678 -6.8612e-06 0)
(0.00130362 -7.01185e-06 0)
(0.0013521 -7.15861e-06 0)
(0.00140213 -7.30126e-06 0)
(0.00145365 -7.43818e-06 0)
(0.00150656 -7.56997e-06 0)
(0.00156081 -7.694e-06 0)
(0.00161628 -7.81254e-06 0)
(0.00167296 -7.92091e-06 0)
(0.00173065 -8.02451e-06 0)
(0.00178945 -8.11467e-06 0)
(0.001849 -8.20258e-06 0)
(0.00190963 -8.27213e-06 0)
(0.00197066 -8.34482e-06 0)
(0.0020329 -8.39137e-06 0)
(0.00209495 -8.45076e-06 0)
(0.00215866 -8.47183e-06 0)
(0.0022212 -8.52159e-06 0)
(0.00228642 -8.515e-06 0)
(0.00234869 -8.56028e-06 0)
(0.00241578 -8.52614e-06 0)
(0.00247668 -8.57227e-06 0)
(0.00254651 -8.51998e-06 0)
(0.00260434 -8.56847e-06 0)
(0.00267864 -8.54017e-06 0)
(0.00273082 -8.57945e-06 0)
(0.00281256 -8.73119e-06 0)
(0.00285543 -8.72783e-06 0)
(0.00294924 -9.62462e-06 0)
(0.00297875 -9.61598e-06 0)
(0.00309131 -1.33714e-05 0)
(0.0031071 -1.4468e-05 0)
(0.00324812 -3.09296e-05 0)
(0.037975 0.000191608 0)
(0.0379716 0.000262589 0)
(0.0378943 0.000325721 0)
(0.0377472 0.000381551 0)
(0.0375358 0.000430191 0)
(0.0372646 0.000472395 0)
(0.0369386 0.000508334 0)
(0.0365621 0.000538756 0)
(0.0361395 0.000563918 0)
(0.0356752 0.000584488 0)
(0.0351728 0.000600768 0)
(0.0346363 0.00061333 0)
(0.0340692 0.000622478 0)
(0.033475 0.000628684 0)
(0.0328566 0.000632226 0)
(0.0322172 0.00063348 0)
(0.0315595 0.000632683 0)
(0.0308861 0.000630126 0)
(0.0301995 0.000626 0)
(0.0295019 0.000620524 0)
(0.0287955 0.000613848 0)
(0.0280823 0.000606133 0)
(0.0273642 0.00059749 0)
(0.026643 0.000588041 0)
(0.0259204 0.000577867 0)
(0.0251979 0.00056706 0)
(0.0244771 0.000555682 0)
(0.0237593 0.000543802 0)
(0.0230459 0.000531473 0)
(0.0223383 0.000518749 0)
(0.0216375 0.000505676 0)
(0.0209448 0.000492301 0)
(0.0202613 0.000478665 0)
(0.019588 0.000464811 0)
(0.0189258 0.000450779 0)
(0.0182758 0.000436608 0)
(0.0176386 0.000422336 0)
(0.0170153 0.000408 0)
(0.0164064 0.000393634 0)
(0.0158126 0.000379272 0)
(0.0152346 0.000364947 0)
(0.0146728 0.000350687 0)
(0.0141278 0.000336521 0)
(0.0135999 0.000322474 0)
(0.0130895 0.000308569 0)
(0.0125969 0.000294828 0)
(0.0121222 0.000281271 0)
(0.0116656 0.000267915 0)
(0.0112271 0.000254779 0)
(0.0108068 0.000241876 0)
(0.0104047 0.000229221 0)
(0.0100205 0.000216828 0)
(0.00965434 0.000204708 0)
(0.00930585 0.000192873 0)
(0.00897485 0.000181333 0)
(0.00866109 0.000170097 0)
(0.00836426 0.00015917 0)
(0.00808406 0.000148559 0)
(0.00782013 0.000138266 0)
(0.00757211 0.000128292 0)
(0.00733963 0.000118635 0)
(0.0071223 0.000109293 0)
(0.00691972 0.00010026 0)
(0.00673149 9.15285e-05 0)
(0.00655721 8.30892e-05 0)
(0.00639647 7.49321e-05 0)
(0.00624888 6.70455e-05 0)
(0.00611404 5.94174e-05 0)
(0.00599157 5.2035e-05 0)
(0.00588107 4.48856e-05 0)
(0.00578219 3.79564e-05 0)
(0.00569456 3.1235e-05 0)
(0.00561782 2.47097e-05 0)
(0.00555164 1.83691e-05 0)
(0.00549568 1.22028e-05 0)
(0.00544962 6.20149e-06 0)
(0.00541314 3.56429e-07 0)
(0.00538596 -5.33992e-06 0)
(0.00536777 -1.08941e-05 0)
(0.00535829 -1.63119e-05 0)
(0.00535724 -2.15977e-05 0)
(0.00536436 -2.67554e-05 0)
(0.00537937 -3.17877e-05 0)
(0.00540203 -3.66966e-05 0)
(0.00543209 -4.14834e-05 0)
(0.00546928 -4.61484e-05 0)
(0.00551338 -5.06915e-05 0)
(0.00556414 -5.51118e-05 0)
(0.00562132 -5.94081e-05 0)
(0.0056847 -6.35786e-05 0)
(0.00575402 -6.76213e-05 0)
(0.00582907 -7.15335e-05 0)
(0.00590962 -7.53129e-05 0)
(0.00599542 -7.89563e-05 0)
(0.00608626 -8.24618e-05 0)
(0.0061819 -8.58248e-05 0)
(0.00628212 -8.90453e-05 0)
(0.00638669 -9.21165e-05 0)
(0.00649538 -9.50425e-05 0)
(0.00660798 -9.78111e-05 0)
(0.00672424 -0.000100436 0)
(0.00684398 -0.000102892 0)
(0.00696692 -0.000105213 0)
(0.00709292 -0.000107348 0)
(0.00722165 -0.000109369 0)
(0.00735309 -0.000111174 0)
(0.00748672 -0.000112909 0)
(0.00762282 -0.000114369 0)
(0.00776044 -0.000115847 0)
(0.00790052 -0.000116941 0)
(0.00804119 -0.000118214 0)
(0.00818471 -0.000118899 0)
(0.00832738 -0.000120052 0)
(0.00847409 -0.000120254 0)
(0.00861745 -0.000121423 0)
(0.00876752 -0.000121025 0)
(0.00890982 -0.000122403 0)
(0.00906418 -0.000121249 0)
(0.00920287 -0.000123074 0)
(0.00936365 -0.000121036 0)
(0.0094949 -0.00012351 0)
(0.009666 -0.000120745 0)
(0.0097842 -0.000123805 0)
(0.0099719 -0.000121549 0)
(0.0100694 -0.00012447 0)
(0.0102823 -0.000127518 0)
(0.0103501 -0.000128701 0)
(0.0105965 -0.000154655 0)
(0.0573583 2.38975e-05 0)
(0.0574878 0.000179637 0)
(0.0575413 0.000323307 0)
(0.057522 0.000455911 0)
(0.057434 0.000577214 0)
(0.0572806 0.000688316 0)
(0.0570653 0.000789196 0)
(0.0567916 0.000880858 0)
(0.0564624 0.000963477 0)
(0.0560811 0.00103792 0)
(0.0556503 0.00110447 0)
(0.0551731 0.00116386 0)
(0.0546521 0.00121644 0)
(0.0540899 0.00126281 0)
(0.053489 0.00130331 0)
(0.0528518 0.00133843 0)
(0.0521806 0.0013685 0)
(0.0514777 0.0013939 0)
(0.0507451 0.00141491 0)
(0.0499851 0.00143185 0)
(0.0491995 0.00144495 0)
(0.0483905 0.00145445 0)
(0.0475599 0.00146053 0)
(0.0467097 0.00146341 0)
(0.0458418 0.00146322 0)
(0.044958 0.00146012 0)
(0.0440601 0.00145425 0)
(0.0431502 0.00144572 0)
(0.0422299 0.00143466 0)
(0.0413012 0.00142116 0)
(0.040366 0.00140534 0)
(0.039426 0.00138731 0)
(0.0384832 0.00136716 0)
(0.0375395 0.001345 0)
(0.0365966 0.00132095 0)
(0.0356565 0.00129512 0)
(0.0347209 0.00126763 0)
(0.0337918 0.0012386 0)
(0.0328709 0.00120816 0)
(0.03196 0.00117645 0)
(0.0310607 0.0011436 0)
(0.0301747 0.00110975 0)
(0.0293036 0.00107505 0)
(0.0284489 0.00103963 0)
(0.027612 0.00100365 0)
(0.0267942 0.000967244 0)
(0.0259967 0.000930543 0)
(0.0252207 0.000893683 0)
(0.024467 0.000856789 0)
(0.0237366 0.000819979 0)
(0.0230302 0.000783364 0)
(0.0223484 0.000747044 0)
(0.0216918 0.00071111 0)
(0.0210606 0.000675646 0)
(0.0204553 0.000640722 0)
(0.0198759 0.000606402 0)
(0.0193225 0.000572738 0)
(0.0187951 0.000539774 0)
(0.0182935 0.000507546 0)
(0.0178176 0.000476081 0)
(0.0173671 0.000445399 0)
(0.0169417 0.000415516 0)
(0.0165409 0.000386437 0)
(0.0161643 0.000358167 0)
(0.0158115 0.000330702 0)
(0.0154819 0.000304037 0)
(0.015175 0.000278161 0)
(0.0148903 0.000253064 0)
(0.0146271 0.000228728 0)
(0.0143849 0.000205138 0)
(0.0141631 0.000182275 0)
(0.0139611 0.00016012 0)
(0.0137782 0.000138651 0)
(0.0136139 0.00011785 0)
(0.0134676 9.76942e-05 0)
(0.0133387 7.81647e-05 0)
(0.0132266 5.92419e-05 0)
(0.0131308 4.0907e-05 0)
(0.0130506 2.31425e-05 0)
(0.0129856 5.93192e-06 0)
(0.0129351 -1.07397e-05 0)
(0.0128987 -2.68861e-05 0)
(0.0128758 -4.25194e-05 0)
(0.0128659 -5.76505e-05 0)
(0.0128685 -7.22886e-05 0)
(0.0128831 -8.64418e-05 0)
(0.0129092 -0.000100117 0)
(0.0129464 -0.000113319 0)
(0.0129942 -0.000126052 0)
(0.0130521 -0.000138321 0)
(0.0131197 -0.000150127 0)
(0.0131965 -0.000161472 0)
(0.0132822 -0.000172358 0)
(0.0133762 -0.000182786 0)
(0.0134782 -0.000192756 0)
(0.0135878 -0.000202269 0)
(0.0137045 -0.000211327 0)
(0.013828 -0.000219926 0)
(0.0139578 -0.000228077 0)
(0.0140937 -0.000235767 0)
(0.0142352 -0.000243018 0)
(0.0143819 -0.000249804 0)
(0.0145336 -0.000256173 0)
(0.0146898 -0.000262062 0)
(0.0148502 -0.000267575 0)
(0.0150146 -0.000272574 0)
(0.0151825 -0.000277274 0)
(0.0153538 -0.000281387 0)
(0.0155278 -0.000285342 0)
(0.0157049 -0.000288556 0)
(0.0158837 -0.00029187 0)
(0.0160658 -0.000294146 0)
(0.016248 -0.00029698 0)
(0.0164344 -0.000298228 0)
(0.0166186 -0.000300824 0)
(0.0168091 -0.000300879 0)
(0.0169933 -0.000303591 0)
(0.0171885 -0.000302205 0)
(0.0173701 -0.000305502 0)
(0.017572 -0.000302407 0)
(0.0177466 -0.000306799 0)
(0.0179594 -0.000302003 0)
(0.0181205 -0.000307723 0)
(0.0183513 -0.000302444 0)
(0.018489 -0.00030857 0)
(0.0187491 -0.000307562 0)
(0.0188468 -0.000310664 0)
(0.0191526 -0.000324519 0)
(0.0752456 -0.000148708 0)
(0.0753635 7.95605e-05 0)
(0.075414 0.000291797 0)
(0.0754001 0.00048967 0)
(0.0753252 0.00067275 0)
(0.0751926 0.000842622 0)
(0.075005 0.000999236 0)
(0.0747653 0.00114394 0)
(0.0744758 0.00127697 0)
(0.0741393 0.00139945 0)
(0.0737575 0.00151177 0)
(0.0733329 0.00161483 0)
(0.0728672 0.00170911 0)
(0.0723623 0.00179534 0)
(0.0718196 0.00187395 0)
(0.071241 0.00194554 0)
(0.0706278 0.00201051 0)
(0.0699814 0.00206931 0)
(0.0693031 0.00212226 0)
(0.0685942 0.00216972 0)
(0.067856 0.00221194 0)
(0.0670895 0.00224918 0)
(0.066296 0.0022816 0)
(0.0654767 0.00230941 0)
(0.0646326 0.00233272 0)
(0.063765 0.00235165 0)
(0.0628751 0.00236629 0)
(0.0619641 0.00237672 0)
(0.0610332 0.00238299 0)
(0.0600839 0.00238515 0)
(0.0591174 0.00238324 0)
(0.0581352 0.00237731 0)
(0.0571387 0.0023674 0)
(0.0561296 0.00235354 0)
(0.0551095 0.00233579 0)
(0.0540801 0.00231421 0)
(0.0530431 0.00228888 0)
(0.0520004 0.00225988 0)
(0.0509538 0.00222732 0)
(0.0499053 0.0021913 0)
(0.048857 0.00215198 0)
(0.0478107 0.00210951 0)
(0.0467685 0.00206405 0)
(0.0457326 0.00201581 0)
(0.0447049 0.00196498 0)
(0.0436875 0.00191179 0)
(0.0426825 0.00185647 0)
(0.0416917 0.00179927 0)
(0.0407171 0.00174044 0)
(0.0397605 0.00168022 0)
(0.0388237 0.00161889 0)
(0.0379083 0.00155668 0)
(0.0370158 0.00149386 0)
(0.0361476 0.00143066 0)
(0.035305 0.00136732 0)
(0.0344891 0.00130406 0)
(0.0337009 0.00124107 0)
(0.0329412 0.00117855 0)
(0.0322107 0.00111667 0)
(0.03151 0.00105558 0)
(0.0308394 0.000995407 0)
(0.0301993 0.000936279 0)
(0.0295897 0.000878288 0)
(0.0290107 0.000821517 0)
(0.0284622 0.000766031 0)
(0.0279439 0.00071188 0)
(0.0274556 0.000659101 0)
(0.0269969 0.000607722 0)
(0.0265673 0.000557756 0)
(0.0261663 0.00050921 0)
(0.0257933 0.000462083 0)
(0.0254478 0.000416366 0)
(0.0251289 0.000372046 0)
(0.0248361 0.000329106 0)
(0.0245686 0.000287526 0)
(0.0243257 0.000247282 0)
(0.0241065 0.000208351 0)
(0.0239104 0.000170706 0)
(0.0237365 0.000134324 0)
(0.0235841 9.91767e-05 0)
(0.0234524 6.52406e-05 0)
(0.0233405 3.24908e-05 0)
(0.0232479 9.03932e-07 0)
(0.0231736 -2.95424e-05 0)
(0.0231169 -5.88693e-05 0)
(0.0230772 -8.70967e-05 0)
(0.0230536 -0.000114243 0)
(0.0230454 -0.000140327 0)
(0.023052 -0.000165363 0)
(0.0230726 -0.000189368 0)
(0.0231066 -0.000212356 0)
(0.0231533 -0.00023434 0)
(0.0232121 -0.000255334 0)
(0.0232823 -0.00027535 0)
(0.0233633 -0.000294402 0)
(0.0234545 -0.000312499 0)
(0.0235554 -0.000329658 0)
(0.0236653 -0.000345884 0)
(0.0237837 -0.000361202 0)
(0.02391 -0.000375608 0)
(0.0240438 -0.000389141 0)
(0.0241845 -0.000401778 0)
(0.0243317 -0.000413594 0)
(0.0244848 -0.000424515 0)
(0.0246434 -0.000434692 0)
(0.0248071 -0.00044395 0)
(0.0249754 -0.00045259 0)
(0.025148 -0.00046023 0)
(0.0253244 -0.000467465 0)
(0.0255044 -0.000473509 0)
(0.0256871 -0.000479526 0)
(0.0258732 -0.000483953 0)
(0.0260608 -0.000489015 0)
(0.0262521 -0.000491726 0)
(0.0264429 -0.000496222 0)
(0.0266387 -0.000496994 0)
(0.0268308 -0.000501483 0)
(0.0270313 -0.000499946 0)
(0.0272221 -0.000505174 0)
(0.0274288 -0.000500871 0)
(0.0276141 -0.000507661 0)
(0.0278307 -0.000500409 0)
(0.0280037 -0.000509196 0)
(0.0282377 -0.000500036 0)
(0.0283862 -0.000509963 0)
(0.0286517 -0.000502524 0)
(0.0287539 -0.000510515 0)
(0.0290738 -0.000512308 0)
(0.0916139 -0.000283746 0)
(0.0916713 1.13232e-05 0)
(0.0916703 0.000286431 0)
(0.0916144 0.000544176 0)
(0.0915061 0.00078383 0)
(0.0913488 0.0010075 0)
(0.0911445 0.00121514 0)
(0.0908962 0.0014084 0)
(0.0906055 0.00158763 0)
(0.090275 0.00175416 0)
(0.0899059 0.00190853 0)
(0.0895005 0.0020518 0)
(0.0890599 0.00218458 0)
(0.0885857 0.00230771 0)
(0.0880791 0.00242177 0)
(0.0875413 0.00252745 0)
(0.0869733 0.00262523 0)
(0.0863761 0.00271567 0)
(0.0857506 0.00279916 0)
(0.0850976 0.0028761 0)
(0.0844178 0.00294681 0)
(0.0837121 0.00301157 0)
(0.082981 0.00307061 0)
(0.0822253 0.00312412 0)
(0.0814456 0.00317224 0)
(0.0806426 0.00321508 0)
(0.0798168 0.00325271 0)
(0.0789691 0.00328519 0)
(0.0781 0.00331255 0)
(0.0772104 0.00333478 0)
(0.0763011 0.00335189 0)
(0.0753728 0.00336384 0)
(0.0744265 0.00337062 0)
(0.0734632 0.0033722 0)
(0.0724839 0.00336855 0)
(0.0714898 0.00335966 0)
(0.0704821 0.0033455 0)
(0.069462 0.00332608 0)
(0.0684309 0.00330142 0)
(0.0673903 0.00327156 0)
(0.0663418 0.00323656 0)
(0.065287 0.00319649 0)
(0.0642276 0.00315146 0)
(0.0631653 0.00310161 0)
(0.0621021 0.0030471 0)
(0.0610398 0.00298811 0)
(0.0599804 0.00292485 0)
(0.0589259 0.00285757 0)
(0.0578782 0.00278652 0)
(0.0568394 0.00271199 0)
(0.0558115 0.00263429 0)
(0.0547965 0.00255372 0)
(0.0537962 0.00247061 0)
(0.0528127 0.00238532 0)
(0.0518477 0.00229818 0)
(0.050903 0.00220953 0)
(0.0499802 0.00211972 0)
(0.0490808 0.00202909 0)
(0.0482064 0.00193796 0)
(0.0473582 0.00184665 0)
(0.0465374 0.00175545 0)
(0.045745 0.00166465 0)
(0.0449819 0.00157449 0)
(0.0442488 0.00148522 0)
(0.0435463 0.00139706 0)
(0.0428749 0.0013102 0)
(0.0422349 0.00122481 0)
(0.0416265 0.00114103 0)
(0.0410497 0.00105899 0)
(0.0405044 0.000978797 0)
(0.0399906 0.000900538 0)
(0.0395078 0.000824282 0)
(0.0390557 0.000750081 0)
(0.0386338 0.000677973 0)
(0.0382417 0.000607985 0)
(0.0378786 0.00054013 0)
(0.0375439 0.000474414 0)
(0.0372369 0.000410834 0)
(0.0369568 0.000349381 0)
(0.0367029 0.000290038 0)
(0.0364742 0.000232787 0)
(0.03627 0.000177605 0)
(0.0360894 0.000124465 0)
(0.0359314 7.33408e-05 0)
(0.0357953 2.42022e-05 0)
(0.0356801 -2.29806e-05 0)
(0.035585 -6.82381e-05 0)
(0.035509 -0.000111602 0)
(0.0354513 -0.000153102 0)
(0.0354111 -0.00019277 0)
(0.0353874 -0.000230637 0)
(0.0353795 -0.000266735 0)
(0.0353866 -0.000301095 0)
(0.0354077 -0.000333747 0)
(0.0354422 -0.000364723 0)
(0.0354893 -0.000394054 0)
(0.0355482 -0.000421773 0)
(0.0356182 -0.000447909 0)
(0.0356987 -0.000472503 0)
(0.0357888 -0.000495574 0)
(0.035888 -0.000517178 0)
(0.0359957 -0.000537318 0)
(0.0361111 -0.000556079 0)
(0.0362338 -0.000573424 0)
(0.0363632 -0.000589501 0)
(0.0364987 -0.000604189 0)
(0.0366398 -0.000617761 0)
(0.0367859 -0.000629923 0)
(0.0369368 -0.000641201 0)
(0.0370918 -0.000650947 0)
(0.0372506 -0.000660188 0)
(0.0374126 -0.000667592 0)
(0.0375777 -0.000675127 0)
(0.0377455 -0.000680187 0)
(0.0379152 -0.000686464 0)
(0.0380877 -0.00068906 0)
(0.0382601 -0.000694696 0)
(0.038437 -0.00069454 0)
(0.0386099 -0.000700375 0)
(0.0387921 -0.000696993 0)
(0.0389616 -0.000704104 0)
(0.0391522 -0.000696935 0)
(0.0393117 -0.000706461 0)
(0.039518 -0.000695354 0)
(0.0396555 -0.00070766 0)
(0.0398911 -0.000694653 0)
(0.0399842 -0.000706373 0)
(0.0402748 -0.000697921 0)
(0.105043 -0.000326834 0)
(0.105032 2.23554e-05 0)
(0.104975 0.000348054 0)
(0.104876 0.000653606 0)
(0.104736 0.000938247 0)
(0.104559 0.00120444 0)
(0.104346 0.00145231 0)
(0.104098 0.00168371 0)
(0.103818 0.00189921 0)
(0.103506 0.00210027 0)
(0.103164 0.00228765 0)
(0.102793 0.00246254 0)
(0.102394 0.00262569 0)
(0.101967 0.00277809 0)
(0.101515 0.00292044 0)
(0.101036 0.00305352 0)
(0.100533 0.00317794 0)
(0.100005 0.0032943 0)
(0.0994532 0.0034031 0)
(0.0988779 0.00350479 0)
(0.0982796 0.00359975 0)
(0.0976587 0.00368828 0)
(0.0970154 0.00377065 0)
(0.0963501 0.00384707 0)
(0.0956632 0.00391767 0)
(0.0949551 0.00398258 0)
(0.0942259 0.00404185 0)
(0.0934762 0.00409552 0)
(0.0927063 0.00414357 0)
(0.0919165 0.00418597 0)
(0.0911074 0.00422267 0)
(0.0902794 0.00425359 0)
(0.089433 0.00427865 0)
(0.0885689 0.00429774 0)
(0.0876877 0.00431077 0)
(0.0867902 0.00431763 0)
(0.0858771 0.00431824 0)
(0.0849493 0.00431251 0)
(0.0840079 0.00430037 0)
(0.0830537 0.00428177 0)
(0.082088 0.00425667 0)
(0.081112 0.00422508 0)
(0.0801269 0.00418702 0)
(0.0791341 0.00414253 0)
(0.0781351 0.00409172 0)
(0.0771314 0.00403469 0)
(0.0761246 0.0039716 0)
(0.0751164 0.00390264 0)
(0.0741084 0.00382803 0)
(0.0731024 0.00374802 0)
(0.0721003 0.0036629 0)
(0.0711038 0.00357298 0)
(0.0701147 0.0034786 0)
(0.0691349 0.00338012 0)
(0.0681662 0.00327792 0)
(0.0672104 0.00317239 0)
(0.0662692 0.00306395 0)
(0.0653444 0.00295299 0)
(0.0644375 0.00283995 0)
(0.0635502 0.00272523 0)
(0.0626839 0.00260923 0)
(0.06184 0.00249237 0)
(0.0610197 0.00237502 0)
(0.0602243 0.00225755 0)
(0.0594548 0.00214032 0)
(0.0587121 0.00202367 0)
(0.0579969 0.00190789 0)
(0.0573101 0.00179329 0)
(0.056652 0.00168012 0)
(0.0560231 0.00156862 0)
(0.0554237 0.00145902 0)
(0.054854 0.00135149 0)
(0.054314 0.00124621 0)
(0.0538036 0.00114332 0)
(0.0533227 0.00104295 0)
(0.0528709 0.000945201 0)
(0.052448 0.000850156 0)
(0.0520534 0.000757884 0)
(0.0516867 0.000668436 0)
(0.0513473 0.000581852 0)
(0.0510345 0.000498156 0)
(0.0507476 0.000417363 0)
(0.0504858 0.000339475 0)
(0.0502485 0.000264489 0)
(0.0500347 0.000192392 0)
(0.0498436 0.000123165 0)
(0.0496744 5.67821e-05 0)
(0.0495262 -6.78526e-06 0)
(0.0493981 -6.75713e-05 0)
(0.0492892 -0.000125614 0)
(0.0491986 -0.000180954 0)
(0.0491255 -0.000233634 0)
(0.049069 -0.000283701 0)
(0.0490282 -0.000331203 0)
(0.0490023 -0.00037619 0)
(0.0489904 -0.000418712 0)
(0.0489917 -0.000458826 0)
(0.0490054 -0.000496582 0)
(0.0490308 -0.000532043 0)
(0.0490671 -0.000565256 0)
(0.0491135 -0.000596298 0)
(0.0491693 -0.0006252 0)
(0.049234 -0.00065207 0)
(0.0493067 -0.000676902 0)
(0.0493869 -0.000699862 0)
(0.049474 -0.000720863 0)
(0.0495674 -0.000740199 0)
(0.0496665 -0.000757602 0)
(0.0497709 -0.00077363 0)
(0.0498799 -0.000787646 0)
(0.0499934 -0.000800735 0)
(0.0501103 -0.000811523 0)
(0.0502311 -0.000822127 0)
(0.0503543 -0.00082975 0)
(0.0504807 -0.000838468 0)
(0.050609 -0.000842821 0)
(0.0507394 -0.000850479 0)
(0.0508718 -0.000851198 0)
(0.0510044 -0.000858942 0)
(0.0511408 -0.000855359 0)
(0.0512729 -0.000864616 0)
(0.0514151 -0.000856018 0)
(0.0515414 -0.00086789 0)
(0.0516946 -0.000854635 0)
(0.0518046 -0.000868559 0)
(0.0519819 -0.000852151 0)
(0.0520549 -0.000865897 0)
(0.0522808 -0.000852012 0)
(0.113842 -0.00030824 0)
(0.113763 7.98216e-05 0)
(0.113657 0.000441796 0)
(0.113528 0.000781942 0)
(0.113375 0.00109945 0)
(0.1132 0.00139699 0)
(0.113003 0.00167495 0)
(0.112786 0.0019352 0)
(0.112548 0.00217858 0)
(0.11229 0.00240655 0)
(0.112013 0.00262008 0)
(0.111717 0.00282034 0)
(0.111401 0.00300827 0)
(0.111067 0.00318484 0)
(0.110714 0.00335087 0)
(0.110343 0.00350715 0)
(0.109952 0.00365437 0)
(0.109544 0.00379315 0)
(0.109116 0.00392404 0)
(0.10867 0.00404751 0)
(0.108205 0.00416396 0)
(0.107721 0.00427372 0)
(0.107218 0.00437707 0)
(0.106697 0.00447422 0)
(0.106157 0.00456531 0)
(0.105597 0.00465045 0)
(0.105019 0.0047297 0)
(0.104422 0.00480307 0)
(0.103806 0.00487053 0)
(0.103172 0.00493201 0)
(0.102518 0.00498743 0)
(0.101847 0.00503666 0)
(0.101157 0.00507959 0)
(0.100449 0.00511605 0)
(0.099724 0.00514589 0)
(0.0989816 0.00516895 0)
(0.0982225 0.00518506 0)
(0.0974474 0.00519407 0)
(0.0966569 0.00519584 0)
(0.0958517 0.00519024 0)
(0.0950326 0.00517715 0)
(0.0942005 0.0051565 0)
(0.0933564 0.00512822 0)
(0.0925013 0.0050923 0)
(0.0916364 0.00504873 0)
(0.0907628 0.00499756 0)
(0.0898819 0.00493888 0)
(0.0889951 0.00487281 0)
(0.0881037 0.00479951 0)
(0.0872092 0.00471919 0)
(0.0863132 0.00463209 0)
(0.0854172 0.00453848 0)
(0.0845228 0.00443869 0)
(0.0836317 0.00433307 0)
(0.0827455 0.00422199 0)
(0.0818659 0.00410587 0)
(0.0809944 0.00398514 0)
(0.0801328 0.00386025 0)
(0.0792825 0.00373165 0)
(0.0784451 0.00359983 0)
(0.0776222 0.00346526 0)
(0.0768151 0.00332842 0)
(0.0760252 0.0031898 0)
(0.0752538 0.00304985 0)
(0.0745021 0.00290904 0)
(0.0737711 0.00276781 0)
(0.0730618 0.00262658 0)
(0.0723752 0.00248577 0)
(0.071712 0.00234575 0)
(0.0710729 0.00220688 0)
(0.0704585 0.00206949 0)
(0.0698691 0.00193391 0)
(0.0693051 0.0018004 0)
(0.0687668 0.00166922 0)
(0.0682543 0.00154061 0)
(0.0677675 0.00141476 0)
(0.0673065 0.00129186 0)
(0.0668711 0.00117207 0)
(0.0664609 0.00105551 0)
(0.0660757 0.0009423 0)
(0.0657151 0.000832536 0)
(0.0653786 0.000726289 0)
(0.0650657 0.000623617 0)
(0.0647757 0.000524561 0)
(0.0645081 0.000429147 0)
(0.0642621 0.000337391 0)
(0.0640372 0.000249293 0)
(0.0638325 0.000164844 0)
(0.0636472 8.40263e-05 0)
(0.0634807 6.8114e-06 0)
(0.063332 -6.68357e-05 0)
(0.0632005 -0.000136958 0)
(0.0630853 -0.000203605 0)
(0.0629856 -0.00026683 0)
(0.0629007 -0.000326695 0)
(0.0628297 -0.000383264 0)
(0.0627718 -0.000436605 0)
(0.0627264 -0.00048679 0)
(0.0626926 -0.000533899 0)
(0.0626697 -0.000578005 0)
(0.062657 -0.000619199 0)
(0.0626538 -0.00065755 0)
(0.0626595 -0.000693169 0)
(0.0626734 -0.000726107 0)
(0.0626949 -0.000756515 0)
(0.0627233 -0.000784392 0)
(0.0627582 -0.000809971 0)
(0.0627989 -0.000833141 0)
(0.0628451 -0.000854302 0)
(0.0628958 -0.000873109 0)
(0.0629515 -0.000890295 0)
(0.0630104 -0.000905053 0)
(0.0630737 -0.000918765 0)
(0.063139 -0.000929729 0)
(0.0632086 -0.000940554 0)
(0.0632789 -0.000947872 0)
(0.0633533 -0.000956541 0)
(0.0634273 -0.000960187 0)
(0.0635052 -0.000967638 0)
(0.0635823 -0.000967332 0)
(0.0636617 -0.000974787 0)
(0.0637429 -0.000969876 0)
(0.0638194 -0.000978944 0)
(0.0639087 -0.000968061 0)
(0.0639758 -0.000981035 0)
(0.06408 -0.000964159 0)
(0.0641229 -0.000977917 0)
(0.0642625 -0.000961092 0)
(0.116311 -0.000196442 0)
(0.11618 0.000206219 0)
(0.116044 0.000582305 0)
(0.115908 0.00093556 0)
(0.115768 0.00126609 0)
(0.115627 0.00157607 0)
(0.115481 0.00186655 0)
(0.115332 0.00213909 0)
(0.115178 0.00239495 0)
(0.115019 0.00263542 0)
(0.114854 0.00286169 0)
(0.114682 0.00307488 0)
(0.114502 0.00327605 0)
(0.114314 0.00346613 0)
(0.114116 0.00364603 0)
(0.113909 0.0038165 0)
(0.113692 0.00397829 0)
(0.113463 0.004132 0)
(0.113222 0.00427819 0)
(0.112969 0.00441732 0)
(0.112703 0.0045498 0)
(0.112423 0.00467594 0)
(0.112129 0.004796 0)
(0.11182 0.00491017 0)
(0.111496 0.00501858 0)
(0.111156 0.0051213 0)
(0.1108 0.00521836 0)
(0.110428 0.00530972 0)
(0.110038 0.00539532 0)
(0.109632 0.00547504 0)
(0.109207 0.00554874 0)
(0.108766 0.00561625 0)
(0.108306 0.00567736 0)
(0.107828 0.00573187 0)
(0.107333 0.00577955 0)
(0.106819 0.00582015 0)
(0.106288 0.00585343 0)
(0.10574 0.00587917 0)
(0.105174 0.00589713 0)
(0.104592 0.0059071 0)
(0.103993 0.00590888 0)
(0.103378 0.00590231 0)
(0.102748 0.00588724 0)
(0.102104 0.00586355 0)
(0.101446 0.00583119 0)
(0.100775 0.00579011 0)
(0.100093 0.00574032 0)
(0.0993997 0.00568187 0)
(0.0986972 0.00561487 0)
(0.0979865 0.00553946 0)
(0.0972688 0.00545583 0)
(0.0965455 0.00536423 0)
(0.0958179 0.00526492 0)
(0.0950875 0.00515824 0)
(0.0943557 0.00504456 0)
(0.093624 0.00492427 0)
(0.0928939 0.00479781 0)
(0.0921669 0.00466564 0)
(0.0914445 0.00452825 0)
(0.0907281 0.00438616 0)
(0.0900191 0.00423987 0)
(0.089319 0.00408994 0)
(0.0886291 0.00393688 0)
(0.0879506 0.00378125 0)
(0.0872849 0.00362358 0)
(0.0866329 0.0034644 0)
(0.0859959 0.00330422 0)
(0.0853747 0.00314354 0)
(0.0847704 0.00298286 0)
(0.0841836 0.00282262 0)
(0.0836151 0.00266326 0)
(0.0830655 0.00250521 0)
(0.0825353 0.00234884 0)
(0.0820249 0.00219451 0)
(0.0815347 0.00204255 0)
(0.0810648 0.00189326 0)
(0.0806155 0.00174692 0)
(0.0801868 0.00160377 0)
(0.0797786 0.00146402 0)
(0.0793908 0.00132787 0)
(0.0790232 0.00119549 0)
(0.0786757 0.00106701 0)
(0.0783478 0.000942555 0)
(0.0780392 0.000822216 0)
(0.0777495 0.000706069 0)
(0.0774783 0.000594172 0)
(0.0772249 0.000486562 0)
(0.0769888 0.000383262 0)
(0.0767695 0.000284277 0)
(0.0765664 0.000189599 0)
(0.0763788 9.92098e-05 0)
(0.0762062 1.30754e-05 0)
(0.0760478 -6.88466e-05 0)
(0.0759029 -0.000146609 0)
(0.0757711 -0.000220274 0)
(0.0756515 -0.00028991 0)
(0.0755435 -0.000355595 0)
(0.0754466 -0.000417411 0)
(0.0753599 -0.00047545 0)
(0.075283 -0.000529802 0)
(0.0752152 -0.000580575 0)
(0.0751559 -0.000627856 0)
(0.0751046 -0.00067178 0)
(0.0750606 -0.000712414 0)
(0.0750235 -0.000749939 0)
(0.0749926 -0.000784366 0)
(0.0749676 -0.000815971 0)
(0.0749478 -0.000844638 0)
(0.0749331 -0.000870837 0)
(0.0749226 -0.000894177 0)
(0.0749164 -0.00091553 0)
(0.0749136 -0.000933934 0)
(0.0749144 -0.000951074 0)
(0.0749176 -0.000964843 0)
(0.0749243 -0.000978535 0)
(0.0749322 -0.000987792 0)
(0.0749437 -0.000999035 0)
(0.0749549 -0.00100358 0)
(0.0749703 -0.00101379 0)
(0.0749838 -0.00101285 0)
(0.0750023 -0.00102405 0)
(0.0750173 -0.00101629 0)
(0.0750381 -0.00103027 0)
(0.0750556 -0.00101725 0)
(0.0750738 -0.0010303 0)
(0.0750979 -0.00101396 0)
(0.0751051 -0.00102691 0)
(0.0751478 -0.00101004 0)
(0.111264 -4.45953e-05 0)
(0.111111 0.000347583 0)
(0.110977 0.000713663 0)
(0.110869 0.00105762 0)
(0.110779 0.00138044 0)
(0.11071 0.00168368 0)
(0.110656 0.00196902 0)
(0.110617 0.00223761 0)
(0.11059 0.00249103 0)
(0.110574 0.0027303 0)
(0.110566 0.00295677 0)
(0.110566 0.00317138 0)
(0.11057 0.00337523 0)
(0.110578 0.00356915 0)
(0.110587 0.00375403 0)
(0.110597 0.00393055 0)
(0.110606 0.00409942 0)
(0.110612 0.00426119 0)
(0.110614 0.00441637 0)
(0.110611 0.00456538 0)
(0.110602 0.00470858 0)
(0.110585 0.00484625 0)
(0.11056 0.0049786 0)
(0.110526 0.00510578 0)
(0.110481 0.00522788 0)
(0.110424 0.00534494 0)
(0.110356 0.00545694 0)
(0.110274 0.00556379 0)
(0.110179 0.0056654 0)
(0.110068 0.0057616 0)
(0.109943 0.00585219 0)
(0.109801 0.00593694 0)
(0.109643 0.0060156 0)
(0.109468 0.0060879 0)
(0.109276 0.00615352 0)
(0.109066 0.00621217 0)
(0.108837 0.00626353 0)
(0.10859 0.00630728 0)
(0.108325 0.00634312 0)
(0.108041 0.00637073 0)
(0.107738 0.00638984 0)
(0.107417 0.00640018 0)
(0.107078 0.00640152 0)
(0.106722 0.00639365 0)
(0.106347 0.00637641 0)
(0.105956 0.00634967 0)
(0.105548 0.00631335 0)
(0.105125 0.00626742 0)
(0.104687 0.00621189 0)
(0.104235 0.00614684 0)
(0.10377 0.0060724 0)
(0.103293 0.00598872 0)
(0.102806 0.00589605 0)
(0.102309 0.00579467 0)
(0.101803 0.0056849 0)
(0.10129 0.00556712 0)
(0.100771 0.00544175 0)
(0.100248 0.00530924 0)
(0.0997209 0.0051701 0)
(0.0991924 0.00502484 0)
(0.0986633 0.00487401 0)
(0.0981349 0.00471818 0)
(0.0976086 0.00455793 0)
(0.0970856 0.00439386 0)
(0.096567 0.00422656 0)
(0.0960542 0.00405662 0)
(0.0955481 0.00388463 0)
(0.0950498 0.00371118 0)
(0.0945603 0.00353682 0)
(0.0940805 0.0033621 0)
(0.0936112 0.00318755 0)
(0.0931531 0.00301367 0)
(0.0927069 0.00284093 0)
(0.0922731 0.00266979 0)
(0.0918523 0.00250066 0)
(0.0914449 0.00233392 0)
(0.0910512 0.00216995 0)
(0.0906714 0.00200905 0)
(0.0903057 0.00185154 0)
(0.0899543 0.00169767 0)
(0.0896171 0.00154768 0)
(0.0892941 0.00140178 0)
(0.0889852 0.00126014 0)
(0.0886903 0.00112291 0)
(0.0884092 0.000990223 0)
(0.0881416 0.000862177 0)
(0.0878872 0.000738849 0)
(0.0876457 0.000620295 0)
(0.0874167 0.000506552 0)
(0.0871999 0.000397637 0)
(0.0869948 0.00029355 0)
(0.086801 0.000194273 0)
(0.086618 9.97751e-05 0)
(0.0864454 1.00118e-05 0)
(0.0862827 -7.5075e-05 0)
(0.0861295 -0.000155554 0)
(0.0859852 -0.000231505 0)
(0.0858494 -0.000303016 0)
(0.0857216 -0.000370186 0)
(0.0856014 -0.000433116 0)
(0.0854883 -0.000491924 0)
(0.0853818 -0.000546716 0)
(0.0852815 -0.000597633 0)
(0.0851869 -0.000644773 0)
(0.0850979 -0.000688312 0)
(0.0850136 -0.000728316 0)
(0.0849342 -0.000765025 0)