/*--------------------------------*- C++ -*----------------------------------*\
| =========                 |                                                 |
| \\      /  F ield         | OpenFOAM: The Open Source CFD Toolbox           |
|  \\    /   O peration     | Version:  4.1                                   |
|   \\  /    A nd           | Web:      www.OpenFOAM.org                      |
|    \\/     M anipulation  |                                                 |
\*---------------------------------------------------------------------------*/
FoamFile
{
    version     2.0;
    format      ascii;
    class       volScalarField;
    location    "191";
    object      p;
}
// * * * * * * * * * * * * * * * * * * * * * * * * * * * * * * * * * * * * * //

dimensions      [1 -1 -2 0 0 0 0];

internalField   nonuniform List<scalar> 
3264
(
0.71259
0.712588
0.712587
0.712586
0.712585
0.712585
0.712584
0.712584
0.712585
0.712585
0.712586
0.712587
0.712589
0.712592
0.712595
0.7126
0.712606
0.712615
0.712625
0.712639
0.712655
0.712676
0.712701
0.712731
0.712766
0.712807
0.712855
0.712908
0.712968
0.713034
0.713106
0.713184
0.713267
0.713356
0.713448
0.713544
0.713642
0.713741
0.713841
0.71394
0.714037
0.714131
0.71422
0.714305
0.714384
0.714457
0.714522
0.71458
0.71463
0.714673
0.714708
0.714736
0.714758
0.714773
0.714783
0.714789
0.714791
0.714791
0.714788
0.714784
0.714778
0.714773
0.714767
0.714762
0.714757
0.714752
0.714748
0.714745
0.714741
0.714738
0.714735
0.714732
0.714729
0.714727
0.714724
0.714722
0.714721
0.71472
0.71472
0.714722
0.714725
0.71473
0.714738
0.714748
0.714761
0.714776
0.714794
0.714816
0.714839
0.714866
0.714894
0.714924
0.714956
0.714988
0.71502
0.715052
0.715083
0.715113
0.71514
0.715166
0.715188
0.715207
0.715223
0.715235
0.715244
0.715249
0.715251
0.715249
0.715245
0.715239
0.715231
0.715221
0.715209
0.715197
0.715184
0.715171
0.715158
0.715145
0.715132
0.71512
0.715108
0.715096
0.715085
0.715073
0.715063
0.715052
0.715042
0.715032
0.715022
0.715012
0.715002
0.714992
0.714982
0.714972
0.714962
0.714952
0.714941
0.714931
0.714921
0.714911
0.714901
0.71489
0.71488
0.71487
0.714859
0.714849
0.714839
0.714828
0.714818
0.714808
0.714797
0.714787
0.714777
0.714766
0.714756
0.714746
0.714735
0.714725
0.714715
0.714704
0.714694
0.714684
0.714673
0.714663
0.714653
0.714642
0.714632
0.714622
0.714611
0.714601
0.714591
0.71458
0.71457
0.71456
0.714549
0.714539
0.714529
0.714518
0.714508
0.714498
0.714487
0.714477
0.714467
0.714456
0.714446
0.714436
0.714425
0.714415
0.714405
0.714394
0.714384
0.714374
0.714363
0.714353
0.714343
0.714332
0.714322
0.714312
0.714301
0.714291
0.712591
0.71259
0.712589
0.712588
0.712588
0.712588
0.712588
0.712588
0.712588
0.712589
0.71259
0.712591
0.712593
0.712596
0.712599
0.712604
0.71261
0.712618
0.712628
0.712641
0.712657
0.712677
0.712701
0.71273
0.712764
0.712804
0.71285
0.712902
0.712961
0.713026
0.713097
0.713174
0.713257
0.713345
0.713437
0.713532
0.71363
0.713729
0.713829
0.713928
0.714025
0.714119
0.714209
0.714294
0.714373
0.714446
0.714512
0.71457
0.714621
0.714664
0.7147
0.714728
0.71475
0.714767
0.714778
0.714785
0.714788
0.714788
0.714787
0.714784
0.71478
0.714775
0.71477
0.714766
0.714761
0.714757
0.714753
0.714749
0.714745
0.714742
0.714739
0.714736
0.714733
0.71473
0.714727
0.714725
0.714723
0.714722
0.714721
0.714722
0.714725
0.71473
0.714737
0.714746
0.714758
0.714773
0.714791
0.714812
0.714835
0.714861
0.71489
0.71492
0.714951
0.714983
0.715016
0.715048
0.715079
0.715109
0.715137
0.715163
0.715186
0.715205
0.715222
0.715234
0.715243
0.715249
0.715251
0.71525
0.715246
0.71524
0.715231
0.715221
0.71521
0.715198
0.715185
0.715172
0.715159
0.715145
0.715132
0.71512
0.715108
0.715096
0.715084
0.715073
0.715063
0.715052
0.715042
0.715032
0.715022
0.715012
0.715002
0.714992
0.714982
0.714972
0.714962
0.714952
0.714942
0.714931
0.714921
0.714911
0.714901
0.71489
0.71488
0.71487
0.714859
0.714849
0.714839
0.714828
0.714818
0.714808
0.714797
0.714787
0.714777
0.714766
0.714756
0.714746
0.714735
0.714725
0.714715
0.714704
0.714694
0.714684
0.714673
0.714663
0.714653
0.714642
0.714632
0.714622
0.714611
0.714601
0.714591
0.71458
0.71457
0.71456
0.714549
0.714539
0.714529
0.714518
0.714508
0.714498
0.714487
0.714477
0.714467
0.714456
0.714446
0.714436
0.714425
0.714415
0.714405
0.714394
0.714384
0.714374
0.714363
0.714353
0.714343
0.714332
0.714322
0.714312
0.714301
0.714291
0.712593
0.712591
0.71259
0.712589
0.712588
0.712588
0.712588
0.712588
0.712588
0.712589
0.712589
0.712591
0.712593
0.712595
0.712598
0.712602
0.712608
0.712615
0.712624
0.712636
0.712652
0.71267
0.712694
0.712722
0.712755
0.712794
0.71284
0.712891
0.71295
0.713014
0.713085
0.713163
0.713245
0.713333
0.713425
0.71352
0.713617
0.713716
0.713816
0.713914
0.714011
0.714105
0.714195
0.714279
0.714359
0.714431
0.714497
0.714555
0.714605
0.714648
0.714684
0.714713
0.714735
0.714751
0.714762
0.714769
0.714773
0.714774
0.714773
0.714771
0.714768
0.714765
0.714762
0.714759
0.714756
0.714754
0.714751
0.714749
0.714746
0.714743
0.71474
0.714737
0.714734
0.714731
0.714728
0.714725
0.714723
0.714722
0.714722
0.714722
0.714724
0.714729
0.714735
0.714744
0.714756
0.71477
0.714788
0.714809
0.714832
0.714858
0.714886
0.714916
0.714948
0.71498
0.715013
0.715045
0.715077
0.715107
0.715135
0.715161
0.715185
0.715205
0.715221
0.715234
0.715244
0.715249
0.715252
0.715251
0.715247
0.71524
0.715232
0.715222
0.71521
0.715198
0.715185
0.715172
0.715158
0.715145
0.715132
0.71512
0.715108
0.715096
0.715084
0.715073
0.715063
0.715052
0.715042
0.715032
0.715022
0.715012
0.715002
0.714992
0.714982
0.714972
0.714962
0.714952
0.714942
0.714931
0.714921
0.714911
0.714901
0.71489
0.71488
0.71487
0.714859
0.714849
0.714839
0.714828
0.714818
0.714808
0.714797
0.714787
0.714777
0.714766
0.714756
0.714746
0.714735
0.714725
0.714715
0.714704
0.714694
0.714684
0.714673
0.714663
0.714653
0.714642
0.714632
0.714622
0.714611
0.714601
0.714591
0.71458
0.71457
0.71456
0.714549
0.714539
0.714529
0.714518
0.714508
0.714498
0.714487
0.714477
0.714467
0.714456
0.714446
0.714436
0.714425
0.714415
0.714405
0.714394
0.714384
0.714374
0.714363
0.714353
0.714343
0.714332
0.714322
0.714312
0.714301
0.714291
0.712588
0.712587
0.712586
0.712587
0.712586
0.712586
0.712586
0.712586
0.712587
0.712587
0.712588
0.71259
0.712591
0.712594
0.712596
0.7126
0.712605
0.712611
0.71262
0.712631
0.712645
0.712663
0.712685
0.712712
0.712745
0.712783
0.712828
0.712879
0.712936
0.713001
0.713071
0.713148
0.71323
0.713317
0.713408
0.713502
0.713599
0.713697
0.713795
0.713893
0.713988
0.714081
0.714169
0.714252
0.714329
0.7144
0.714464
0.71452
0.714569
0.71461
0.714644
0.714671
0.714692
0.714708
0.714718
0.714725
0.714729
0.714731
0.714731
0.714731
0.71473
0.714729
0.714729
0.714729
0.71473
0.714732
0.714733
0.714735
0.714736
0.714737
0.714737
0.714737
0.714736
0.714734
0.714731
0.714728
0.714726
0.714724
0.714723
0.714723
0.714725
0.714729
0.714735
0.714744
0.714755
0.714769
0.714787
0.714807
0.71483
0.714856
0.714884
0.714913
0.714945
0.714977
0.715009
0.715042
0.715073
0.715103
0.715132
0.715158
0.715181
0.715202
0.715218
0.715232
0.715241
0.715247
0.715249
0.715249
0.715245
0.715239
0.715231
0.715221
0.715209
0.715197
0.715184
0.715171
0.715158
0.715145
0.715132
0.71512
0.715107
0.715096
0.715084
0.715073
0.715063
0.715052
0.715042
0.715032
0.715022
0.715012
0.715002
0.714992
0.714982
0.714972
0.714962
0.714952
0.714942
0.714931
0.714921
0.714911
0.714901
0.71489
0.71488
0.71487
0.714859
0.714849
0.714839
0.714828
0.714818
0.714808
0.714797
0.714787
0.714777
0.714766
0.714756
0.714746
0.714735
0.714725
0.714715
0.714704
0.714694
0.714684
0.714673
0.714663
0.714653
0.714642
0.714632
0.714622
0.714611
0.714601
0.714591
0.71458
0.71457
0.71456
0.714549
0.714539
0.714529
0.714518
0.714508
0.714498
0.714487
0.714477
0.714467
0.714456
0.714446
0.714436
0.714425
0.714415
0.714405
0.714394
0.714384
0.714374
0.714363
0.714353
0.714343
0.714332
0.714322
0.714312
0.714301
0.714291
0.712586
0.712586
0.712583
0.712583
0.712582
0.712582
0.712582
0.712583
0.712583
0.712584
0.712586
0.712587
0.712589
0.712591
0.712593
0.712597
0.712601
0.712607
0.712615
0.712625
0.712639
0.712656
0.712678
0.712705
0.712737
0.712775
0.712819
0.71287
0.712927
0.712991
0.713061
0.713137
0.713218
0.713304
0.713394
0.713487
0.713582
0.713678
0.713774
0.713869
0.713962
0.714051
0.714136
0.714215
0.714288
0.714355
0.714414
0.714466
0.714511
0.714548
0.714578
0.714601
0.714619
0.714631
0.71464
0.714645
0.714648
0.71465
0.714651
0.714652
0.714654
0.714657
0.714661
0.714666
0.714672
0.714679
0.714687
0.714695
0.714703
0.714711
0.714718
0.714723
0.714728
0.714731
0.714733
0.714733
0.714733
0.714733
0.714732
0.714733
0.714734
0.714737
0.714743
0.714751
0.714762
0.714775
0.714792
0.714812
0.714834
0.714859
0.714886
0.714916
0.714946
0.714977
0.715009
0.715041
0.715072
0.715101
0.715129
0.715155
0.715177
0.715197
0.715214
0.715226
0.715236
0.715242
0.715244
0.715243
0.71524
0.715234
0.715226
0.715217
0.715206
0.715194
0.715182
0.715169
0.715157
0.715144
0.715132
0.715119
0.715107
0.715096
0.715085
0.715074
0.715063
0.715053
0.715042
0.715032
0.715022
0.715012
0.715002
0.714992
0.714982
0.714972
0.714962
0.714952
0.714942
0.714931
0.714921
0.714911
0.714901
0.71489
0.71488
0.71487
0.714859
0.714849
0.714839
0.714828
0.714818
0.714808
0.714797
0.714787
0.714777
0.714766
0.714756
0.714746
0.714735
0.714725
0.714715
0.714704
0.714694
0.714684
0.714673
0.714663
0.714653
0.714642
0.714632
0.714622
0.714611
0.714601
0.714591
0.71458
0.71457
0.71456
0.714549
0.714539
0.714529
0.714518
0.714508
0.714498
0.714487
0.714477
0.714467
0.714456
0.714446
0.714436
0.714425
0.714415
0.714405
0.714394
0.714384
0.714374
0.714363
0.714353
0.714343
0.714332
0.714322
0.714312
0.714301
0.714291
0.712554
0.712569
0.712569
0.712575
0.712576
0.712578
0.712579
0.712581
0.712582
0.712584
0.712585
0.712587
0.712588
0.71259
0.712593
0.712596
0.7126
0.712606
0.712614
0.712624
0.712637
0.712655
0.712676
0.712703
0.712735
0.712773
0.712817
0.712868
0.712925
0.712988
0.713058
0.713133
0.713213
0.713297
0.713385
0.713476
0.713568
0.713661
0.713753
0.713844
0.713932
0.714015
0.714094
0.714168
0.714234
0.714294
0.714347
0.714392
0.714429
0.71446
0.714483
0.714501
0.714514
0.714522
0.714528
0.714531
0.714533
0.714534
0.714536
0.714539
0.714544
0.714551
0.714559
0.71457
0.714583
0.714597
0.714613
0.714629
0.714646
0.714663
0.714679
0.714694
0.714708
0.714719
0.714729
0.714736
0.714742
0.714746
0.71475
0.714753
0.714756
0.71476
0.714765
0.714773
0.714783
0.714795
0.714811
0.714829
0.71485
0.714873
0.714899
0.714926
0.714955
0.714985
0.715015
0.715045
0.715074
0.715102
0.715128
0.715152
0.715173
0.715192
0.715207
0.715219
0.715228
0.715233
0.715236
0.715235
0.715232
0.715226
0.715219
0.71521
0.7152
0.715189
0.715178
0.715166
0.715154
0.715142
0.715131
0.715119
0.715107
0.715096
0.715085
0.715074
0.715064
0.715053
0.715043
0.715033
0.715023
0.715013
0.715002
0.714992
0.714982
0.714972
0.714962
0.714952
0.714942
0.714931
0.714921
0.714911
0.714901
0.71489
0.71488
0.71487
0.714859
0.714849
0.714839
0.714828
0.714818
0.714808
0.714797
0.714787
0.714777
0.714766
0.714756
0.714746
0.714735
0.714725
0.714715
0.714704
0.714694
0.714684
0.714673
0.714663
0.714653
0.714642
0.714632
0.714622
0.714611
0.714601
0.714591
0.71458
0.71457
0.71456
0.714549
0.714539
0.714529
0.714518
0.714508
0.714498
0.714487
0.714477
0.714467
0.714456
0.714446
0.714436
0.714425
0.714415
0.714405
0.714394
0.714384
0.714374
0.714363
0.714353
0.714343
0.714332
0.714322
0.714312
0.714301
0.714291
0.712553
0.71257
0.712569
0.712572
0.712573
0.712575
0.712577
0.712579
0.712581
0.712583
0.712585
0.712587
0.712589
0.712591
0.712594
0.712598
0.712602
0.712608
0.712616
0.712627
0.712641
0.712659
0.712682
0.712709
0.712742
0.712781
0.712826
0.712877
0.712934
0.712998
0.713067
0.713141
0.71322
0.713302
0.713388
0.713475
0.713564
0.713652
0.713739
0.713823
0.713904
0.71398
0.714051
0.714116
0.714173
0.714224
0.714267
0.714302
0.714331
0.714353
0.714369
0.71438
0.714387
0.714391
0.714393
0.714394
0.714396
0.714398
0.714401
0.714407
0.714415
0.714426
0.71444
0.714457
0.714477
0.714499
0.714523
0.714548
0.714574
0.714601
0.714627
0.714653
0.714677
0.714699
0.714719
0.714736
0.714751
0.714764
0.714774
0.714782
0.71479
0.714797
0.714805
0.714813
0.714823
0.714834
0.714848
0.714864
0.714883
0.714904
0.714926
0.714951
0.714976
0.715003
0.71503
0.715056
0.715083
0.715107
0.715131
0.715152
0.715171
0.715188
0.715201
0.715211
0.715219
0.715223
0.715225
0.715224
0.715221
0.715216
0.71521
0.715202
0.715193
0.715183
0.715173
0.715162
0.715151
0.71514
0.715129
0.715118
0.715107
0.715096
0.715086
0.715075
0.715065
0.715054
0.715044
0.715034
0.715023
0.715013
0.715003
0.714993
0.714983
0.714972
0.714962
0.714952
0.714942
0.714932
0.714921
0.714911
0.714901
0.71489
0.71488
0.71487
0.714859
0.714849
0.714839
0.714828
0.714818
0.714808
0.714797
0.714787
0.714777
0.714766
0.714756
0.714746
0.714735
0.714725
0.714715
0.714704
0.714694
0.714684
0.714673
0.714663
0.714653
0.714642
0.714632
0.714622
0.714611
0.714601
0.714591
0.71458
0.71457
0.71456
0.714549
0.714539
0.714529
0.714518
0.714508
0.714498
0.714487
0.714477
0.714467
0.714456
0.714446
0.714436
0.714425
0.714415
0.714405
0.714394
0.714384
0.714374
0.714363
0.714353
0.714343
0.714332
0.714322
0.714312
0.714301
0.714291
0.712397
0.712537
0.712554
0.712576
0.71258
0.712583
0.712584
0.712586
0.712587
0.712589
0.712591
0.712593
0.712595
0.712597
0.712601
0.712605
0.71261
0.712618
0.712627
0.71264
0.712656
0.712676
0.7127
0.71273
0.712764
0.712805
0.712852
0.712904
0.712962
0.713026
0.713095
0.713168
0.713245
0.713326
0.713408
0.713491
0.713574
0.713656
0.713736
0.713812
0.713884
0.71395
0.71401
0.714064
0.71411
0.714149
0.714181
0.714206
0.714225
0.714238
0.714247
0.714252
0.714254
0.714255
0.714256
0.714257
0.714259
0.714263
0.714269
0.714279
0.714292
0.714308
0.714327
0.71435
0.714376
0.714405
0.714436
0.714469
0.714504
0.71454
0.714576
0.714611
0.714645
0.714678
0.714708
0.714736
0.714761
0.714783
0.714802
0.714818
0.714833
0.714845
0.714857
0.714868
0.714879
0.714891
0.714904
0.714918
0.714934
0.714951
0.71497
0.71499
0.715011
0.715033
0.715055
0.715077
0.715099
0.715119
0.715138
0.715156
0.715171
0.715184
0.715195
0.715203
0.715209
0.715212
0.715213
0.715213
0.71521
0.715205
0.7152
0.715193
0.715185
0.715177
0.715167
0.715158
0.715148
0.715138
0.715128
0.715118
0.715107
0.715097
0.715086
0.715076
0.715065
0.715055
0.715045
0.715034
0.715024
0.715014
0.715004
0.714993
0.714983
0.714973
0.714962
0.714952
0.714942
0.714932
0.714921
0.714911
0.714901
0.71489
0.71488
0.71487
0.714859
0.714849
0.714839
0.714828
0.714818
0.714808
0.714797
0.714787
0.714777
0.714766
0.714756
0.714746
0.714735
0.714725
0.714715
0.714704
0.714694
0.714684
0.714673
0.714663
0.714653
0.714642
0.714632
0.714622
0.714611
0.714601
0.714591
0.71458
0.71457
0.71456
0.714549
0.714539
0.714529
0.714518
0.714508
0.714498
0.714487
0.714477
0.714467
0.714456
0.714446
0.714436
0.714425
0.714415
0.714405
0.714394
0.714384
0.714374
0.714363
0.714353
0.714343
0.714332
0.714322
0.714312
0.714301
0.714291
0.713135
0.713079
0.713016
0.712949
0.712875
0.712797
0.712709
0.712588
0.713142
0.713095
0.713032
0.712963
0.712889
0.71281
0.712719
0.712621
0.713146
0.713107
0.713049
0.712983
0.712914
0.712842
0.71277
0.7127
0.713157
0.713123
0.71307
0.713009
0.712945
0.71288
0.712817
0.712759
0.71317
0.713138
0.713089
0.713032
0.712974
0.712917
0.712863
0.712816
0.713185
0.713152
0.713104
0.713051
0.712997
0.712946
0.712899
0.712857
0.713201
0.713164
0.713114
0.713062
0.713011
0.712964
0.712921
0.712882
0.713209
0.713162
0.713112
0.713063
0.713015
0.71297
0.712928
0.71289
0.712524
0.712543
0.712564
0.712575
0.712582
0.712586
0.712588
0.71259
0.712592
0.712595
0.712598
0.712601
0.712604
0.712608
0.712614
0.71262
0.712628
0.712638
0.712651
0.712667
0.712686
0.71271
0.712738
0.712771
0.712809
0.712853
0.712902
0.712957
0.713017
0.713082
0.71315
0.713223
0.713298
0.713375
0.713453
0.71353
0.713606
0.713679
0.713749
0.713815
0.713875
0.713929
0.713976
0.714016
0.71405
0.714077
0.714097
0.714113
0.714123
0.71413
0.714133
0.714135
0.714136
0.714138
0.714139
0.714142
0.714147
0.714155
0.714165
0.714179
0.714196
0.714216
0.71424
0.714268
0.714299
0.714333
0.71437
0.714409
0.71445
0.714493
0.714536
0.714579
0.714621
0.714663
0.714702
0.714739
0.714773
0.714804
0.714832
0.714857
0.714879
0.714898
0.714914
0.714929
0.714943
0.714956
0.714969
0.714982
0.714995
0.715009
0.715024
0.71504
0.715056
0.715072
0.715089
0.715105
0.715121
0.715135
0.715149
0.715162
0.715173
0.715182
0.715189
0.715195
0.715199
0.715201
0.715201
0.7152
0.715198
0.715194
0.715189
0.715183
0.715177
0.71517
0.715162
0.715154
0.715145
0.715136
0.715127
0.715117
0.715107
0.715097
0.715087
0.715077
0.715067
0.715056
0.715046
0.715035
0.715025
0.715015
0.715004
0.714994
0.714983
0.714973
0.714963
0.714952
0.714942
0.714932
0.714921
0.714911
0.714901
0.71489
0.71488
0.71487
0.714859
0.714849
0.714839
0.714828
0.714818
0.714808
0.714797
0.714787
0.714777
0.714766
0.714756
0.714746
0.714735
0.714725
0.714715
0.714704
0.714694
0.714684
0.714673
0.714663
0.714653
0.714642
0.714632
0.714622
0.714611
0.714601
0.714591
0.71458
0.71457
0.71456
0.714549
0.714539
0.714529
0.714518
0.714508
0.714498
0.714487
0.714477
0.714467
0.714456
0.714446
0.714436
0.714425
0.714415
0.714405
0.714394
0.714384
0.714374
0.714363
0.714353
0.714343
0.714332
0.714322
0.714312
0.714301
0.714291
0.712547
0.712556
0.712569
0.712582
0.712591
0.712596
0.7126
0.712604
0.712607
0.712611
0.712615
0.71262
0.712626
0.712632
0.712641
0.712651
0.712663
0.712677
0.712695
0.712716
0.71274
0.712769
0.712803
0.712841
0.712884
0.712932
0.712985
0.713042
0.713104
0.713169
0.713237
0.713307
0.713379
0.71345
0.713522
0.713591
0.713657
0.713719
0.713776
0.713828
0.713875
0.713914
0.713948
0.713975
0.713997
0.714013
0.714025
0.714033
0.71404
0.714044
0.714048
0.714051
0.714054
0.714058
0.714063
0.71407
0.714078
0.714089
0.714103
0.714119
0.714139
0.714162
0.714188
0.714219
0.714253
0.71429
0.71433
0.714373
0.714418
0.714465
0.714513
0.714562
0.71461
0.714658
0.714704
0.714748
0.714789
0.714828
0.714863
0.714895
0.714923
0.714948
0.71497
0.714989
0.715005
0.71502
0.715033
0.715046
0.715057
0.715068
0.715079
0.71509
0.715101
0.715112
0.715123
0.715133
0.715143
0.715152
0.71516
0.715168
0.715174
0.71518
0.715184
0.715187
0.715189
0.71519
0.71519
0.715189
0.715187
0.715184
0.71518
0.715175
0.71517
0.715164
0.715157
0.71515
0.715142
0.715134
0.715125
0.715116
0.715107
0.715098
0.715088
0.715078
0.715068
0.715057
0.715047
0.715036
0.715026
0.715015
0.715005
0.714994
0.714984
0.714973
0.714963
0.714953
0.714942
0.714932
0.714921
0.714911
0.714901
0.71489
0.71488
0.71487
0.714859
0.714849
0.714839
0.714828
0.714818
0.714808
0.714797
0.714787
0.714777
0.714766
0.714756
0.714746
0.714735
0.714725
0.714715
0.714704
0.714694
0.714684
0.714673
0.714663
0.714653
0.714642
0.714632
0.714622
0.714611
0.714601
0.714591
0.71458
0.71457
0.71456
0.714549
0.714539
0.714529
0.714518
0.714508
0.714498
0.714487
0.714477
0.714467
0.714456
0.714446
0.714436
0.714425
0.714415
0.714405
0.714394
0.714384
0.714374
0.714363
0.714353
0.714343
0.714332
0.714322
0.714312
0.714301
0.714291
0.712646
0.712622
0.712616
0.712617
0.712619
0.712622
0.712624
0.712628
0.712632
0.712636
0.712642
0.71265
0.712659
0.712669
0.712682
0.712696
0.712714
0.712734
0.712758
0.712785
0.712816
0.712852
0.712891
0.712936
0.712984
0.713037
0.713093
0.713153
0.713215
0.71328
0.713345
0.713411
0.713477
0.713541
0.713603
0.713661
0.713715
0.713763
0.713806
0.713843
0.713874
0.7139
0.713922
0.713939
0.713953
0.713965
0.713974
0.713983
0.71399
0.713996
0.714002
0.714008
0.714014
0.714021
0.714029
0.714038
0.714048
0.714061
0.714075
0.714093
0.714113
0.714137
0.714165
0.714196
0.714231
0.71427
0.714312
0.714357
0.714404
0.714454
0.714505
0.714557
0.71461
0.714661
0.714712
0.714761
0.714807
0.714851
0.714891
0.714928
0.714961
0.714991
0.715016
0.715039
0.715058
0.715074
0.715088
0.7151
0.71511
0.715118
0.715126
0.715133
0.71514
0.715146
0.715151
0.715156
0.715161
0.715165
0.715169
0.715172
0.715175
0.715177
0.715179
0.71518
0.715181
0.715181
0.71518
0.715179
0.715178
0.715175
0.715172
0.715168
0.715164
0.715159
0.715153
0.715147
0.71514
0.715133
0.715125
0.715116
0.715107
0.715098
0.715088
0.715079
0.715068
0.715058
0.715048
0.715037
0.715027
0.715016
0.715005
0.714995
0.714984
0.714974
0.714963
0.714953
0.714942
0.714932
0.714921
0.714911
0.714901
0.71489
0.71488
0.71487
0.714859
0.714849
0.714839
0.714828
0.714818
0.714808
0.714797
0.714787
0.714777
0.714766
0.714756
0.714746
0.714735
0.714725
0.714715
0.714704
0.714694
0.714684
0.714673
0.714663
0.714653
0.714642
0.714632
0.714622
0.714611
0.714601
0.714591
0.71458
0.71457
0.71456
0.714549
0.714539
0.714529
0.714518
0.714508
0.714498
0.714487
0.714477
0.714467
0.714456
0.714446
0.714436
0.714425
0.714415
0.714405
0.714394
0.714384
0.714374
0.714363
0.714353
0.714343
0.714332
0.714322
0.714312
0.714301
0.714291
0.712712
0.712685
0.712671
0.712664
0.712661
0.71266
0.712661
0.712663
0.712667
0.712672
0.712679
0.712689
0.7127
0.712714
0.712731
0.712751
0.712774
0.7128
0.71283
0.712864
0.712901
0.712943
0.712989
0.713039
0.713093
0.713149
0.713208
0.713269
0.71333
0.713392
0.713453
0.713512
0.713569
0.713623
0.713672
0.713717
0.713756
0.71379
0.71382
0.713846
0.713868
0.713888
0.713903
0.713917
0.713928
0.713938
0.713947
0.713957
0.713967
0.713977
0.713986
0.713995
0.714004
0.714012
0.714021
0.71403
0.71404
0.714053
0.714068
0.714085
0.714106
0.71413
0.714158
0.71419
0.714226
0.714265
0.714308
0.714354
0.714403
0.714454
0.714507
0.714561
0.714616
0.71467
0.714723
0.714775
0.714825
0.714871
0.714915
0.714955
0.714991
0.715023
0.715051
0.715076
0.715096
0.715113
0.715127
0.715139
0.715148
0.715154
0.71516
0.715164
0.715167
0.715169
0.715171
0.715172
0.715173
0.715173
0.715174
0.715174
0.715174
0.715175
0.715175
0.715175
0.715174
0.715174
0.715173
0.715172
0.715171
0.715169
0.715167
0.715164
0.71516
0.715156
0.715151
0.715145
0.715139
0.715132
0.715124
0.715116
0.715108
0.715098
0.715089
0.715079
0.715069
0.715059
0.715048
0.715038
0.715027
0.715017
0.715006
0.714995
0.714985
0.714974
0.714963
0.714953
0.714942
0.714932
0.714921
0.714911
0.714901
0.71489
0.71488
0.71487
0.714859
0.714849
0.714839
0.714828
0.714818
0.714808
0.714797
0.714787
0.714777
0.714766
0.714756
0.714746
0.714735
0.714725
0.714715
0.714704
0.714694
0.714684
0.714673
0.714663
0.714653
0.714642
0.714632
0.714622
0.714611
0.714601
0.714591
0.71458
0.71457
0.71456
0.714549
0.714539
0.714529
0.714518
0.714508
0.714498
0.714487
0.714477
0.714467
0.714456
0.714446
0.714436
0.714425
0.714415
0.714405
0.714394
0.714384
0.714374
0.714363
0.714353
0.714343
0.714332
0.714322
0.714312
0.714301
0.714291
0.712777
0.712749
0.71273
0.712718
0.71271
0.712705
0.712702
0.712702
0.712704
0.712709
0.712717
0.712728
0.712742
0.712759
0.712779
0.712803
0.712831
0.712862
0.712897
0.712937
0.71298
0.713027
0.713078
0.713132
0.713188
0.713247
0.713305
0.713364
0.713421
0.713476
0.713529
0.71358
0.713628
0.713672
0.713712
0.713748
0.713778
0.713802
0.713822
0.713839
0.713854
0.713868
0.713882
0.713897
0.713913
0.713928
0.713942
0.713955
0.713966
0.713976
0.713985
0.713993
0.714002
0.71401
0.714019
0.714028
0.714039
0.714052
0.714068
0.714086
0.714107
0.714131
0.71416
0.714192
0.714228
0.714268
0.714311
0.714358
0.714408
0.71446
0.714514
0.714569
0.714624
0.71468
0.714735
0.714788
0.714839
0.714887
0.714932
0.714974
0.715011
0.715045
0.715074
0.715099
0.71512
0.715138
0.715151
0.715162
0.71517
0.715176
0.715179
0.715182
0.715182
0.715182
0.715182
0.715181
0.715179
0.715178
0.715176
0.715175
0.715174
0.715173
0.715172
0.715171
0.715171
0.71517
0.715169
0.715168
0.715167
0.715165
0.715163
0.715161
0.715157
0.715154
0.715149
0.715144
0.715138
0.715131
0.715124
0.715116
0.715108
0.715099
0.715089
0.71508
0.71507
0.715059
0.715049
0.715038
0.715028
0.715017
0.715006
0.714995
0.714985
0.714974
0.714963
0.714953
0.714942
0.714932
0.714921
0.714911
0.714901
0.71489
0.71488
0.714869
0.714859
0.714849
0.714839
0.714828
0.714818
0.714808
0.714797
0.714787
0.714777
0.714766
0.714756
0.714746
0.714735
0.714725
0.714715
0.714704
0.714694
0.714684
0.714673
0.714663
0.714653
0.714642
0.714632
0.714622
0.714611
0.714601
0.714591
0.71458
0.71457
0.71456
0.714549
0.714539
0.714529
0.714518
0.714508
0.714498
0.714487
0.714477
0.714467
0.714456
0.714446
0.714436
0.714425
0.714415
0.714405
0.714394
0.714384
0.714374
0.714363
0.714353
0.714343
0.714332
0.714322
0.714312
0.714301
0.714291
0.712822
0.712794
0.712773
0.712757
0.712745
0.712736
0.712731
0.712729
0.71273
0.712735
0.712743
0.712755
0.712771
0.71279
0.712814
0.712841
0.712871
0.712906
0.712945
0.712987
0.713033
0.713083
0.713135
0.71319
0.713247
0.713304
0.713361
0.713417
0.71347
0.71352
0.713567
0.71361
0.713649
0.713683
0.713712
0.713736
0.713757
0.713779
0.713801
0.713824
0.713846
0.713866
0.713885
0.713901
0.713915
0.713928
0.71394
0.713952
0.713962
0.713973
0.713982
0.713991
0.714
0.71401
0.714019
0.71403
0.714041
0.714055
0.714071
0.71409
0.714112
0.714137
0.714166
0.714199
0.714235
0.714275
0.714319
0.714366
0.714416
0.714469
0.714523
0.714578
0.714634
0.71469
0.714745
0.714799
0.71485
0.714899
0.714944
0.714986
0.715024
0.715058
0.715087
0.715112
0.715133
0.71515
0.715164
0.715174
0.715181
0.715186
0.715189
0.71519
0.71519
0.715189
0.715187
0.715185
0.715182
0.71518
0.715178
0.715175
0.715174
0.715172
0.715171
0.715169
0.715169
0.715168
0.715167
0.715166
0.715165
0.715163
0.715161
0.715159
0.715156
0.715152
0.715148
0.715143
0.715137
0.715131
0.715124
0.715116
0.715107
0.715099
0.715089
0.71508
0.71507
0.715059
0.715049
0.715038
0.715028
0.715017
0.715006
0.714996
0.714985
0.714974
0.714964
0.714953
0.714942
0.714932
0.714921
0.714911
0.714901
0.71489
0.71488
0.714869
0.714859
0.714849
0.714839
0.714828
0.714818
0.714808
0.714797
0.714787
0.714777
0.714766
0.714756
0.714746
0.714735
0.714725
0.714715
0.714704
0.714694
0.714684
0.714673
0.714663
0.714653
0.714642
0.714632
0.714622
0.714611
0.714601
0.714591
0.71458
0.71457
0.71456
0.714549
0.714539
0.714529
0.714518
0.714508
0.714498
0.714487
0.714477
0.714467
0.714456
0.714446
0.714436
0.714425
0.714415
0.714405
0.714394
0.714384
0.714374
0.714363
0.714353
0.714343
0.714332
0.714322
0.714312
0.714301
0.714291
0.712849
0.712821
0.712798
0.712779
0.712764
0.712753
0.712746
0.712743
0.712744
0.712749
0.712758
0.71277
0.712787
0.712808
0.712833
0.712861
0.712894
0.71293
0.71297
0.713014
0.71306
0.71311
0.713163
0.713217
0.713271
0.713325
0.713377
0.713426
0.713471
0.713512
0.713552
0.71359
0.713629
0.713666
0.713701
0.713733
0.713761
0.713785
0.713808
0.713828
0.713846
0.713863
0.71388
0.713895
0.71391
0.713925
0.713938
0.71395
0.713961
0.713972
0.713982
0.713991
0.714
0.71401
0.71402
0.714031
0.714043
0.714057
0.714074
0.714093
0.714116
0.714142
0.714171
0.714204
0.714241
0.714282
0.714326
0.714373
0.714423
0.714475
0.71453
0.714585
0.714641
0.714697
0.714751
0.714805
0.714856
0.714904
0.71495
0.714991
0.715029
0.715062
0.715092
0.715117
0.715137
0.715154
0.715168
0.715178
0.715185
0.715189
0.715192
0.715192
0.715192
0.715191
0.715188
0.715186
0.715183
0.71518
0.715178
0.715175
0.715173
0.715172
0.71517
0.715169
0.715168
0.715167
0.715166
0.715165
0.715164
0.715163
0.715161
0.715158
0.715155
0.715152
0.715147
0.715142
0.715137
0.71513
0.715123
0.715115
0.715107
0.715098
0.715089
0.715079
0.715069
0.715059
0.715049
0.715038
0.715028
0.715017
0.715006
0.714996
0.714985
0.714974
0.714964
0.714953
0.714942
0.714932
0.714921
0.714911
0.714901
0.71489
0.71488
0.714869
0.714859
0.714849
0.714839
0.714828
0.714818
0.714808
0.714797
0.714787
0.714777
0.714766
0.714756
0.714746
0.714735
0.714725
0.714715
0.714704
0.714694
0.714684
0.714673
0.714663
0.714653
0.714642
0.714632
0.714622
0.714611
0.714601
0.714591
0.71458
0.71457
0.71456
0.714549
0.714539
0.714529
0.714518
0.714508
0.714498
0.714487
0.714477
0.714467
0.714456
0.714446
0.714436
0.714425
0.714415
0.714405
0.714394
0.714384
0.714374
0.714363
0.714353
0.714343
0.714332
0.714322
0.714312
0.714301
0.714291
0.712856
0.712826
0.712801
0.71278
0.712763
0.712751
0.712743
0.71274
0.712741
0.712745
0.712754
0.712767
0.712784
0.712805
0.712829
0.712857
0.712889
0.712924
0.712963
0.713005
0.71305
0.713097
0.713147
0.713199
0.713252
0.713306
0.713358
0.713409
0.713458
0.713504
0.713548
0.71359
0.713629
0.713666
0.713698
0.713727
0.713753
0.713777
0.7138
0.713822
0.713842
0.713861
0.713879
0.713895
0.71391
0.713924
0.713936
0.713948
0.713959
0.713969
0.713979
0.713989
0.713998
0.714008
0.714018
0.71403
0.714043
0.714058
0.714075
0.714095
0.714119
0.714145
0.714175
0.714209
0.714246
0.714287
0.714332
0.71438
0.71443
0.714483
0.714537
0.714592
0.714648
0.714704
0.714759
0.714812
0.714863
0.714911
0.714956
0.714997
0.715034
0.715067
0.715096
0.71512
0.715141
0.715157
0.71517
0.715179
0.715186
0.71519
0.715192
0.715193
0.715192
0.715191
0.715188
0.715186
0.715183
0.71518
0.715178
0.715175
0.715173
0.715172
0.71517
0.715169
0.715168
0.715167
0.715166
0.715165
0.715164
0.715163
0.715161
0.715158
0.715155
0.715152
0.715147
0.715142
0.715137
0.71513
0.715123
0.715115
0.715107
0.715098
0.715089
0.715079
0.715069
0.715059
0.715049
0.715038
0.715028
0.715017
0.715006
0.714996
0.714985
0.714974
0.714964
0.714953
0.714942
0.714932
0.714921
0.714911
0.714901
0.71489
0.71488
0.71487
0.714859
0.714849
0.714839
0.714828
0.714818
0.714808
0.714797
0.714787
0.714777
0.714766
0.714756
0.714746
0.714735
0.714725
0.714715
0.714704
0.714694
0.714684
0.714673
0.714663
0.714653
0.714642
0.714632
0.714622
0.714611
0.714601
0.714591
0.71458
0.71457
0.71456
0.714549
0.714539
0.714529
0.714518
0.714508
0.714498
0.714487
0.714477
0.714467
0.714456
0.714446
0.714436
0.714425
0.714415
0.714405
0.714394
0.714384
0.714374
0.714363
0.714353
0.714343
0.714332
0.714322
0.714312
0.714301
0.714291
)
;

boundaryField
{
    inlet
    {
        type            zeroGradient;
    }
    outlet
    {