/*--------------------------------*- C++ -*----------------------------------*\
| =========                 |                                                 |
| \\      /  F ield         | OpenFOAM: The Open Source CFD Toolbox           |
|  \\    /   O peration     | Version:  4.1                                   |
|   \\  /    A nd           | Web:      www.OpenFOAM.org                      |
|    \\/     M anipulation  |                                                 |
\*---------------------------------------------------------------------------*/
FoamFile
{
    version     2.0;
    format      ascii;
    class       volScalarField;
    location    "253";
    object      p;
}
// * * * * * * * * * * * * * * * * * * * * * * * * * * * * * * * * * * * * * //

dimensions      [1 -1 -2 0 0 0 0];

internalField   nonuniform List<scalar> 
3264
(
0.712525
0.712523
0.712523
0.712522
0.712522
0.712522
0.712523
0.712525
0.712527
0.71253
0.712534
0.712538
0.712543
0.712549
0.712556
0.712564
0.712572
0.712582
0.712593
0.712606
0.71262
0.712636
0.712654
0.712675
0.712698
0.712725
0.712756
0.71279
0.712828
0.712871
0.712918
0.712971
0.713028
0.713089
0.713156
0.713226
0.713301
0.713379
0.71346
0.713544
0.713629
0.713715
0.713802
0.713887
0.713971
0.714053
0.714131
0.714205
0.714275
0.71434
0.714399
0.714452
0.714499
0.714539
0.714574
0.714602
0.714625
0.714642
0.714655
0.714663
0.714668
0.714669
0.714669
0.714666
0.714662
0.714658
0.714653
0.714649
0.714644
0.714641
0.714638
0.714636
0.714635
0.714634
0.714635
0.714635
0.714637
0.714639
0.714641
0.714643
0.714645
0.714647
0.714648
0.71465
0.714651
0.714652
0.714653
0.714654
0.714655
0.714655
0.714656
0.714656
0.714657
0.714657
0.714658
0.714659
0.714661
0.714664
0.714667
0.714671
0.714677
0.714683
0.714691
0.7147
0.714711
0.714723
0.714736
0.71475
0.714766
0.714781
0.714798
0.714815
0.714831
0.714848
0.714864
0.71488
0.714894
0.714908
0.71492
0.71493
0.71494
0.714947
0.714953
0.714957
0.71496
0.714961
0.71496
0.714958
0.714955
0.71495
0.714945
0.714938
0.714931
0.714923
0.714915
0.714906
0.714897
0.714887
0.714878
0.714868
0.714858
0.714849
0.714839
0.71483
0.714821
0.714812
0.714802
0.714794
0.714785
0.714776
0.714767
0.714759
0.71475
0.714741
0.714732
0.714723
0.714714
0.714705
0.714695
0.714686
0.714676
0.714667
0.714657
0.714647
0.714637
0.714627
0.714617
0.714607
0.714597
0.714587
0.714577
0.714567
0.714557
0.714547
0.714538
0.714528
0.714518
0.714508
0.714498
0.714488
0.714478
0.714468
0.714458
0.714449
0.714439
0.714429
0.714419
0.714409
0.714399
0.714389
0.71438
0.71437
0.71436
0.71435
0.71434
0.71433
0.714321
0.714311
0.714301
0.714291
0.712527
0.712525
0.712524
0.712524
0.712524
0.712525
0.712526
0.712527
0.71253
0.712532
0.712536
0.712541
0.712546
0.712552
0.712558
0.712566
0.712575
0.712585
0.712596
0.712608
0.712622
0.712638
0.712656
0.712676
0.712699
0.712725
0.712755
0.712788
0.712826
0.712868
0.712915
0.712966
0.713022
0.713083
0.713149
0.713219
0.713293
0.71337
0.713451
0.713534
0.713619
0.713705
0.713791
0.713877
0.713961
0.714042
0.714121
0.714195
0.714265
0.71433
0.714389
0.714442
0.714489
0.71453
0.714565
0.714594
0.714617
0.714634
0.714648
0.714656
0.714662
0.714664
0.714664
0.714662
0.714659
0.714656
0.714652
0.714648
0.714645
0.714642
0.714641
0.714639
0.714639
0.714639
0.714639
0.71464
0.714642
0.714643
0.714645
0.714647
0.714648
0.71465
0.714652
0.714653
0.714654
0.714655
0.714656
0.714656
0.714657
0.714657
0.714657
0.714657
0.714658
0.714658
0.714659
0.71466
0.714661
0.714663
0.714666
0.71467
0.714675
0.714682
0.714689
0.714698
0.714709
0.71472
0.714733
0.714747
0.714762
0.714778
0.714795
0.714811
0.714828
0.714845
0.714861
0.714877
0.714891
0.714905
0.714917
0.714928
0.714938
0.714945
0.714952
0.714956
0.714959
0.71496
0.71496
0.714958
0.714955
0.71495
0.714945
0.714939
0.714932
0.714924
0.714915
0.714906
0.714897
0.714888
0.714878
0.714868
0.714859
0.714849
0.714839
0.71483
0.714821
0.714811
0.714802
0.714794
0.714785
0.714776
0.714767
0.714758
0.71475
0.714741
0.714732
0.714723
0.714714
0.714705
0.714695
0.714686
0.714676
0.714667
0.714657
0.714647
0.714637
0.714627
0.714617
0.714607
0.714597
0.714587
0.714577
0.714567
0.714557
0.714547
0.714538
0.714528
0.714518
0.714508
0.714498
0.714488
0.714478
0.714468
0.714458
0.714449
0.714439
0.714429
0.714419
0.714409
0.714399
0.714389
0.71438
0.71437
0.71436
0.71435
0.71434
0.71433
0.714321
0.714311
0.714301
0.714291
0.712528
0.712526
0.712525
0.712525
0.712524
0.712525
0.712525
0.712527
0.712529
0.712532
0.712535
0.71254
0.712545
0.712551
0.712558
0.712565
0.712574
0.712584
0.712594
0.712606
0.71262
0.712635
0.712653
0.712672
0.712695
0.712721
0.71275
0.712782
0.712819
0.712861
0.712907
0.712958
0.713014
0.713074
0.71314
0.713209
0.713283
0.713361
0.713441
0.713524
0.713609
0.713695
0.713781
0.713866
0.71395
0.714031
0.714109
0.714184
0.714253
0.714318
0.714377
0.71443
0.714477
0.714517
0.714552
0.71458
0.714603
0.714621
0.714634
0.714643
0.714648
0.714651
0.714651
0.71465
0.714647
0.714644
0.714641
0.714638
0.714636
0.714634
0.714633
0.714633
0.714633
0.714634
0.714636
0.714639
0.714641
0.714644
0.714646
0.714649
0.714651
0.714653
0.714654
0.714655
0.714656
0.714657
0.714657
0.714658
0.714658
0.714658
0.714659
0.714659
0.714659
0.714659
0.714659
0.71466
0.714661
0.714663
0.714666
0.71467
0.714674
0.714681
0.714688
0.714697
0.714707
0.714718
0.714731
0.714745
0.71476
0.714776
0.714792
0.714809
0.714826
0.714843
0.714859
0.714875
0.71489
0.714903
0.714916
0.714927
0.714936
0.714944
0.71495
0.714955
0.714958
0.714959
0.714959
0.714957
0.714954
0.71495
0.714945
0.714939
0.714932
0.714924
0.714915
0.714906
0.714897
0.714888
0.714878
0.714868
0.714859
0.714849
0.714839
0.71483
0.714821
0.714812
0.714803
0.714794
0.714785
0.714776
0.714767
0.714759
0.71475
0.714741
0.714732
0.714723
0.714714
0.714705
0.714695
0.714686
0.714676
0.714667
0.714657
0.714647
0.714637
0.714627
0.714617
0.714607
0.714597
0.714587
0.714577
0.714567
0.714557
0.714547
0.714538
0.714528
0.714518
0.714508
0.714498
0.714488
0.714478
0.714468
0.714458
0.714449
0.714439
0.714429
0.714419
0.714409
0.714399
0.714389
0.71438
0.71437
0.71436
0.71435
0.71434
0.71433
0.714321
0.714311
0.714301
0.714291
0.712523
0.712522
0.712521
0.712522
0.712521
0.712522
0.712523
0.712525
0.712527
0.71253
0.712534
0.712538
0.712543
0.712549
0.712556
0.712564
0.712572
0.712582
0.712592
0.712604
0.712617
0.712632
0.712649
0.712668
0.71269
0.712715
0.712743
0.712775
0.712811
0.712852
0.712898
0.712948
0.713003
0.713063
0.713128
0.713197
0.713271
0.713348
0.713428
0.71351
0.713594
0.713679
0.713765
0.713849
0.713932
0.714012
0.714089
0.714162
0.71423
0.714293
0.714351
0.714402
0.714448
0.714487
0.714521
0.714548
0.71457
0.714587
0.7146
0.714608
0.714613
0.714616
0.714617
0.714616
0.714614
0.714613
0.714611
0.714609
0.714608
0.714608
0.714609
0.714611
0.714614
0.714618
0.714622
0.714626
0.714631
0.714636
0.714641
0.714646
0.71465
0.714653
0.714656
0.714658
0.71466
0.714661
0.714662
0.714662
0.714662
0.714662
0.714662
0.714662
0.714661
0.714661
0.714661
0.714662
0.714663
0.714664
0.714667
0.71467
0.714675
0.71468
0.714688
0.714696
0.714706
0.714717
0.71473
0.714743
0.714758
0.714774
0.71479
0.714806
0.714823
0.71484
0.714856
0.714871
0.714886
0.7149
0.714912
0.714923
0.714933
0.71494
0.714947
0.714951
0.714954
0.714956
0.714956
0.714955
0.714952
0.714948
0.714943
0.714937
0.71493
0.714923
0.714915
0.714906
0.714897
0.714888
0.714878
0.714869
0.714859
0.714849
0.71484
0.714831
0.714821
0.714812
0.714803
0.714794
0.714785
0.714776
0.714768
0.714759
0.71475
0.714741
0.714732
0.714723
0.714714
0.714705
0.714695
0.714686
0.714676
0.714667
0.714657
0.714647
0.714637
0.714627
0.714617
0.714607
0.714597
0.714587
0.714577
0.714567
0.714557
0.714547
0.714538
0.714528
0.714518
0.714508
0.714498
0.714488
0.714478
0.714468
0.714458
0.714449
0.714439
0.714429
0.714419
0.714409
0.714399
0.714389
0.71438
0.71437
0.71436
0.71435
0.71434
0.71433
0.714321
0.714311
0.714301
0.714291
0.71252
0.71252
0.712517
0.712518
0.712517
0.712517
0.712518
0.71252
0.712522
0.712526
0.71253
0.712535
0.71254
0.712547
0.712554
0.712561
0.71257
0.712579
0.712589
0.712601
0.712614
0.712628
0.712645
0.712663
0.712685
0.712709
0.712737
0.712769
0.712805
0.712846
0.712891
0.712941
0.712996
0.713056
0.71312
0.713189
0.713262
0.713338
0.713417
0.713498
0.713581
0.713665
0.713748
0.71383
0.713911
0.713989
0.714063
0.714133
0.714199
0.714259
0.714313
0.714362
0.714404
0.71444
0.714471
0.714496
0.714515
0.71453
0.714541
0.714549
0.714553
0.714556
0.714556
0.714556
0.714555
0.714555
0.714554
0.714555
0.714556
0.714559
0.714562
0.714567
0.714573
0.71458
0.714588
0.714596
0.714605
0.714614
0.714622
0.714631
0.714639
0.714646
0.714652
0.714657
0.714662
0.714665
0.714667
0.714669
0.71467
0.71467
0.71467
0.71467
0.714669
0.714669
0.714668
0.714668
0.714669
0.71467
0.714672
0.714675
0.714679
0.714685
0.714691
0.714699
0.714709
0.71472
0.714732
0.714745
0.714759
0.714774
0.71479
0.714806
0.714822
0.714838
0.714853
0.714868
0.714882
0.714895
0.714907
0.714918
0.714927
0.714935
0.714941
0.714945
0.714948
0.71495
0.71495
0.714949
0.714946
0.714943
0.714938
0.714933
0.714927
0.71492
0.714912
0.714904
0.714896
0.714887
0.714878
0.714869
0.71486
0.71485
0.714841
0.714831
0.714822
0.714813
0.714804
0.714795
0.714786
0.714777
0.714768
0.714759
0.71475
0.714741
0.714732
0.714723
0.714714
0.714705
0.714695
0.714686
0.714676
0.714667
0.714657
0.714647
0.714637
0.714627
0.714617
0.714607
0.714597
0.714587
0.714577
0.714567
0.714557
0.714547
0.714537
0.714528
0.714518
0.714508
0.714498
0.714488
0.714478
0.714468
0.714458
0.714449
0.714439
0.714429
0.714419
0.714409
0.714399
0.714389
0.71438
0.71437
0.71436
0.71435
0.71434
0.71433
0.714321
0.714311
0.714301
0.714291
0.712488
0.712503
0.712503
0.712509
0.71251
0.712512
0.712514
0.712517
0.71252
0.712524
0.712528
0.712533
0.712539
0.712545
0.712552
0.71256
0.712569
0.712578
0.712588
0.7126
0.712613
0.712627
0.712643
0.712662
0.712683
0.712708
0.712736
0.712768
0.712804
0.712845
0.71289
0.71294
0.712994
0.713054
0.713118
0.713186
0.713258
0.713333
0.71341
0.71349
0.713571
0.713652
0.713732
0.713811
0.713888
0.713962
0.714032
0.714097
0.714158
0.714213
0.714262
0.714306
0.714343
0.714375
0.714401
0.714421
0.714438
0.71445
0.714458
0.714464
0.714467
0.714469
0.71447
0.714471
0.714472
0.714473
0.714475
0.714478
0.714482
0.714488
0.714495
0.714503
0.714513
0.714524
0.714536
0.714549
0.714562
0.714576
0.71459
0.714603
0.714617
0.714629
0.71464
0.71465
0.714659
0.714667
0.714673
0.714678
0.714681
0.714684
0.714685
0.714686
0.714686
0.714685
0.714685
0.714685
0.714685
0.714685
0.714686
0.714689
0.714692
0.714697
0.714703
0.71471
0.714718
0.714728
0.714739
0.714751
0.714765
0.714778
0.714793
0.714808
0.714822
0.714837
0.714851
0.714865
0.714878
0.71489
0.714901
0.714911
0.714919
0.714926
0.714931
0.714936
0.714938
0.71494
0.71494
0.71494
0.714938
0.714935
0.714931
0.714927
0.714921
0.714915
0.714909
0.714901
0.714894
0.714886
0.714877
0.714869
0.71486
0.714851
0.714842
0.714833
0.714824
0.714815
0.714806
0.714796
0.714787
0.714778
0.714769
0.71476
0.714751
0.714742
0.714733
0.714724
0.714714
0.714705
0.714695
0.714686
0.714676
0.714666
0.714657
0.714647
0.714637
0.714627
0.714617
0.714607
0.714597
0.714587
0.714577
0.714567
0.714557
0.714547
0.714537
0.714528
0.714518
0.714508
0.714498
0.714488
0.714478
0.714468
0.714458
0.714449
0.714439
0.714429
0.714419
0.714409
0.714399
0.714389
0.71438
0.71437
0.71436
0.71435
0.71434
0.71433
0.714321
0.714311
0.714301
0.714291
0.712487
0.712504
0.712502
0.712506
0.712506
0.712509
0.712511
0.712514
0.712518
0.712522
0.712527
0.712532
0.712538
0.712545
0.712552
0.71256
0.712569
0.712579
0.712589
0.712601
0.712614
0.712629
0.712646
0.712665
0.712687
0.712713
0.712741
0.712774
0.712811
0.712852
0.712898
0.712948
0.713003
0.713063
0.713126
0.713194
0.713265
0.713338
0.713414
0.713491
0.713568
0.713646
0.713722
0.713796
0.713868
0.713936
0.713999
0.714058
0.714112
0.71416
0.714202
0.714239
0.714269
0.714295
0.714315
0.714331
0.714343
0.714352
0.714358
0.714362
0.714365
0.714367
0.714369
0.714371
0.714374
0.714378
0.714382
0.714388
0.714396
0.714405
0.714416
0.714428
0.714442
0.714458
0.714474
0.714492
0.71451
0.714529
0.714548
0.714567
0.714586
0.714604
0.714622
0.714638
0.714653
0.714666
0.714677
0.714687
0.714695
0.714701
0.714706
0.714709
0.714711
0.714713
0.714713
0.714713
0.714713
0.714714
0.714714
0.714716
0.714718
0.714721
0.714726
0.714732
0.714739
0.714747
0.714756
0.714766
0.714778
0.71479
0.714802
0.714815
0.714827
0.71484
0.714852
0.714864
0.714875
0.714885
0.714894
0.714902
0.714909
0.714914
0.714919
0.714923
0.714925
0.714927
0.714928
0.714927
0.714926
0.714924
0.714921
0.714918
0.714914
0.714909
0.714903
0.714897
0.714891
0.714884
0.714876
0.714869
0.71486
0.714852
0.714843
0.714835
0.714826
0.714817
0.714808
0.714799
0.714789
0.71478
0.714771
0.714762
0.714752
0.714743
0.714733
0.714724
0.714714
0.714705
0.714695
0.714686
0.714676
0.714666
0.714656
0.714646
0.714637
0.714627
0.714617
0.714607
0.714597
0.714587
0.714577
0.714567
0.714557
0.714547
0.714537
0.714528
0.714518
0.714508
0.714498
0.714488
0.714478
0.714468
0.714458
0.714449
0.714439
0.714429
0.714419
0.714409
0.714399
0.71439
0.71438
0.71437
0.71436
0.71435
0.71434
0.71433
0.714321
0.714311
0.714301
0.714291
0.712332
0.712471
0.712488
0.712509
0.712513
0.712516
0.712518
0.71252
0.712523
0.712527
0.712531
0.712537
0.712543
0.712549
0.712557
0.712565
0.712574
0.712584
0.712596
0.712608
0.712623
0.712639
0.712657
0.712678
0.712701
0.712728
0.712759
0.712793
0.712831
0.712874
0.712921
0.712973
0.713028
0.713088
0.713152
0.713218
0.713288
0.713359
0.713432
0.713506
0.713579
0.713651
0.713722
0.71379
0.713854
0.713914
0.713969
0.71402
0.714064
0.714104
0.714137
0.714166
0.714189
0.714208
0.714222
0.714233
0.714242
0.714248
0.714253
0.714257
0.714261
0.714264
0.714268
0.714273
0.714278
0.714285
0.714293
0.714303
0.714314
0.714327
0.714342
0.714358
0.714375
0.714394
0.714415
0.714437
0.71446
0.714483
0.714507
0.714531
0.714556
0.714579
0.714602
0.714624
0.714645
0.714664
0.714681
0.714697
0.71471
0.714722
0.714731
0.714738
0.714744
0.714748
0.714751
0.714753
0.714754
0.714755
0.714755
0.714756
0.714758
0.71476
0.714763
0.714766
0.714771
0.714777
0.714784
0.714791
0.7148
0.714808
0.714818
0.714827
0.714837
0.714846
0.714855
0.714864
0.714872
0.714879
0.714886
0.714892
0.714897
0.714901
0.714905
0.714907
0.71491
0.714911
0.714912
0.714912
0.714912
0.714911
0.714909
0.714907
0.714905
0.714901
0.714897
0.714893
0.714887
0.714882
0.714875
0.714868
0.714861
0.714853
0.714845
0.714837
0.714828
0.714819
0.71481
0.714801
0.714792
0.714782
0.714773
0.714763
0.714754
0.714744
0.714734
0.714724
0.714715
0.714705
0.714695
0.714685
0.714676
0.714666
0.714656
0.714646
0.714636
0.714626
0.714616
0.714607
0.714597
0.714587
0.714577
0.714567
0.714557
0.714547
0.714537
0.714528
0.714518
0.714508
0.714498
0.714488
0.714478
0.714468
0.714459
0.714449
0.714439
0.714429
0.714419
0.714409
0.714399
0.71439
0.71438
0.71437
0.71436
0.71435
0.71434
0.71433
0.714321
0.714311
0.714301
0.714291
0.713064
0.713007
0.712945
0.712877
0.712804
0.712727
0.712639
0.71252
0.71307
0.713024
0.712961
0.712891
0.712818
0.71274
0.712649
0.712552
0.713074
0.713035
0.712977
0.712912
0.712842
0.71277
0.712699
0.712629
0.713084
0.71305
0.712998
0.712937
0.712872
0.712808
0.712745
0.712686
0.713097
0.713065
0.713016
0.712959
0.712901
0.712843
0.71279
0.712742
0.713112
0.713079
0.713031
0.712977
0.712923
0.712871
0.712824
0.712782
0.713127
0.71309
0.71304
0.712988
0.712937
0.712889
0.712845
0.712806
0.713135
0.713088
0.713038
0.712988
0.71294
0.712895
0.712852
0.712814
0.712457
0.712477
0.712497
0.712509
0.712515
0.712518
0.712521
0.712524
0.712527
0.712532
0.712536
0.712542
0.712549
0.712556
0.712565
0.712574
0.712585
0.712597
0.71261
0.712624
0.712641
0.712659
0.71268
0.712704
0.71273
0.71276
0.712793
0.712831
0.712872
0.712917
0.712966
0.713019
0.713076
0.713136
0.7132
0.713265
0.713333
0.713402
0.713471
0.71354
0.713607
0.713672
0.713735
0.713794
0.713849
0.7139
0.713945
0.713985
0.71402
0.714049
0.714074
0.714094
0.71411
0.714123
0.714134
0.714142
0.714149
0.714155
0.71416
0.714166
0.714172
0.714178
0.714185
0.714193
0.714202
0.714213
0.714224
0.714237
0.714251
0.714267
0.714284
0.714303
0.714323
0.714345
0.714369
0.714394
0.71442
0.714447
0.714475
0.714503
0.714532
0.71456
0.714588
0.714615
0.714641
0.714665
0.714688
0.714708
0.714727
0.714744
0.714758
0.71477
0.71478
0.714787
0.714793
0.714798
0.714801
0.714803
0.714804
0.714805
0.714806
0.714807
0.714809
0.714811
0.714813
0.714816
0.71482
0.714824
0.714829
0.714834
0.714839
0.714845
0.71485
0.714856
0.714861
0.714866
0.71487
0.714874
0.714878
0.714881
0.714884
0.714887
0.714889
0.714891
0.714893
0.714894
0.714895
0.714896
0.714897
0.714897
0.714897
0.714896
0.714895
0.714893
0.714891
0.714888
0.714884
0.71488
0.714875
0.714869
0.714862
0.714855
0.714848
0.714839
0.714831
0.714822
0.714813
0.714804
0.714794
0.714785
0.714775
0.714765
0.714755
0.714745
0.714735
0.714725
0.714715
0.714705
0.714695
0.714685
0.714675
0.714665
0.714656
0.714646
0.714636
0.714626
0.714616
0.714606
0.714596
0.714587
0.714577
0.714567
0.714557
0.714547
0.714537
0.714528
0.714518
0.714508
0.714498
0.714488
0.714478
0.714468
0.714459
0.714449
0.714439
0.714429
0.714419
0.714409
0.714399
0.71439
0.71438
0.71437
0.71436
0.71435
0.71434
0.71433
0.714321
0.714311
0.714301
0.714291
0.712479
0.712489
0.712502
0.712514
0.712522
0.712528
0.712532
0.712535
0.712539
0.712544
0.71255
0.712556
0.712564
0.712572
0.712582
0.712594
0.712606
0.71262
0.712636
0.712654
0.712674
0.712696
0.712721
0.712748
0.712779
0.712813
0.71285
0.712891
0.712936
0.712985
0.713036
0.713091
0.713149
0.71321
0.713272
0.713336
0.7134
0.713465
0.713528
0.71359
0.71365
0.713706
0.713759
0.713808
0.713852
0.713891
0.713925
0.713955
0.71398
0.714
0.714017
0.714031
0.714043
0.714053
0.714062
0.71407
0.714079
0.714087
0.714095
0.714104
0.714113
0.714123
0.714133
0.714144
0.714155
0.714168
0.714182
0.714196
0.714213
0.71423
0.714249
0.714269
0.714291
0.714315
0.71434
0.714367
0.714395
0.714425
0.714455
0.714486
0.714518
0.714549
0.714581
0.714611
0.714641
0.71467
0.714697
0.714722
0.714746
0.714767
0.714785
0.714801
0.714815
0.714826
0.714836
0.714843
0.714848
0.714852
0.714854
0.714856
0.714857
0.714857
0.714857
0.714857
0.714857
0.714858
0.714858
0.714859
0.71486
0.714861
0.714862
0.714863
0.714864
0.714866
0.714867
0.714868
0.714868
0.714869
0.71487
0.714871
0.714872
0.714873
0.714874
0.714875
0.714876
0.714878
0.71488
0.714881
0.714883
0.714885
0.714886
0.714887
0.714887
0.714887
0.714886
0.714884
0.714882
0.714878
0.714874
0.714869
0.714864
0.714857
0.71485
0.714842
0.714834
0.714825
0.714816
0.714807
0.714797
0.714787
0.714777
0.714767
0.714756
0.714746
0.714736
0.714726
0.714715
0.714705
0.714695
0.714685
0.714675
0.714665
0.714655
0.714645
0.714635
0.714626
0.714616
0.714606
0.714596
0.714586
0.714577
0.714567
0.714557
0.714547
0.714537
0.714528
0.714518
0.714508
0.714498
0.714488
0.714478
0.714468
0.714459
0.714449
0.714439
0.714429
0.714419
0.714409
0.714399
0.71439
0.71438
0.71437
0.71436
0.71435
0.71434
0.71433
0.714321
0.714311
0.714301
0.714291
0.712576
0.712552
0.712546
0.712546
0.712548
0.71255
0.712552
0.712555
0.712559
0.712564
0.71257
0.712577
0.712586
0.712596
0.712609
0.712622
0.712638
0.712655
0.712675
0.712696
0.71272
0.712747
0.712777
0.712809
0.712845
0.712884
0.712926
0.712972
0.71302
0.713072
0.713126
0.713182
0.71324
0.7133
0.71336
0.71342
0.71348
0.713538
0.713595
0.713648
0.713698
0.713744
0.713785
0.713822
0.713855
0.713883
0.713907
0.713927
0.713945
0.71396
0.713974
0.713986
0.713998
0.714009
0.714019
0.71403
0.71404
0.714051
0.714062
0.714073
0.714085
0.714096
0.714108
0.714121
0.714134
0.714148
0.714162
0.714178
0.714195
0.714213
0.714232
0.714253
0.714276
0.7143
0.714327
0.714354
0.714384
0.714415
0.714446
0.714479
0.714513
0.714547
0.71458
0.714614
0.714647
0.714678
0.714709
0.714737
0.714764
0.714788
0.71481
0.714829
0.714846
0.714861
0.714873
0.714882
0.71489
0.714895
0.714898
0.714901
0.714901
0.714901
0.7149
0.714899
0.714897
0.714895
0.714892
0.71489
0.714887
0.714884
0.714882
0.714879
0.714876
0.714874
0.714871
0.714869
0.714866
0.714864
0.714863
0.714861
0.714861
0.71486
0.714861
0.714862
0.714863
0.714865
0.714867
0.71487
0.714872
0.714875
0.714877
0.714879
0.714881
0.714882
0.714882
0.714882
0.71488
0.714878
0.714875
0.71487
0.714865
0.714859
0.714852
0.714845
0.714837
0.714828
0.714819
0.714809
0.714799
0.714789
0.714779
0.714768
0.714758
0.714747
0.714737
0.714726
0.714716
0.714705
0.714695
0.714685
0.714675
0.714665
0.714655
0.714645
0.714635
0.714625
0.714615
0.714606
0.714596
0.714586
0.714576
0.714567
0.714557
0.714547
0.714537
0.714528
0.714518
0.714508
0.714498
0.714488
0.714478
0.714468
0.714459
0.714449
0.714439
0.714429
0.714419
0.714409
0.714399
0.71439
0.71438
0.71437
0.71436
0.71435
0.71434
0.71433
0.714321
0.714311
0.714301
0.714291
0.71264
0.712613
0.712598
0.712591
0.712587
0.712585
0.712585
0.712585
0.712588
0.712592
0.712598
0.712605
0.712615
0.712627
0.712641
0.712657
0.712675
0.712696
0.712719
0.712745
0.712773
0.712805
0.712839
0.712877
0.712917
0.712961
0.713007
0.713057
0.713108
0.713162
0.713218
0.713275
0.713332
0.713389
0.713445
0.7135
0.713553
0.713603
0.71365
0.713693
0.713732
0.713767
0.713798
0.713826
0.71385
0.713872
0.713891
0.713908
0.713923
0.713937
0.713949
0.713962
0.713975
0.713987
0.714
0.714013
0.714026
0.714039
0.714051
0.714064
0.714076
0.714088
0.714101
0.714114
0.714127
0.714141
0.714156
0.714172
0.714189
0.714207
0.714227
0.714248
0.714271
0.714296
0.714323
0.714351
0.714381
0.714413
0.714446
0.71448
0.714514
0.71455
0.714585
0.71462
0.714655
0.714688
0.714721
0.714751
0.71478
0.714807
0.714831
0.714853
0.714872
0.714888
0.714902
0.714913
0.714922
0.714928
0.714932
0.714935
0.714935
0.714935
0.714933
0.71493
0.714926
0.714922
0.714917
0.714912
0.714907
0.714901
0.714895
0.71489
0.714884
0.714878
0.714873
0.714868
0.714864
0.71486
0.714857
0.714854
0.714853
0.714852
0.714852
0.714852
0.714854
0.714856
0.714859
0.714862
0.714865
0.714869
0.714872
0.714875
0.714877
0.714879
0.71488
0.714881
0.71488
0.714878
0.714875
0.714871
0.714867
0.714861
0.714854
0.714847
0.714839
0.71483
0.714821
0.714811
0.714801
0.71479
0.71478
0.714769
0.714758
0.714748
0.714737
0.714726
0.714716
0.714705
0.714695
0.714685
0.714675
0.714665
0.714655
0.714645
0.714635
0.714625
0.714615
0.714606
0.714596
0.714586
0.714576
0.714567
0.714557
0.714547
0.714537
0.714528
0.714518
0.714508
0.714498
0.714488
0.714478
0.714468
0.714459
0.714449
0.714439
0.714429
0.714419
0.714409
0.714399
0.71439
0.71438
0.71437
0.71436
0.71435
0.71434
0.71433
0.714321
0.714311
0.714301
0.714291
0.712703
0.712674
0.712655
0.712641
0.712632
0.712625
0.712621
0.712619
0.712619
0.712621
0.712626
0.712634
0.712644
0.712657
0.712672
0.71269
0.712711
0.712734
0.712761
0.71279
0.712823
0.712858
0.712896
0.712938
0.712982
0.713029
0.713079
0.713131
0.713184
0.713238
0.713293
0.713348
0.713402
0.713454
0.713504
0.713552
0.713598
0.713641
0.71368
0.713716
0.713748
0.713776
0.7138
0.713822
0.713841
0.713858
0.713875
0.713891
0.713907
0.713923
0.713939
0.713955
0.71397
0.713984
0.713997
0.714011
0.714023
0.714036
0.714049
0.714061
0.714074
0.714086
0.714099
0.714112
0.714126
0.71414
0.714155
0.714171
0.714188
0.714207
0.714227
0.714248
0.714272
0.714297
0.714324
0.714353
0.714383
0.714415
0.714449
0.714483
0.714519
0.714555
0.714591
0.714627
0.714662
0.714697
0.714731
0.714762
0.714792
0.71482
0.714846
0.714869
0.714889
0.714906
0.714921
0.714933
0.714942
0.714949
0.714954
0.714956
0.714957
0.714956
0.714953
0.714949
0.714944
0.714938
0.714932
0.714925
0.714918
0.71491
0.714902
0.714895
0.714887
0.71488
0.714873
0.714867
0.714862
0.714857
0.714853
0.71485
0.714848
0.714847
0.714847
0.714848
0.714849
0.714852
0.714855
0.714858
0.714862
0.714866
0.714869
0.714873
0.714876
0.714878
0.714879
0.71488
0.71488
0.714878
0.714876
0.714872
0.714868
0.714862
0.714855
0.714848
0.71484
0.714831
0.714822
0.714812
0.714802
0.714791
0.714781
0.71477
0.714759
0.714748
0.714737
0.714727
0.714716
0.714705
0.714695
0.714685
0.714675
0.714664
0.714654
0.714645
0.714635
0.714625
0.714615
0.714605
0.714596
0.714586
0.714576
0.714567
0.714557
0.714547
0.714537
0.714527
0.714518
0.714508
0.714498
0.714488
0.714478
0.714468
0.714459
0.714449
0.714439
0.714429
0.714419
0.714409
0.714399
0.71439
0.71438
0.71437
0.71436
0.71435
0.71434
0.71433
0.714321
0.714311
0.714301
0.714291
0.712746
0.712718
0.712695
0.712678
0.712664
0.712654
0.712646
0.712641
0.71264
0.712641
0.712645
0.712653
0.712663
0.712677
0.712693
0.712713
0.712736
0.712761
0.71279
0.712822
0.712856
0.712894
0.712935
0.712978
0.713024
0.713073
0.713123
0.713175
0.713228
0.713281
0.713334
0.713386
0.713437
0.713485
0.71353
0.713573
0.713612
0.713648
0.713681
0.71371
0.713736
0.71376
0.713784
0.713807
0.71383
0.713852
0.713872
0.713891
0.713908
0.713924
0.713939
0.713953
0.713968
0.713981
0.713995
0.714008
0.714022
0.714035
0.714048
0.71406
0.714073
0.714086
0.714099
0.714112
0.714126
0.714141
0.714156
0.714172
0.71419
0.714209
0.714229
0.714251
0.714275
0.714301
0.714328
0.714357
0.714388
0.714421
0.714454
0.714489
0.714525
0.714561
0.714598
0.714634
0.71467
0.714705
0.714739
0.714771
0.714802
0.71483
0.714856
0.714879
0.714899
0.714917
0.714932
0.714944
0.714954
0.71496
0.714965
0.714967
0.714967
0.714965
0.714962
0.714958
0.714952
0.714945
0.714938
0.71493
0.714922
0.714913
0.714905
0.714896
0.714888
0.71488
0.714873
0.714866
0.71486
0.714856
0.714851
0.714848
0.714846
0.714845
0.714845
0.714846
0.714848
0.71485
0.714854
0.714857
0.714861
0.714865
0.714869
0.714872
0.714875
0.714878
0.714879
0.71488
0.71488
0.714878
0.714876
0.714872
0.714868
0.714862
0.714856
0.714848
0.71484
0.714831
0.714822
0.714812
0.714802
0.714791
0.714781
0.71477
0.714759
0.714748
0.714737
0.714727
0.714716
0.714705
0.714695
0.714685
0.714675
0.714664
0.714654
0.714645
0.714635
0.714625
0.714615
0.714605
0.714596
0.714586
0.714576
0.714567
0.714557
0.714547
0.714537
0.714527
0.714518
0.714508
0.714498
0.714488
0.714478
0.714468
0.714459
0.714449
0.714439
0.714429
0.714419
0.714409
0.714399
0.71439
0.71438
0.71437
0.71436
0.71435
0.71434
0.71433
0.714321
0.714311
0.714301
0.714291
0.712772
0.712743
0.712719
0.712698
0.712681
0.712668
0.712659
0.712652
0.71265
0.712651
0.712655
0.712663
0.712674
0.712688
0.712705
0.712725
0.712749
0.712776
0.712805
0.712838
0.712874
0.712912
0.712954
0.712997
0.713044
0.713092
0.713141
0.713192
0.713243
0.713294
0.713343
0.71339
0.713436
0.713479
0.71352
0.71356
0.713599
0.713636
0.713671
0.713704
0.713734
0.713762
0.713786
0.713809
0.713831
0.71385
0.713869
0.713887
0.713904
0.71392
0.713936
0.713952
0.713966
0.713981
0.713995
0.714008
0.714021
0.714034
0.714047
0.71406
0.714073
0.714086
0.714099
0.714113
0.714127
0.714141
0.714157
0.714174
0.714192
0.714211
0.714232
0.714254
0.714278
0.714304
0.714332
0.714361
0.714392
0.714425
0.714458
0.714493
0.714529
0.714566
0.714602
0.714639
0.714675
0.71471
0.714744
0.714776
0.714806
0.714834
0.71486
0.714883
0.714904
0.714921
0.714936
0.714948
0.714957
0.714964
0.714968
0.71497
0.71497
0.714968
0.714965
0.71496
0.714954
0.714947
0.714939
0.714931
0.714922
0.714913
0.714905
0.714896
0.714888
0.71488
0.714873
0.714866
0.71486
0.714855
0.714851
0.714848
0.714846
0.714845
0.714845
0.714846
0.714848
0.714851
0.714854
0.714857
0.714861
0.714865
0.714869
0.714872
0.714875
0.714877
0.714879
0.71488
0.714879
0.714878
0.714876
0.714872
0.714868
0.714862
0.714855
0.714848
0.71484
0.714831
0.714822
0.714812
0.714802
0.714791
0.714781
0.71477
0.714759
0.714748
0.714737
0.714727
0.714716
0.714705
0.714695
0.714685
0.714675
0.714664
0.714654
0.714645
0.714635
0.714625
0.714615
0.714605
0.714596
0.714586
0.714576
0.714567
0.714557
0.714547
0.714537
0.714527
0.714518
0.714508
0.714498
0.714488
0.714478
0.714468
0.714459
0.714449
0.714439
0.714429
0.714419
0.714409
0.714399
0.71439
0.71438
0.71437
0.71436
0.71435
0.71434
0.71433
0.714321
0.714311
0.714301
0.714291
0.712779
0.712748
0.712721
0.712699
0.71268
0.712666
0.712655
0.712648
0.712646
0.712646
0.712651
0.712659
0.71267
0.712684
0.712701
0.712721
0.712745
0.712771
0.7128
0.712833
0.712868
0.712905
0.712946
0.712989
0.713034
0.71308
0.713129
0.713179
0.713229
0.713279
0.713329
0.713378
0.713425
0.713471
0.713515
0.713557
0.713596
0.713633
0.713668
0.713699
0.713728
0.713755
0.71378
0.713804
0.713826
0.713847
0.713867
0.713886
0.713903
0.71392
0.713936
0.713951
0.713966
0.71398
0.713994
0.714007
0.714021
0.714034
0.714047
0.714059
0.714072
0.714085
0.714099
0.714112
0.714127
0.714142
0.714158
0.714175
0.714193
0.714212
0.714234
0.714256
0.714281
0.714307
0.714335
0.714365
0.714396
0.714429
0.714463
0.714499
0.714535
0.714571
0.714608
0.714644
0.71468
0.714715
0.714749
0.714781
0.714811
0.714839
0.714865
0.714888
0.714908
0.714925
0.71494
0.714951
0.71496
0.714966
0.71497
0.714971
0.714971
0.714968
0.714964
0.714959
0.714953
0.714946
0.714938
0.714929
0.714921
0.714912
0.714903
0.714895
0.714887
0.714879
0.714872
0.714866
0.71486
0.714855
0.714852
0.714849
0.714847
0.714846
0.714846
0.714847
0.714849
0.714852
0.714855
0.714859
0.714862
0.714866
0.71487
0.714873
0.714876
0.714878
0.71488
0.71488
0.71488
0.714878
0.714876
0.714872
0.714867
0.714862
0.714855
0.714848
0.71484
0.714831
0.714822
0.714812
0.714802
0.714791
0.714781
0.71477
0.714759
0.714748
0.714737
0.714727
0.714716
0.714705
0.714695
0.714685
0.714675
0.714664
0.714654
0.714645
0.714635
0.714625
0.714615
0.714605
0.714596
0.714586
0.714576
0.714567
0.714557
0.714547
0.714537
0.714527
0.714518
0.714508
0.714498
0.714488
0.714478
0.714468
0.714459
0.714449
0.714439
0.714429
0.714419
0.714409
0.714399
0.71439
0.71438
0.71437
0.71436
0.71435
0.71434
0.71433
0.714321
0.714311
0.714301
0.714291
)
;

boundaryField
{
    inlet
    {
        type            zeroGradient;
    }
    outlet
    {
        type            fixedValue;