/*--------------------------------*- C++ -*----------------------------------*\
| =========                 |                                                 |
| \\      /  F ield         | OpenFOAM: The Open Source CFD Toolbox           |
|  \\    /   O peration     | Version:  4.1                                   |
|   \\  /    A nd           | Web:      www.OpenFOAM.org                      |
|    \\/     M anipulation  |                                                 |
\*---------------------------------------------------------------------------*/
FoamFile
{
    version     2.0;
    format      ascii;
    class       volVectorField;
    location    "476";
    object      U;
}
// * * * * * * * * * * * * * * * * * * * * * * * * * * * * * * * * * * * * * //

dimensions      [0 1 -1 0 0 0 0];

internalField   nonuniform List<vector> 
3264
(
(-2.61913e-06 -5.12395e-07 0)
(-0.000133066 3.05325e-05 0)
(-0.000389692 4.86378e-05 0)
(-0.000677062 5.09729e-05 0)
(-0.000979235 5.2699e-05 0)
(-0.00128563 5.21059e-05 0)
(-0.00159093 5.3412e-05 0)
(-0.00189655 5.40653e-05 0)
(-0.00219793 5.51852e-05 0)
(-0.00249585 5.58347e-05 0)
(-0.0027878 5.64264e-05 0)
(-0.00307407 5.67196e-05 0)
(-0.0033537 5.68816e-05 0)
(-0.0036269 5.68811e-05 0)
(-0.0038935 5.67999e-05 0)
(-0.00415379 5.66613e-05 0)
(-0.004408 5.65169e-05 0)
(-0.00465651 5.64007e-05 0)
(-0.00489973 5.63525e-05 0)
(-0.00513813 5.64061e-05 0)
(-0.00537218 5.65948e-05 0)
(-0.00560238 5.69484e-05 0)
(-0.00582918 5.74927e-05 0)
(-0.00605299 5.82483e-05 0)
(-0.00627415 5.92284e-05 0)
(-0.00649287 6.04366e-05 0)
(-0.00670921 6.18646e-05 0)
(-0.00692305 6.34897e-05 0)
(-0.00713401 6.52722e-05 0)
(-0.00734148 6.71532e-05 0)
(-0.00754451 6.90541e-05 0)
(-0.00774183 7.08752e-05 0)
(-0.00793184 7.24975e-05 0)
(-0.00811256 7.37842e-05 0)
(-0.00828166 7.45853e-05 0)
(-0.00843646 7.47419e-05 0)
(-0.00857402 7.40935e-05 0)
(-0.00869111 7.24847e-05 0)
(-0.00878432 6.97729e-05 0)
(-0.00885015 6.58362e-05 0)
(-0.00888504 6.05798e-05 0)
(-0.00888549 5.39421e-05 0)
(-0.00884817 4.58988e-05 0)
(-0.00876998 3.64658e-05 0)
(-0.00864813 2.56997e-05 0)
(-0.00848025 1.36979e-05 0)
(-0.00826446 5.95499e-07 0)
(-0.00799938 -1.34375e-05 0)
(-0.00768426 -2.82011e-05 0)
(-0.00731894 -4.34705e-05 0)
(-0.0069039 -5.90017e-05 0)
(-0.00644027 -7.45381e-05 0)
(-0.00592986 -8.98167e-05 0)
(-0.00537507 -0.000104574 0)
(-0.00477893 -0.000118553 0)
(-0.00414504 -0.000131508 0)
(-0.00347752 -0.000143213 0)
(-0.00278097 -0.000153462 0)
(-0.00206037 -0.000162079 0)
(-0.00132107 -0.000168921 0)
(-0.000568647 -0.000173879 0)
(0.00019113 -0.000176883 0)
(0.000952412 -0.000177905 0)
(0.00170936 -0.000176958 0)
(0.00245621 -0.000174097 0)
(0.00318741 -0.000169416 0)
(0.00389766 -0.000163049 0)
(0.00458203 -0.000155161 0)
(0.00523602 -0.000145947 0)
(0.00585562 -0.000135627 0)
(0.00643737 -0.000124434 0)
(0.00697842 -0.000112611 0)
(0.00747653 -0.000100403 0)
(0.00793008 -8.80486e-05 0)
(0.00833812 -7.57744e-05 0)
(0.00870026 -6.37872e-05 0)
(0.00901675 -5.22705e-05 0)
(0.00928835 -4.13798e-05 0)
(0.00951632 -3.12405e-05 0)
(0.00970233 -2.19465e-05 0)
(0.00984845 -1.35609e-05 0)
(0.00995701 -6.11714e-06 0)
(0.0100306 3.7835e-07 0)
(0.0100719 5.94283e-06 0)
(0.0100838 1.06133e-05 0)
(0.0100692 1.44426e-05 0)
(0.0100308 1.74948e-05 0)
(0.00997158 1.98416e-05 0)
(0.00989411 2.15585e-05 0)
(0.00980101 2.27219e-05 0)
(0.0096947 2.34061e-05 0)
(0.00957745 2.3682e-05 0)
(0.00945137 2.36151e-05 0)
(0.00931836 2.32648e-05 0)
(0.00918018 2.26841e-05 0)
(0.00903841 2.19194e-05 0)
(0.00889444 2.10109e-05 0)
(0.00874955 1.99929e-05 0)
(0.00860483 1.88942e-05 0)
(0.00846126 1.7739e-05 0)
(0.00831968 1.65474e-05 0)
(0.00818082 1.5336e-05 0)
(0.0080453 1.41185e-05 0)
(0.00791365 1.29061e-05 0)
(0.00778631 1.17082e-05 0)
(0.00766366 1.05324e-05 0)
(0.00754598 9.38495e-06 0)
(0.0074335 8.27123e-06 0)
(0.00732642 7.19556e-06 0)
(0.00722484 6.16151e-06 0)
(0.00712887 5.172e-06 0)
(0.00703855 4.22937e-06 0)
(0.00695388 3.33536e-06 0)
(0.00687486 2.49123e-06 0)
(0.00680144 1.69771e-06 0)
(0.00673356 9.55031e-07 0)
(0.00667114 2.62949e-07 0)
(0.00661408 -3.79252e-07 0)
(0.00656227 -9.72737e-07 0)
(0.00651558 -1.51909e-06 0)
(0.0064739 -2.02027e-06 0)
(0.00643708 -2.47858e-06 0)
(0.00640499 -2.89661e-06 0)
(0.00637749 -3.27717e-06 0)
(0.00635444 -3.62325e-06 0)
(0.00633569 -3.93793e-06 0)
(0.00632112 -4.22436e-06 0)
(0.00631059 -4.48571e-06 0)
(0.00630396 -4.7251e-06 0)
(0.00630112 -4.94556e-06 0)
(0.00630194 -5.15003e-06 0)
(0.00630632 -5.34134e-06 0)
(0.00631415 -5.52214e-06 0)
(0.00632534 -5.69496e-06 0)
(0.00633979 -5.86216e-06 0)
(0.00635742 -6.02598e-06 0)
(0.00637817 -6.18846e-06 0)
(0.00640196 -6.35152e-06 0)
(0.00642873 -6.51694e-06 0)
(0.00645844 -6.68635e-06 0)
(0.00649102 -6.86122e-06 0)
(0.00652645 -7.04287e-06 0)
(0.00656469 -7.23248e-06 0)
(0.00660569 -7.43104e-06 0)
(0.00664944 -7.63934e-06 0)
(0.00669589 -7.85795e-06 0)
(0.00674501 -8.08723e-06 0)
(0.00679678 -8.32725e-06 0)
(0.00685115 -8.57776e-06 0)
(0.00690808 -8.83822e-06 0)
(0.00696753 -9.10769e-06 0)
(0.00702943 -9.38486e-06 0)
(0.00709372 -9.66802e-06 0)
(0.00716031 -9.955e-06 0)
(0.0072291 -1.02432e-05 0)
(0.00729998 -1.05296e-05 0)
(0.00737282 -1.08108e-05 0)
(0.00744746 -1.1083e-05 0)
(0.00752373 -1.13419e-05 0)
(0.00760142 -1.15831e-05 0)
(0.00768033 -1.1802e-05 0)
(0.0077602 -1.19938e-05 0)
(0.00784077 -1.21537e-05 0)
(0.00792175 -1.2277e-05 0)
(0.00800281 -1.23592e-05 0)
(0.00808364 -1.23964e-05 0)
(0.00816388 -1.23847e-05 0)
(0.00824317 -1.23211e-05 0)
(0.00832114 -1.22031e-05 0)
(0.0083974 -1.20293e-05 0)
(0.00847158 -1.17986e-05 0)
(0.00854329 -1.15112e-05 0)
(0.00861217 -1.1168e-05 0)
(0.00867786 -1.07706e-05 0)
(0.00874002 -1.03219e-05 0)
(0.00879833 -9.82494e-06 0)
(0.00885253 -9.28386e-06 0)
(0.00890235 -8.70318e-06 0)
(0.0089476 -8.08785e-06 0)
(0.0089881 -7.44316e-06 0)
(0.00902375 -6.77457e-06 0)
(0.00905446 -6.0876e-06 0)
(0.00908023 -5.38771e-06 0)
(0.00910107 -4.6802e-06 0)
(0.00911706 -3.97011e-06 0)
(0.00912834 -3.26206e-06 0)
(0.00913507 -2.56003e-06 0)
(0.00913744 -1.86752e-06 0)
(0.0091357 -1.18567e-06 0)
(0.00913011 -5.17799e-07 0)
(0.00912095 1.48424e-07 0)
(0.00910847 7.90277e-07 0)
(0.00909302 1.50657e-06 0)
(0.00907448 2.10352e-06 0)
(0.00905413 3.1596e-06 0)
(0.00902848 3.65423e-06 0)
(0.00900681 5.71084e-06 0)
(0.00896468 7.3777e-06 0)
(0.00895314 8.48637e-06 0)
(0.00886796 2.7097e-05 0)
(-8.34103e-05 0.000136268 0)
(-0.00058333 0.000379195 0)
(-0.00131243 0.000518476 0)
(-0.00208805 0.000562838 0)
(-0.00286919 0.000584165 0)
(-0.00363911 0.000586315 0)
(-0.00438458 0.000586786 0)
(-0.00510859 0.000580727 0)
(-0.00580408 0.000572562 0)
(-0.00647339 0.000561309 0)
(-0.007114 0.000548792 0)
(-0.00772754 0.000535237 0)
(-0.00831388 0.000521414 0)
(-0.00887441 0.000507607 0)
(-0.00940992 0.000494154 0)
(-0.00992167 0.000481242 0)
(-0.0104107 0.00046903 0)
(-0.0108781 0.00045762 0)
(-0.0113248 0.000447076 0)
(-0.0117516 0.000437424 0)
(-0.0121594 0.00042865 0)
(-0.0125485 0.000420694 0)
(-0.0129192 0.000413447 0)
(-0.0132715 0.000406742 0)
(-0.013605 0.000400351 0)
(-0.0139191 0.000393979 0)
(-0.0142126 0.000387263 0)
(-0.0144839 0.000379771 0)
(-0.014731 0.000371009 0)
(-0.0149515 0.000360428 0)
(-0.0151424 0.000347437 0)
(-0.0153004 0.000331421 0)
(-0.0154216 0.000311758 0)
(-0.015502 0.000287845 0)
(-0.0155372 0.000259124 0)
(-0.0155226 0.0002251 0)
(-0.0154538 0.000185372 0)
(-0.015326 0.00013965 0)
(-0.015135 8.77736e-05 0)
(-0.0148764 2.97232e-05 0)
(-0.0145465 -3.43714e-05 0)
(-0.014142 -0.000104229 0)
(-0.0136599 -0.000179421 0)
(-0.0130982 -0.000259378 0)
(-0.0124552 -0.000343402 0)
(-0.0117301 -0.000430681 0)
(-0.010923 -0.000520304 0)
(-0.0100345 -0.000611285 0)
(-0.00906624 -0.000702575 0)
(-0.00802043 -0.000793089 0)
(-0.00690023 -0.000881719 0)
(-0.00570949 -0.000967359 0)
(-0.00445281 -0.00104892 0)
(-0.00313549 -0.00112535 0)
(-0.00176344 -0.00119564 0)
(-0.000343211 -0.00125888 0)
(0.00111816 -0.0013142 0)
(0.00261316 -0.00136088 0)
(0.00413387 -0.00139826 0)
(0.00567209 -0.00142585 0)
(0.00721939 -0.00144328 0)
(0.0087672 -0.00145031 0)
(0.0103069 -0.00144686 0)
(0.01183 -0.00143302 0)
(0.0133281 -0.00140901 0)
(0.0147931 -0.00137522 0)
(0.0162173 -0.00133218 0)
(0.0175932 -0.00128056 0)
(0.0189142 -0.00122115 0)
(0.020174 -0.00115484 0)
(0.0213673 -0.00108263 0)
(0.0224891 -0.00100556 0)
(0.0235357 -0.000924729 0)
(0.0245037 -0.000841239 0)
(0.0253908 -0.000756191 0)
(0.0261954 -0.000670655 0)
(0.0269169 -0.000585645 0)
(0.0275551 -0.000502102 0)
(0.0281109 -0.000420881 0)
(0.0285857 -0.000342734 0)
(0.0289814 -0.000268302 0)
(0.0293007 -0.000198114 0)
(0.0295466 -0.000132579 0)
(0.0297226 -7.19951e-05 0)
(0.0298325 -1.65504e-05 0)
(0.0298804 3.36673e-05 0)
(0.0298706 7.86609e-05 0)
(0.0298074 0.000118513 0)
(0.0296954 0.000153372 0)
(0.0295389 0.000183445 0)
(0.0293425 0.000208977 0)
(0.0291105 0.000230247 0)
(0.0288471 0.000247556 0)
(0.0285565 0.000261215 0)
(0.0282424 0.000271537 0)
(0.0279087 0.000278835 0)
(0.0275589 0.000283412 0)
(0.0271961 0.000285557 0)
(0.0268235 0.000285546 0)
(0.0264439 0.000283637 0)
(0.02606 0.000280068 0)
(0.025674 0.000275061 0)
(0.0252882 0.000268816 0)
(0.0249046 0.000261518 0)
(0.024525 0.000253332 0)
(0.0241509 0.000244409 0)
(0.0237839 0.000234883 0)
(0.0234251 0.000224875 0)
(0.0230757 0.000214492 0)
(0.0227367 0.000203831 0)
(0.0224089 0.000192975 0)
(0.0220932 0.000181999 0)
(0.02179 0.00017097 0)
(0.0214999 0.000159945 0)
(0.0212234 0.000148972 0)
(0.0209607 0.000138097 0)
(0.0207121 0.000127354 0)
(0.0204779 0.000116775 0)
(0.020258 0.000106386 0)
(0.0200526 9.62078e-05 0)
(0.0198617 8.62572e-05 0)
(0.0196851 7.65471e-05 0)
(0.0195228 6.70869e-05 0)
(0.0193747 5.78825e-05 0)
(0.0192406 4.8937e-05 0)
(0.0191203 4.02507e-05 0)
(0.0190135 3.18211e-05 0)
(0.0189201 2.36436e-05 0)
(0.0188398 1.57115e-05 0)
(0.0187722 8.01614e-06 0)
(0.0187172 5.47359e-07 0)
(0.0186745 -6.70629e-06 0)
(0.0186437 -1.37573e-05 0)
(0.0186247 -2.06188e-05 0)
(0.0186171 -2.73045e-05 0)
(0.0186207 -3.38281e-05 0)
(0.0186352 -4.02033e-05 0)
(0.0186604 -4.64431e-05 0)
(0.018696 -5.256e-05 0)
(0.0187418 -5.85655e-05 0)
(0.0187976 -6.44699e-05 0)
(0.0188631 -7.0282e-05 0)
(0.0189381 -7.60086e-05 0)
(0.0190225 -8.16548e-05 0)
(0.0191159 -8.72232e-05 0)
(0.0192183 -9.27141e-05 0)
(0.0193293 -9.81248e-05 0)
(0.0194487 -0.00010345 0)
(0.0195764 -0.00010868 0)
(0.0197121 -0.000113803 0)
(0.0198555 -0.000118803 0)
(0.0200064 -0.00012366 0)
(0.0201643 -0.000128351 0)
(0.0203291 -0.000132849 0)
(0.0205004 -0.000137123 0)
(0.0206776 -0.000141138 0)
(0.0208605 -0.000144859 0)
(0.0210485 -0.000148243 0)
(0.0212411 -0.00015125 0)
(0.0214377 -0.000153834 0)
(0.0216377 -0.000155952 0)
(0.0218404 -0.000157559 0)
(0.0220451 -0.000158609 0)
(0.0222511 -0.000159062 0)
(0.0224575 -0.000158879 0)
(0.0226635 -0.000158023 0)
(0.0228682 -0.000156465 0)
(0.0230707 -0.000154183 0)
(0.0232701 -0.000151158 0)
(0.0234653 -0.000147384 0)
(0.0236555 -0.000142861 0)
(0.0238396 -0.000137602 0)
(0.0240168 -0.000131626 0)
(0.0241861 -0.000124968 0)
(0.0243466 -0.000117671 0)
(0.0244975 -0.000109787 0)
(0.024638 -0.000101383 0)
(0.0247675 -9.2531e-05 0)
(0.0248853 -8.33136e-05 0)
(0.024991 -7.382e-05 0)
(0.0250841 -6.41446e-05 0)
(0.0251644 -5.43857e-05 0)
(0.0252317 -4.46427e-05 0)
(0.025286 -3.50146e-05 0)
(0.0253275 -2.55973e-05 0)
(0.0253564 -1.64813e-05 0)
(0.025373 -7.74943e-06 0)
(0.0253779 5.26145e-07 0)
(0.0253718 8.2859e-06 0)
(0.0253553 1.5486e-05 0)
(0.0253292 2.2112e-05 0)
(0.0252944 2.81292e-05 0)
(0.0252517 3.37236e-05 0)
(0.0252023 3.85039e-05 0)
(0.0251466 4.4e-05 0)
(0.0250857 4.70834e-05 0)
(0.0250213 5.53358e-05 0)
(0.024946 5.82495e-05 0)
(0.0248874 6.51442e-05 0)
(0.0247702 0.00010139 0)
(-0.000179055 0.000645463 0)
(-0.00104415 0.00125503 0)
(-0.00217023 0.00153453 0)
(-0.00330918 0.00157668 0)
(-0.00439967 0.0015728 0)
(-0.00543115 0.0015307 0)
(-0.006388 0.00148851 0)
(-0.00728137 0.00143784 0)
(-0.00810792 0.00138657 0)
(-0.00887587 0.0013331 0)
(-0.00958665 0.00128 0)
(-0.0102454 0.00122752 0)
(-0.0108548 0.00117653 0)
(-0.011418 0.00112729 0)
(-0.0119375 0.00108006 0)
(-0.0124156 0.0010349 0)
(-0.0128539 0.000991805 0)
(-0.013254 0.000950681 0)
(-0.013617 0.000911358 0)
(-0.0139435 0.000873598 0)
(-0.014234 0.000837085 0)
(-0.0144885 0.000801422 0)
(-0.0147067 0.000766124 0)
(-0.0148877 0.000730616 0)
(-0.0150307 0.000694233 0)
(-0.0151339 0.00065622 0)
(-0.0151955 0.000615743 0)
(-0.0152132 0.000571903 0)
(-0.0151845 0.000523755 0)
(-0.0151064 0.000470334 0)
(-0.0149758 0.000410683 0)
(-0.0147891 0.000343885 0)
(-0.014543 0.000269099 0)
(-0.0142339 0.000185592 0)
(-0.0138581 9.27725e-05 0)
(-0.0134124 -9.78351e-06 0)
(-0.0128934 -0.000122307 0)
(-0.0122982 -0.00024482 0)
(-0.0116243 -0.000377123 0)
(-0.0108693 -0.000518793 0)
(-0.0100318 -0.000669185 0)
(-0.00911047 -0.000827442 0)
(-0.0081048 -0.000992507 0)
(-0.00701484 -0.00116314 0)
(-0.00584128 -0.00133795 0)
(-0.00458545 -0.0015154 0)
(-0.00324937 -0.00169385 0)
(-0.00183571 -0.00187158 0)
(-0.000347778 -0.0020468 0)
(0.00121044 -0.00221769 0)
(0.00283435 -0.00238243 0)
(0.00451874 -0.00253923 0)
(0.00625784 -0.00268634 0)
(0.00804533 -0.00282206 0)
(0.00987439 -0.00294482 0)
(0.0117378 -0.00305314 0)
(0.0136278 -0.00314569 0)
(0.0155364 -0.0032213 0)
(0.0174555 -0.003279 0)
(0.0193765 -0.00331801 0)
(0.0212908 -0.00333776 0)
(0.02319 -0.00333792 0)
(0.0250653 -0.00331843 0)
(0.0269086 -0.00327945 0)
(0.0287115 -0.00322142 0)
(0.0304664 -0.00314501 0)
(0.0321658 -0.00305116 0)
(0.0338029 -0.00294101 0)
(0.0353713 -0.00281592 0)
(0.0368654 -0.00267744 0)
(0.0382802 -0.00252726 0)
(0.0396115 -0.00236719 0)
(0.0408557 -0.0021991 0)
(0.0420103 -0.00202491 0)
(0.0430731 -0.00184655 0)
(0.044043 -0.0016659 0)
(0.0449194 -0.00148476 0)
(0.0457025 -0.00130486 0)
(0.0463932 -0.00112776 0)
(0.0469927 -0.000954917 0)
(0.047503 -0.000787597 0)
(0.0479264 -0.000626906 0)
(0.0482657 -0.000473773 0)
(0.048524 -0.00032895 0)
(0.0487047 -0.000193022 0)
(0.0488115 -6.64071e-05 0)
(0.0488481 5.06259e-05 0)
(0.0488187 0.000157949 0)
(0.0487272 0.000255558 0)
(0.0485778 0.00034356 0)
(0.0483747 0.000422156 0)
(0.0481221 0.000491626 0)
(0.047824 0.000552313 0)
(0.0474847 0.000604614 0)
(0.0471081 0.000648961 0)
(0.0466981 0.000685811 0)
(0.0462584 0.000715642 0)
(0.0457929 0.000738933 0)
(0.0453049 0.000756166 0)
(0.0447979 0.000767816 0)
(0.0442752 0.000774345 0)
(0.0437398 0.0007762 0)
(0.0431947 0.000773811 0)
(0.0426427 0.000767584 0)
(0.0420865 0.000757905 0)
(0.0415284 0.000745139 0)
(0.0409708 0.000729627 0)
(0.040416 0.000711688 0)
(0.0398661 0.000691619 0)
(0.0393228 0.000669698 0)
(0.038788 0.000646181 0)
(0.0382633 0.000621307 0)
(0.0377503 0.000595295 0)
(0.0372504 0.00056835 0)
(0.0367647 0.000540659 0)
(0.0362945 0.000512394 0)
(0.0358408 0.000483712 0)
(0.0354045 0.000454757 0)
(0.0349864 0.000425659 0)
(0.0345871 0.000396535 0)
(0.0342074 0.000367491 0)
(0.0338476 0.000338618 0)
(0.0335081 0.000309998 0)
(0.0331893 0.000281702 0)
(0.0328914 0.000253789 0)
(0.0326145 0.000226309 0)
(0.0323587 0.000199302 0)
(0.0321239 0.000172799 0)
(0.0319101 0.000146823 0)
(0.0317172 0.000121391 0)
(0.031545 9.65106e-05 0)
(0.0313933 7.21845e-05 0)
(0.0312618 4.84105e-05 0)
(0.0311502 2.51815e-05 0)
(0.0310583 2.48694e-06 0)
(0.0309856 -1.96867e-05 0)
(0.0309318 -4.1355e-05 0)
(0.0308966 -6.25345e-05 0)
(0.0308795 -8.32422e-05 0)
(0.0308802 -0.000103495 0)
(0.0308983 -0.000123308 0)
(0.0309333 -0.000142695 0)
(0.0309848 -0.000161667 0)
(0.0310524 -0.00018023 0)
(0.0311357 -0.000198388 0)
(0.0312343 -0.000216139 0)
(0.0313477 -0.000233474 0)
(0.0314754 -0.000250379 0)
(0.0316169 -0.000266834 0)
(0.0317719 -0.000282811 0)
(0.0319398 -0.000298272 0)
(0.03212 -0.000313175 0)
(0.032312 -0.000327466 0)
(0.0325152 -0.000341085 0)
(0.032729 -0.000353964 0)
(0.0329528 -0.000366028 0)
(0.0331858 -0.000377193 0)
(0.0334273 -0.000387371 0)
(0.0336766 -0.000396467 0)
(0.0339328 -0.000404384 0)
(0.034195 -0.000411022 0)
(0.0344623 -0.000416281 0)
(0.0347336 -0.000420059 0)
(0.0350081 -0.000422262 0)
(0.0352846 -0.000422799 0)
(0.035562 -0.000421585 0)
(0.035839 -0.000418549 0)
(0.0361147 -0.000413628 0)
(0.0363876 -0.000406779 0)
(0.0366566 -0.000397971 0)
(0.0369203 -0.000387195 0)
(0.0371776 -0.000374464 0)
(0.0374271 -0.000359812 0)
(0.0376677 -0.000343298 0)
(0.037898 -0.000325007 0)
(0.038117 -0.000305051 0)
(0.0383234 -0.000283565 0)
(0.0385163 -0.000260712 0)
(0.0386947 -0.000236679 0)
(0.0388577 -0.000211676 0)
(0.0390047 -0.000185932 0)
(0.0391348 -0.000159694 0)
(0.0392478 -0.000133222 0)
(0.0393432 -0.000106783 0)
(0.039421 -8.06499e-05 0)
(0.0394811 -5.5091e-05 0)
(0.0395238 -3.03672e-05 0)
(0.0395493 -6.72297e-06 0)
(0.0395584 1.5618e-05 0)
(0.0395516 3.64683e-05 0)
(0.03953 5.56669e-05 0)
(0.0394945 7.31296e-05 0)
(0.0394463 8.88109e-05 0)
(0.0393867 0.000102673 0)
(0.0393169 0.000115376 0)
(0.0392388 0.000125401 0)
(0.0391523 0.000138309 0)
(0.0390608 0.000144547 0)
(0.0389687 0.000157636 0)
(0.0388433 0.000188291 0)
(-0.000305917 0.00126249 0)
(-0.001518 0.00231693 0)
(-0.0028733 0.00272601 0)
(-0.00414184 0.00273706 0)
(-0.00524225 0.00266631 0)
(-0.0062237 0.00253851 0)
(-0.00707229 0.00241123 0)
(-0.00782157 0.00227804 0)
(-0.00847296 0.00214994 0)
(-0.00904307 0.0020255 0)
(-0.00953699 0.00190703 0)
(-0.00996351 0.00179416 0)
(-0.0103272 0.00168702 0)
(-0.0106332 0.00158516 0)
(-0.0108846 0.00148817 0)
(-0.0110844 0.00139553 0)
(-0.0112346 0.00130669 0)
(-0.0113367 0.00122108 0)
(-0.0113916 0.00113807 0)
(-0.0113998 0.001057 0)
(-0.0113614 0.000977154 0)
(-0.0112761 0.000897742 0)
(-0.0111431 0.000817916 0)
(-0.0109614 0.000736751 0)
(-0.0107296 0.000653252 0)
(-0.0104462 0.000566362 0)
(-0.0101093 0.000474974 0)
(-0.00971669 0.000377952 0)
(-0.00926628 0.000274159 0)
(-0.0087557 0.000162481 0)
(-0.00818257 4.18681e-05 0)
(-0.00754451 -8.86363e-05 0)
(-0.0068392 -0.000229855 0)
(-0.00606445 -0.000382446 0)
(-0.00521824 -0.000546868 0)
(-0.00429879 -0.000723357 0)
(-0.00330461 -0.000911904 0)
(-0.00223453 -0.00111224 0)
(-0.00108777 -0.00132384 0)
(0.000136029 -0.0015459 0)
(0.0014368 -0.00177737 0)
(0.002814 -0.00201694 0)
(0.00426658 -0.00226309 0)
(0.00579298 -0.00251409 0)
(0.00739114 -0.00276801 0)
(0.00905844 -0.00302279 0)
(0.0107917 -0.00327622 0)
(0.0125874 -0.00352601 0)
(0.0144411 -0.00376981 0)
(0.0163481 -0.00400521 0)
(0.0183032 -0.00422983 0)
(0.0203007 -0.00444127 0)
(0.0223341 -0.00463725 0)
(0.024397 -0.00481553 0)
(0.0264821 -0.00497402 0)
(0.028582 -0.00511079 0)
(0.0306889 -0.00522407 0)
(0.0327948 -0.00531236 0)
(0.0348915 -0.00537436 0)
(0.0369706 -0.00540907 0)
(0.0390239 -0.0054158 0)
(0.041043 -0.00539419 0)
(0.0430198 -0.0053442 0)
(0.0449466 -0.00526617 0)
(0.0468159 -0.00516079 0)
(0.0486207 -0.00502911 0)
(0.0503544 -0.00487253 0)
(0.0520113 -0.00469275 0)
(0.0535862 -0.00449177 0)
(0.0550747 -0.00427185 0)
(0.0564732 -0.00403544 0)
(0.0577789 -0.00378514 0)
(0.0589897 -0.00352366 0)
(0.0601043 -0.00325373 0)
(0.0611223 -0.00297806 0)
(0.0620439 -0.00269933 0)
(0.0628698 -0.00242006 0)
(0.0636016 -0.00214264 0)
(0.0642411 -0.00186926 0)
(0.0647907 -0.0016019 0)
(0.0652531 -0.00134232 0)
(0.0656314 -0.00109203 0)
(0.0659288 -0.000852283 0)
(0.0661488 -0.000624122 0)
(0.0662949 -0.000408343 0)
(0.0663708 -0.000205533 0)
(0.06638 -1.60772e-05 0)
(0.0663264 0.000159818 0)
(0.0662136 0.000322105 0)
(0.066045 0.000470877 0)
(0.0658244 0.000606346 0)
(0.0655552 0.00072882 0)
(0.0652407 0.000838691 0)
(0.0648842 0.000936413 0)
(0.0644891 0.00102249 0)
(0.0640583 0.00109745 0)
(0.0635949 0.00116186 0)
(0.0631019 0.00121629 0)
(0.062582 0.00126131 0)
(0.0620381 0.00129749 0)
(0.0614729 0.00132539 0)
(0.0608888 0.00134555 0)
(0.0602885 0.00135851 0)
(0.0596743 0.00136477 0)
(0.0590486 0.00136481 0)
(0.0584138 0.0013591 0)
(0.057772 0.00134809 0)
(0.0571254 0.0013322 0)
(0.0564761 0.00131182 0)
(0.0558262 0.00128733 0)
(0.0551777 0.00125911 0)
(0.0545324 0.00122748 0)
(0.0538922 0.00119278 0)
(0.0532589 0.00115533 0)
(0.0526342 0.00111541 0)
(0.0520199 0.00107332 0)
(0.0514174 0.00102932 0)
(0.0508283 0.000983683 0)
(0.050254 0.000936653 0)
(0.0496959 0.000888468 0)
(0.0491553 0.000839352 0)
(0.0486333 0.00078952 0)
(0.048131 0.000739172 0)
(0.0476494 0.000688494 0)
(0.0471893 0.000637662 0)
(0.0467516 0.000586835 0)
(0.0463369 0.000536159 0)
(0.0459458 0.000485765 0)
(0.0455787 0.000435769 0)
(0.0452361 0.000386275 0)
(0.0449183 0.000337369 0)
(0.0446254 0.000289128 0)
(0.0443575 0.000241613 0)
(0.0441146 0.000194876 0)
(0.0438968 0.000148955 0)
(0.0437038 0.000103881 0)
(0.0435354 5.96774e-05 0)
(0.0433915 1.63594e-05 0)
(0.0432717 -2.60623e-05 0)
(0.0431756 -6.7581e-05 0)
(0.0431028 -0.000108192 0)
(0.0430529 -0.000147891 0)
(0.0430255 -0.000186675 0)
(0.0430199 -0.000224535 0)
(0.0430357 -0.000261462 0)
(0.0430723 -0.000297441 0)
(0.043129 -0.000332449 0)
(0.0432053 -0.00036646 0)
(0.0433005 -0.000399434 0)
(0.0434139 -0.000431327 0)
(0.0435448 -0.000462082 0)
(0.0436925 -0.000491632 0)
(0.0438562 -0.0005199 0)
(0.0440352 -0.000546796 0)
(0.0442285 -0.000572222 0)
(0.0444354 -0.000596067 0)
(0.0446549 -0.000618212 0)
(0.0448862 -0.000638528 0)
(0.0451282 -0.00065688 0)
(0.04538 -0.000673126 0)
(0.0456405 -0.000687122 0)
(0.0459087 -0.000698722 0)
(0.0461833 -0.000707779 0)
(0.0464633 -0.000714152 0)
(0.0467475 -0.000717706 0)
(0.0470346 -0.000718317 0)
(0.0473234 -0.000715873 0)
(0.0476126 -0.000710277 0)
(0.0479009 -0.000701456 0)
(0.048187 -0.000689355 0)
(0.0484696 -0.000673951 0)
(0.0487472 -0.000655245 0)
(0.0490186 -0.000633272 0)
(0.0492825 -0.000608104 0)
(0.0495375 -0.000579845 0)
(0.0497824 -0.000548641 0)
(0.0500161 -0.000514673 0)
(0.0502372 -0.000478165 0)
(0.0504447 -0.000439377 0)
(0.0506376 -0.000398608 0)
(0.0508149 -0.000356191 0)
(0.0509758 -0.000312492 0)
(0.0511197 -0.000267905 0)
(0.0512458 -0.000222847 0)
(0.0513537 -0.000177753 0)
(0.0514432 -0.000133066 0)
(0.0515141 -8.92327e-05 0)
(0.0515665 -4.66906e-05 0)
(0.0516004 -5.85994e-06 0)
(0.0516165 3.28658e-05 0)
(0.0516151 6.91422e-05 0)
(0.0515972 0.000102669 0)
(0.0515635 0.000133243 0)
(0.0515153 0.000160717 0)
(0.0514539 0.000185198 0)
(0.0513805 0.000206408 0)
(0.0512967 0.000226483 0)
(0.0512055 0.000240852 0)
(0.051107 0.000260719 0)
(0.0509883 0.000283127 0)
(-0.000405341 0.00247147 0)
(-0.00172002 0.00379917 0)
(-0.00298862 0.00414471 0)
(-0.00405162 0.00389403 0)
(-0.00482799 0.00362176 0)
(-0.00542853 0.00332022 0)
(-0.00585001 0.00305734 0)
(-0.00615181 0.00281199 0)
(-0.00634294 0.0025892 0)
(-0.00644929 0.00238271 0)
(-0.00647902 0.00219132 0)
(-0.00644372 0.00201252 0)
(-0.00634877 0.00184463 0)
(-0.00619973 0.00168601 0)
(-0.00599971 0.00153523 0)
(-0.00575141 0.00139097 0)
(-0.00545638 0.00125202 0)
(-0.0051157 0.00111725 0)
(-0.0047298 0.000985538 0)
(-0.00429873 0.000855808 0)
(-0.00382211 0.000726972 0)
(-0.00329923 0.000597923 0)
(-0.00272913 0.000467529 0)
(-0.00211058 0.000334622 0)
(-0.00144217 0.000198004 0)
(-0.000722343 5.6453e-05 0)
(5.05677e-05 -9.12595e-05 0)
(0.000878289 -0.000246352 0)
(0.00176256 -0.000410004 0)
(0.00270511 -0.000583329 0)
(0.00370755 -0.000767337 0)
(0.00477143 -0.000962905 0)
(0.0058981 -0.00117074 0)
(0.00708873 -0.00139135 0)
(0.00834424 -0.001625 0)
(0.0096653 -0.00187173 0)
(0.0110523 -0.00213126 0)
(0.0125052 -0.00240308 0)
(0.0140237 -0.00268636 0)
(0.0156071 -0.00297997 0)
(0.0172543 -0.00328254 0)
(0.0189639 -0.00359238 0)
(0.0207338 -0.0039076 0)
(0.0225617 -0.00422606 0)
(0.0244448 -0.0045454 0)
(0.0263797 -0.00486312 0)
(0.0283626 -0.00517655 0)
(0.0303894 -0.0054829 0)
(0.0324552 -0.00577933 0)
(0.0345549 -0.00606293 0)
(0.0366827 -0.00633078 0)
(0.0388325 -0.00657999 0)
(0.0409977 -0.00680774 0)
(0.0431714 -0.00701133 0)
(0.0453462 -0.0071882 0)
(0.0475144 -0.00733597 0)
(0.0496683 -0.00745252 0)
(0.0517996 -0.00753601 0)
(0.0539004 -0.0075849 0)
(0.0559624 -0.00759805 0)
(0.0579778 -0.00757468 0)
(0.0599385 -0.00751446 0)
(0.0618373 -0.00741751 0)
(0.0636671 -0.00728442 0)
(0.0654215 -0.00711627 0)
(0.0670945 -0.00691458 0)
(0.0686812 -0.00668133 0)
(0.0701773 -0.00641892 0)
(0.0715793 -0.00613011 0)
(0.0728848 -0.00581797 0)
(0.0740921 -0.00548581 0)
(0.0752005 -0.00513711 0)
(0.07621 -0.00477543 0)
(0.0771215 -0.00440437 0)
(0.0779365 -0.00402746 0)
(0.0786572 -0.00364808 0)
(0.0792862 -0.00326945 0)
(0.0798268 -0.00289457 0)
(0.0802823 -0.00252612 0)
(0.0806564 -0.00216654 0)
(0.080953 -0.0018179 0)
(0.081176 -0.001482 0)
(0.0813294 -0.0011603 0)
(0.0814171 -0.000853957 0)
(0.081443 -0.000563843 0)
(0.0814108 -0.000290569 0)
(0.0813242 -3.45033e-05 0)
(0.0811866 0.000204198 0)
(0.0810013 0.000425566 0)
(0.0807715 0.000629788 0)
(0.0805002 0.000817187 0)
(0.0801901 0.000988192 0)
(0.079844 0.00114332 0)
(0.0794644 0.00128314 0)
(0.0790537 0.0014083 0)
(0.0786141 0.00151944 0)
(0.0781477 0.00161724 0)
(0.0776566 0.00170238 0)
(0.0771428 0.00177554 0)
(0.076608 0.00183737 0)
(0.0760541 0.00188854 0)
(0.0754828 0.00192966 0)
(0.0748957 0.00196134 0)
(0.0742945 0.00198414 0)
(0.0736808 0.00199861 0)
(0.073056 0.00200526 0)
(0.0724217 0.00200459 0)
(0.0717794 0.00199705 0)
(0.0711306 0.00198307 0)
(0.0704768 0.00196308 0)
(0.0698195 0.00193744 0)
(0.0691601 0.00190654 0)
(0.0685001 0.00187073 0)
(0.067841 0.00183033 0)
(0.0671843 0.00178569 0)
(0.0665315 0.00173711 0)
(0.0658839 0.00168489 0)
(0.0652432 0.00162935 0)
(0.0646107 0.00157076 0)
(0.0639879 0.00150941 0)
(0.0633762 0.0014456 0)
(0.0627771 0.00137959 0)
(0.0621918 0.00131166 0)
(0.0616218 0.00124208 0)
(0.0610682 0.00117111 0)
(0.0605323 0.001099 0)
(0.0600152 0.001026 0)
(0.059518 0.000952346 0)
(0.0590418 0.000878267 0)
(0.0585873 0.000803976 0)
(0.0581555 0.000729673 0)
(0.0577471 0.000655546 0)
(0.0573627 0.000581768 0)
(0.0570028 0.000508497 0)
(0.0566678 0.000435876 0)
(0.0563581 0.000364037 0)
(0.056074 0.000293094 0)
(0.0558155 0.00022315 0)
(0.0555827 0.000154298 0)
(0.0553756 8.66188e-05 0)
(0.055194 2.01859e-05 0)
(0.0550377 -4.49346e-05 0)
(0.0549065 -0.000108681 0)
(0.0547999 -0.000170995 0)
(0.0547176 -0.000231818 0)
(0.054659 -0.000291093 0)
(0.0546236 -0.000348757 0)
(0.0546109 -0.000404746 0)
(0.05462 -0.000458986 0)
(0.0546504 -0.000511398 0)
(0.0547013 -0.000561893 0)
(0.0547719 -0.000610373 0)
(0.0548614 -0.000656728 0)
(0.0549688 -0.000700839 0)
(0.0550933 -0.000742573 0)
(0.0552339 -0.000781789 0)
(0.0553896 -0.000818334 0)
(0.0555595 -0.000852047 0)
(0.0557423 -0.000882758 0)
(0.0559372 -0.000910293 0)
(0.0561428 -0.000934473 0)
(0.0563582 -0.000955118 0)
(0.0565821 -0.000972051 0)
(0.0568133 -0.000985097 0)
(0.0570506 -0.000994092 0)
(0.0572928 -0.000998884 0)
(0.0575385 -0.000999337 0)
(0.0577867 -0.000995332 0)
(0.0580359 -0.000986779 0)
(0.0582849 -0.00097361 0)
(0.0585324 -0.000955793 0)
(0.0587772 -0.000933329 0)
(0.0590179 -0.000906258 0)
(0.0592535 -0.000874662 0)
(0.0594826 -0.000838667 0)
(0.0597042 -0.000798444 0)
(0.0599169 -0.000754215 0)
(0.0601199 -0.000706248 0)
(0.060312 -0.00065486 0)
(0.0604923 -0.000600416 0)
(0.0606599 -0.000543327 0)
(0.0608139 -0.000484048 0)
(0.0609536 -0.000423072 0)
(0.0610784 -0.00036093 0)
(0.0611877 -0.000298178 0)
(0.0612812 -0.000235394 0)
(0.0613584 -0.000173171 0)
(0.0614193 -0.000112104 0)
(0.0614638 -5.27806e-05 0)
(0.061492 4.2334e-06 0)
(0.061504 5.84036e-05 0)
(0.0615005 0.000109244 0)
(0.0614818 0.000156352 0)
(0.0614488 0.000199364 0)
(0.0614025 0.000238154 0)
(0.0613438 0.000272474 0)
(0.0612743 0.000302994 0)
(0.0611957 0.000327918 0)
(0.0611084 0.00035505 0)
(0.0610088 0.00037335 0)
(-0.000694072 0.00309546 0)
(-0.00209245 0.00472451 0)
(-0.00255408 0.00495395 0)
(-0.00279015 0.00450698 0)
(-0.00262205 0.00403462 0)
(-0.00236907 0.00356786 0)
(-0.00196906 0.00316364 0)
(-0.00150624 0.0028052 0)
(-0.000971489 0.00248804 0)
(-0.000389988 0.0022035 0)
(0.00023678 0.00194495 0)
(0.000900022 0.0017075 0)
(0.00159773 0.00148676 0)
(0.00232666 0.00127958 0)
(0.00308583 0.00108313 0)
(0.00387433 0.000895192 0)
(0.00469215 0.000713766 0)
(0.00553952 0.000537136 0)
(0.00641714 0.000363719 0)
(0.00732594 0.000192054 0)
(0.00826711 2.07409e-05 0)
(0.009242 -0.000151569 0)
(0.0102521 -0.000326203 0)
(0.0112991 -0.000504472 0)
(0.0123846 -0.00068767 0)
(0.0135104 -0.000877076 0)
(0.0146782 -0.00107394 0)
(0.0158895 -0.00127945 0)
(0.0171461 -0.00149474 0)
(0.0184493 -0.00172084 0)
(0.0198005 -0.00195866 0)
(0.0212007 -0.00220893 0)
(0.022651 -0.00247222 0)
(0.0241518 -0.00274887 0)
(0.0257037 -0.00303896 0)
(0.0273067 -0.00334232 0)
(0.0289606 -0.00365849 0)
(0.0306648 -0.00398671 0)
(0.0324183 -0.0043259 0)
(0.0342199 -0.0046747 0)
(0.0360679 -0.00503143 0)
(0.0379602 -0.00539412 0)
(0.0398943 -0.00576053 0)
(0.0418672 -0.00612818 0)
(0.0438755 -0.00649433 0)
(0.0459153 -0.00685605 0)
(0.0479823 -0.00721026 0)
(0.0500717 -0.0075537 0)
(0.0521782 -0.00788305 0)
(0.0542961 -0.00819489 0)
(0.0564192 -0.0084858 0)
(0.0585408 -0.00875239 0)
(0.060654 -0.00899135 0)
(0.0627514 -0.00919947 0)
(0.0648253 -0.00937376 0)
(0.0668678 -0.00951147 0)
(0.068871 -0.00961013 0)
(0.0708269 -0.00966765 0)
(0.0727275 -0.00968236 0)
(0.0745652 -0.00965305 0)
(0.0763326 -0.00957904 0)
(0.0780228 -0.0094602 0)
(0.0796296 -0.00929699 0)
(0.0811476 -0.00909048 0)
(0.082572 -0.00884235 0)
(0.0838993 -0.00855486 0)
(0.0851268 -0.00823082 0)
(0.0862529 -0.00787354 0)
(0.087277 -0.00748674 0)
(0.0881998 -0.00707451 0)
(0.0890228 -0.00664113 0)
(0.0897482 -0.00619105 0)
(0.0903793 -0.00572875 0)
(0.09092 -0.00525864 0)
(0.0913745 -0.00478498 0)
(0.0917475 -0.00431178 0)
(0.0920441 -0.00384277 0)
(0.0922692 -0.00338132 0)
(0.0924279 -0.00293043 0)
(0.0925253 -0.00249267 0)
(0.092566 -0.00207023 0)
(0.0925547 -0.00166489 0)
(0.0924956 -0.00127807 0)
(0.0923928 -0.000910786 0)
(0.0922498 -0.000563771 0)
(0.0920701 -0.000237442 0)
(0.0918567 6.80378e-05 0)
(0.0916122 0.00035273 0)
(0.0913393 0.000616884 0)
(0.09104 0.000860905 0)
(0.0907163 0.00108533 0)
(0.0903701 0.00129077 0)
(0.0900029 0.00147795 0)
(0.0896161 0.00164762 0)
(0.0892109 0.00180055 0)
(0.0887887 0.00193755 0)
(0.0883503 0.00205943 0)