/*--------------------------------*- C++ -*----------------------------------*\
| =========                 |                                                 |
| \\      /  F ield         | OpenFOAM: The Open Source CFD Toolbox           |
|  \\    /   O peration     | Version:  4.1                                   |
|   \\  /    A nd           | Web:      www.OpenFOAM.org                      |
|    \\/     M anipulation  |                                                 |
\*---------------------------------------------------------------------------*/
FoamFile
{
    version     2.0;
    format      ascii;
    class       volScalarField;
    location    "305";
    object      p;
}
// * * * * * * * * * * * * * * * * * * * * * * * * * * * * * * * * * * * * * //

dimensions      [1 -1 -2 0 0 0 0];

internalField   nonuniform List<scalar> 
3264
(
0.712496
0.712494
0.712493
0.712493
0.712493
0.712493
0.712494
0.712496
0.712499
0.712502
0.712506
0.712511
0.712517
0.712524
0.712532
0.712541
0.71255
0.712561
0.712573
0.712586
0.712601
0.712616
0.712634
0.712653
0.712674
0.712697
0.712722
0.71275
0.712781
0.712815
0.712853
0.712893
0.712938
0.712986
0.713038
0.713094
0.713153
0.713216
0.713283
0.713352
0.713425
0.713499
0.713575
0.713652
0.71373
0.713808
0.713884
0.71396
0.714033
0.714103
0.71417
0.714233
0.714292
0.714346
0.714395
0.714439
0.714477
0.714511
0.714539
0.714562
0.71458
0.714594
0.714605
0.714612
0.714616
0.714617
0.714617
0.714615
0.714612
0.714608
0.714604
0.7146
0.714596
0.714593
0.714591
0.714589
0.714588
0.714588
0.714589
0.71459
0.714592
0.714595
0.714598
0.714601
0.714605
0.714609
0.714613
0.714616
0.71462
0.714623
0.714627
0.71463
0.714632
0.714635
0.714637
0.714639
0.714641
0.714642
0.714644
0.714645
0.714646
0.714647
0.714648
0.714648
0.714649
0.71465
0.714651
0.714652
0.714653
0.714655
0.714656
0.714659
0.714661
0.714664
0.714668
0.714672
0.714677
0.714682
0.714688
0.714694
0.714701
0.714708
0.714715
0.714723
0.714731
0.714738
0.714746
0.714753
0.71476
0.714766
0.714772
0.714776
0.71478
0.714784
0.714786
0.714787
0.714787
0.714786
0.714785
0.714782
0.714779
0.714775
0.71477
0.714764
0.714758
0.714751
0.714744
0.714737
0.714729
0.714722
0.714714
0.714706
0.714698
0.71469
0.714683
0.714675
0.714667
0.71466
0.714653
0.714645
0.714638
0.714631
0.714624
0.714617
0.71461
0.714603
0.714595
0.714588
0.71458
0.714573
0.714565
0.714557
0.714549
0.71454
0.714532
0.714523
0.714514
0.714505
0.714496
0.714486
0.714477
0.714467
0.714457
0.714447
0.714438
0.714428
0.714418
0.714408
0.714398
0.714388
0.714378
0.714368
0.714359
0.714349
0.714339
0.714329
0.71432
0.71431
0.7143
0.714291
0.712498
0.712496
0.712495
0.712495
0.712495
0.712496
0.712497
0.712499
0.712501
0.712504
0.712508
0.712513
0.712519
0.712526
0.712534
0.712543
0.712552
0.712563
0.712575
0.712588
0.712602
0.712618
0.712635
0.712654
0.712675
0.712698
0.712723
0.712751
0.712781
0.712814
0.712851
0.712891
0.712935
0.712982
0.713034
0.713089
0.713148
0.71321
0.713276
0.713345
0.713417
0.713491
0.713567
0.713644
0.713721
0.713799
0.713876
0.713951
0.714024
0.714094
0.714161
0.714224
0.714283
0.714337
0.714386
0.71443
0.714469
0.714502
0.714531
0.714554
0.714573
0.714588
0.714598
0.714606
0.71461
0.714612
0.714612
0.714611
0.714608
0.714605
0.714602
0.714599
0.714596
0.714594
0.714592
0.714591
0.71459
0.714591
0.714592
0.714594
0.714596
0.714599
0.714602
0.714605
0.714609
0.714613
0.714616
0.71462
0.714623
0.714626
0.714629
0.714632
0.714635
0.714637
0.714639
0.714641
0.714642
0.714644
0.714645
0.714646
0.714647
0.714648
0.714648
0.714649
0.71465
0.71465
0.714651
0.714652
0.714653
0.714654
0.714656
0.714658
0.71466
0.714663
0.714667
0.714671
0.714675
0.71468
0.714686
0.714692
0.714699
0.714706
0.714713
0.714721
0.714728
0.714736
0.714743
0.714751
0.714757
0.714764
0.714769
0.714774
0.714779
0.714782
0.714784
0.714786
0.714786
0.714786
0.714784
0.714782
0.714778
0.714774
0.714769
0.714764
0.714758
0.714751
0.714744
0.714737
0.71473
0.714722
0.714714
0.714706
0.714698
0.71469
0.714683
0.714675
0.714667
0.71466
0.714653
0.714645
0.714638
0.714631
0.714624
0.714617
0.71461
0.714602
0.714595
0.714588
0.71458
0.714573
0.714565
0.714557
0.714549
0.71454
0.714532
0.714523
0.714514
0.714505
0.714496
0.714486
0.714477
0.714467
0.714457
0.714447
0.714438
0.714428
0.714418
0.714408
0.714398
0.714388
0.714378
0.714368
0.714359
0.714349
0.714339
0.714329
0.71432
0.71431
0.7143
0.714291
0.712499
0.712497
0.712496
0.712495
0.712495
0.712495
0.712496
0.712498
0.7125
0.712503
0.712507
0.712512
0.712518
0.712525
0.712533
0.712542
0.712551
0.712562
0.712574
0.712587
0.712601
0.712617
0.712634
0.712652
0.712673
0.712695
0.71272
0.712747
0.712777
0.71281
0.712846
0.712886
0.712929
0.712976
0.713027
0.713082
0.713141
0.713203
0.713269
0.713337
0.713409
0.713483
0.713559
0.713635
0.713713
0.71379
0.713867
0.713942
0.714015
0.714085
0.714152
0.714215
0.714273
0.714327
0.714376
0.71442
0.714458
0.714492
0.71452
0.714543
0.714562
0.714577
0.714587
0.714595
0.714599
0.714602
0.714602
0.714601
0.714599
0.714596
0.714593
0.714591
0.714588
0.714586
0.714585
0.714585
0.714585
0.714586
0.714588
0.714591
0.714594
0.714597
0.714601
0.714605
0.71461
0.714614
0.714618
0.714622
0.714625
0.714629
0.714632
0.714635
0.714637
0.714639
0.714641
0.714643
0.714644
0.714645
0.714646
0.714647
0.714648
0.714649
0.714649
0.71465
0.71465
0.714651
0.714651
0.714652
0.714653
0.714654
0.714656
0.714658
0.71466
0.714663
0.714666
0.71467
0.714674
0.714679
0.714685
0.714691
0.714697
0.714704
0.714712
0.714719
0.714727
0.714734
0.714742
0.714749
0.714756
0.714762
0.714768
0.714773
0.714777
0.714781
0.714783
0.714785
0.714785
0.714785
0.714783
0.714781
0.714778
0.714774
0.714769
0.714763
0.714758
0.714751
0.714744
0.714737
0.714729
0.714722
0.714714
0.714706
0.714698
0.714691
0.714683
0.714675
0.714668
0.71466
0.714653
0.714645
0.714638
0.714631
0.714624
0.714617
0.71461
0.714603
0.714595
0.714588
0.71458
0.714573
0.714565
0.714557
0.714549
0.71454
0.714532
0.714523
0.714514
0.714505
0.714496
0.714486
0.714477
0.714467
0.714457
0.714447
0.714438
0.714428
0.714418
0.714408
0.714398
0.714388
0.714378
0.714368
0.714359
0.714349
0.714339
0.714329
0.71432
0.71431
0.7143
0.714291
0.712493
0.712493
0.712492
0.712492
0.712492
0.712493
0.712494
0.712495
0.712498
0.712501
0.712505
0.71251
0.712516
0.712523
0.712531
0.71254
0.71255
0.71256
0.712572
0.712585
0.712599
0.712614
0.712631
0.712649
0.712669
0.712691
0.712715
0.712742
0.712771
0.712804
0.712839
0.712879
0.712921
0.712968
0.713019
0.713073
0.713131
0.713193
0.713258
0.713327
0.713398
0.713471
0.713547
0.713623
0.7137
0.713776
0.713852
0.713926
0.713999
0.714068
0.714134
0.714196
0.714253
0.714306
0.714354
0.714397
0.714434
0.714467
0.714494
0.714517
0.714535
0.714549
0.714559
0.714567
0.714571
0.714574
0.714575
0.714574
0.714573
0.714571
0.71457
0.714568
0.714567
0.714567
0.714567
0.714568
0.71457
0.714572
0.714576
0.71458
0.714584
0.714589
0.714595
0.7146
0.714606
0.714611
0.714617
0.714622
0.714626
0.714631
0.714634
0.714638
0.714641
0.714643
0.714645
0.714647
0.714648
0.714649
0.71465
0.714651
0.714651
0.714651
0.714652
0.714652
0.714652
0.714653
0.714653
0.714654
0.714654
0.714655
0.714657
0.714658
0.71466
0.714663
0.714666
0.71467
0.714674
0.714679
0.714684
0.71469
0.714696
0.714703
0.71471
0.714717
0.714725
0.714732
0.71474
0.714747
0.714753
0.71476
0.714765
0.71477
0.714774
0.714778
0.71478
0.714782
0.714782
0.714782
0.71478
0.714778
0.714775
0.714771
0.714767
0.714762
0.714756
0.71475
0.714743
0.714736
0.714729
0.714721
0.714714
0.714706
0.714698
0.714691
0.714683
0.714675
0.714668
0.714661
0.714653
0.714646
0.714639
0.714632
0.714625
0.714617
0.71461
0.714603
0.714596
0.714588
0.714581
0.714573
0.714565
0.714557
0.714549
0.71454
0.714532
0.714523
0.714514
0.714505
0.714496
0.714486
0.714477
0.714467
0.714457
0.714447
0.714438
0.714428
0.714418
0.714408
0.714398
0.714388
0.714378
0.714368
0.714358
0.714349
0.714339
0.714329
0.71432
0.71431
0.7143
0.714291
0.712491
0.712491
0.712488
0.712488
0.712487
0.712488
0.712489
0.712491
0.712493
0.712497
0.712501
0.712507
0.712513
0.71252
0.712528
0.712537
0.712547
0.712558
0.712569
0.712582
0.712596
0.712611
0.712628
0.712646
0.712666
0.712687
0.712711
0.712738
0.712767
0.712799
0.712834
0.712873
0.712916
0.712962
0.713013
0.713067
0.713125
0.713186
0.713251
0.713319
0.71339
0.713462
0.713537
0.713612
0.713687
0.713763
0.713837
0.713909
0.713979
0.714047
0.71411
0.71417
0.714225
0.714275
0.714321
0.714361
0.714396
0.714427
0.714452
0.714473
0.714489
0.714502
0.714512
0.714519
0.714523
0.714526
0.714527
0.714528
0.714527
0.714527
0.714527
0.714527
0.714528
0.714529
0.714531
0.714534
0.714538
0.714543
0.714548
0.714555
0.714562
0.714569
0.714577
0.714585
0.714593
0.7146
0.714608
0.714615
0.714622
0.714628
0.714634
0.714639
0.714643
0.714647
0.71465
0.714653
0.714655
0.714656
0.714657
0.714658
0.714658
0.714658
0.714658
0.714658
0.714658
0.714658
0.714658
0.714659
0.714659
0.71466
0.714661
0.714662
0.714664
0.714666
0.714669
0.714672
0.714676
0.714681
0.714686
0.714691
0.714697
0.714703
0.71471
0.714717
0.714724
0.714731
0.714738
0.714744
0.714751
0.714757
0.714762
0.714766
0.71477
0.714773
0.714775
0.714776
0.714777
0.714776
0.714775
0.714773
0.71477
0.714766
0.714762
0.714757
0.714752
0.714746
0.71474
0.714733
0.714727
0.71472
0.714712
0.714705
0.714698
0.714691
0.714683
0.714676
0.714669
0.714662
0.714654
0.714647
0.71464
0.714633
0.714626
0.714618
0.714611
0.714604
0.714596
0.714589
0.714581
0.714573
0.714565
0.714557
0.714549
0.71454
0.714532
0.714523
0.714514
0.714505
0.714495
0.714486
0.714476
0.714467
0.714457
0.714447
0.714437
0.714427
0.714418
0.714408
0.714398
0.714388
0.714378
0.714368
0.714358
0.714349
0.714339
0.714329
0.71432
0.71431
0.7143
0.714291
0.712459
0.712474
0.712473
0.712479
0.71248
0.712483
0.712485
0.712487
0.71249
0.712494
0.712499
0.712504
0.712511
0.712518
0.712526
0.712535
0.712545
0.712556
0.712568
0.712581
0.712595
0.71261
0.712626
0.712645
0.712664
0.712686
0.71271
0.712736
0.712766
0.712798
0.712833
0.712872
0.712915
0.712961
0.713012
0.713066
0.713123
0.713184
0.713249
0.713316
0.713385
0.713457
0.713529
0.713603
0.713676
0.713749
0.71382
0.71389
0.713957
0.71402
0.71408
0.714136
0.714187
0.714234
0.714275
0.714311
0.714343
0.71437
0.714392
0.71441
0.714424
0.714435
0.714444
0.71445
0.714454
0.714457
0.714459
0.71446
0.714462
0.714463
0.714465
0.714468
0.714471
0.714475
0.71448
0.714485
0.714492
0.7145
0.714508
0.714517
0.714527
0.714537
0.714548
0.714559
0.71457
0.714581
0.714592
0.714602
0.714612
0.714621
0.71463
0.714638
0.714645
0.714651
0.714656
0.71466
0.714664
0.714667
0.714669
0.71467
0.714671
0.714671
0.714672
0.714672
0.714671
0.714671
0.714671
0.71467
0.71467
0.71467
0.714671
0.714672
0.714673
0.714675
0.714677
0.714679
0.714683
0.714686
0.714691
0.714696
0.714701
0.714706
0.714712
0.714718
0.714724
0.714731
0.714737
0.714742
0.714748
0.714753
0.714757
0.714761
0.714764
0.714766
0.714768
0.714768
0.714768
0.714768
0.714766
0.714764
0.714761
0.714758
0.714754
0.71475
0.714745
0.71474
0.714735
0.714729
0.714723
0.714717
0.71471
0.714704
0.714697
0.714691
0.714684
0.714677
0.71467
0.714663
0.714656
0.714649
0.714642
0.714635
0.714628
0.71462
0.714613
0.714605
0.714598
0.71459
0.714582
0.714574
0.714566
0.714558
0.714549
0.71454
0.714532
0.714523
0.714513
0.714504
0.714495
0.714485
0.714476
0.714466
0.714457
0.714447
0.714437
0.714427
0.714417
0.714407
0.714398
0.714388
0.714378
0.714368
0.714358
0.714349
0.714339
0.714329
0.71432
0.71431
0.7143
0.714291
0.712458
0.712475
0.712473
0.712476
0.712477
0.712479
0.712481
0.712485
0.712488
0.712493
0.712498
0.712504
0.71251
0.712518
0.712526
0.712535
0.712545
0.712556
0.712568
0.712582
0.712596
0.712611
0.712628
0.712646
0.712667
0.712689
0.712713
0.712741
0.71277
0.712803
0.712839
0.712879
0.712922
0.712969
0.71302
0.713074
0.713131
0.713192
0.713256
0.713322
0.71339
0.71346
0.71353
0.713601
0.713671
0.71374
0.713808
0.713873
0.713935
0.713993
0.714048
0.714098
0.714143
0.714184
0.71422
0.714251
0.714277
0.714299
0.714318
0.714332
0.714344
0.714353
0.71436
0.714366
0.71437
0.714374
0.714377
0.71438
0.714384
0.714388
0.714393
0.714398
0.714404
0.714411
0.714419
0.714428
0.714438
0.714449
0.71446
0.714473
0.714485
0.714499
0.714513
0.714527
0.714541
0.714556
0.71457
0.714584
0.714597
0.71461
0.714622
0.714633
0.714644
0.714653
0.714661
0.714668
0.714675
0.71468
0.714684
0.714687
0.714689
0.714691
0.714692
0.714692
0.714692
0.714692
0.714691
0.714691
0.71469
0.71469
0.71469
0.71469
0.71469
0.714691
0.714692
0.714694
0.714696
0.714699
0.714702
0.714706
0.71471
0.714714
0.714718
0.714723
0.714728
0.714733
0.714737
0.714741
0.714745
0.714749
0.714752
0.714754
0.714756
0.714757
0.714758
0.714758
0.714757
0.714756
0.714754
0.714752
0.71475
0.714747
0.714743
0.71474
0.714736
0.714732
0.714727
0.714722
0.714718
0.714712
0.714707
0.714702
0.714696
0.71469
0.714684
0.714678
0.714672
0.714665
0.714658
0.714652
0.714645
0.714638
0.71463
0.714623
0.714615
0.714608
0.7146
0.714592
0.714584
0.714575
0.714567
0.714558
0.714549
0.71454
0.714531
0.714522
0.714513
0.714504
0.714494
0.714485
0.714475
0.714466
0.714456
0.714446
0.714436
0.714427
0.714417
0.714407
0.714397
0.714388
0.714378
0.714368
0.714358
0.714349
0.714339
0.714329
0.71432
0.71431
0.7143
0.714291
0.712303
0.712442
0.712459
0.71248
0.712483
0.712486
0.712488
0.712491
0.712494
0.712497
0.712502
0.712508
0.712514
0.712521
0.71253
0.712539
0.712549
0.712561
0.712573
0.712587
0.712602
0.712618
0.712636
0.712655
0.712676
0.7127
0.712726
0.712754
0.712785
0.71282
0.712857
0.712898
0.712943
0.71299
0.713042
0.713096
0.713154
0.713214
0.713277
0.713342
0.713408
0.713475
0.713543
0.71361
0.713676
0.71374
0.713802
0.713861
0.713916
0.713968
0.714015
0.714058
0.714096
0.71413
0.714159
0.714184
0.714205
0.714222
0.714236
0.714248
0.714257
0.714265
0.714272
0.714278
0.714283
0.714289
0.714294
0.7143
0.714307
0.714314
0.714322
0.71433
0.71434
0.71435
0.714361
0.714373
0.714386
0.7144
0.714414
0.714429
0.714445
0.714461
0.714478
0.714495
0.714512
0.71453
0.714547
0.714564
0.714581
0.714598
0.714613
0.714628
0.714642
0.714655
0.714667
0.714677
0.714687
0.714695
0.714702
0.714707
0.714712
0.714715
0.714718
0.714719
0.71472
0.714721
0.71472
0.71472
0.714719
0.714718
0.714717
0.714717
0.714716
0.714716
0.714716
0.714716
0.714717
0.714718
0.71472
0.714722
0.714724
0.714727
0.714729
0.714732
0.714735
0.714737
0.71474
0.714742
0.714744
0.714745
0.714746
0.714747
0.714747
0.714747
0.714746
0.714745
0.714744
0.714742
0.71474
0.714738
0.714735
0.714733
0.71473
0.714727
0.714724
0.714721
0.714718
0.714715
0.714711
0.714707
0.714703
0.714699
0.714694
0.71469
0.714685
0.714679
0.714674
0.714668
0.714661
0.714655
0.714648
0.714641
0.714634
0.714626
0.714618
0.71461
0.714602
0.714594
0.714585
0.714577
0.714568
0.714559
0.71455
0.714541
0.714531
0.714522
0.714513
0.714503
0.714494
0.714484
0.714474
0.714465
0.714455
0.714445
0.714436
0.714426
0.714416
0.714407
0.714397
0.714387
0.714378
0.714368
0.714358
0.714349
0.714339
0.714329
0.71432
0.71431
0.7143
0.714291
0.713031
0.712975
0.712913
0.712846
0.712773
0.712695
0.712608
0.71249
0.713038
0.712991
0.712929
0.712859
0.712786
0.712708
0.712618
0.712521
0.713042
0.713003
0.712945
0.712879
0.71281
0.712739
0.712668
0.712598
0.713052
0.713018
0.712965
0.712904
0.71284
0.712776
0.712712
0.712654
0.713065
0.713033
0.712983
0.712927
0.712868
0.712811
0.712757
0.712709
0.713079
0.713046
0.712998
0.712944
0.71289
0.712838
0.71279
0.712748
0.713094
0.713057
0.713007
0.712955
0.712904
0.712855
0.712811
0.712772
0.713102
0.713055
0.713005
0.712955
0.712907
0.712861
0.712818
0.712779
0.712428
0.712448
0.712468
0.712479
0.712485
0.712489
0.712491
0.712494
0.712497
0.712501
0.712506
0.712512
0.712519
0.712527
0.712536
0.712546
0.712558
0.71257
0.712584
0.712598
0.712615
0.712633
0.712652
0.712673
0.712697
0.712723
0.712751
0.712782
0.712815
0.712852
0.712892
0.712935
0.712981
0.713031
0.713083
0.713138
0.713196
0.713256
0.713318
0.713381
0.713444
0.713508
0.713571
0.713633
0.713693
0.713751
0.713805
0.713856
0.713904
0.713947
0.713986
0.714021
0.714051
0.714077
0.714099
0.714118
0.714134
0.714147
0.714158
0.714168
0.714177
0.714185
0.714192
0.7142
0.714208
0.714216
0.714224
0.714234
0.714243
0.714254
0.714264
0.714276
0.714288
0.714302
0.714315
0.71433
0.714345
0.714361
0.714378
0.714395
0.714413
0.714431
0.71445
0.71447
0.714489
0.714509
0.714529
0.714549
0.714569
0.714588
0.714607
0.714625
0.714642
0.714658
0.714673
0.714687
0.714699
0.714711
0.71472
0.714729
0.714736
0.714742
0.714746
0.714749
0.714752
0.714753
0.714754
0.714754
0.714753
0.714752
0.714751
0.71475
0.714748
0.714747
0.714746
0.714745
0.714744
0.714743
0.714743
0.714743
0.714743
0.714743
0.714743
0.714744
0.714744
0.714744
0.714744
0.714744
0.714743
0.714742
0.714741
0.71474
0.714738
0.714736
0.714734
0.714732
0.714729
0.714727
0.714725
0.714722
0.71472
0.714718
0.714716
0.714714
0.714712
0.71471
0.714708
0.714706
0.714704
0.714702
0.714699
0.714696
0.714693
0.714689
0.714685
0.714681
0.714676
0.71467
0.714665
0.714658
0.714652
0.714645
0.714637
0.71463
0.714622
0.714613
0.714605
0.714596
0.714587
0.714578
0.714569
0.71456
0.71455
0.714541
0.714531
0.714522
0.714512
0.714503
0.714493
0.714483
0.714474
0.714464
0.714454
0.714445
0.714435
0.714426
0.714416
0.714406
0.714397
0.714387
0.714378
0.714368
0.714358
0.714349
0.714339
0.714329
0.71432
0.71431
0.7143
0.714291
0.712449
0.712459
0.712472
0.712485
0.712492
0.712497
0.712501
0.712504
0.712508
0.712512
0.712518
0.712524
0.712532
0.71254
0.71255
0.712561
0.712574
0.712588
0.712603
0.71262
0.712639
0.712659
0.712681
0.712705
0.712732
0.712761
0.712792
0.712827
0.712864
0.712903
0.712946
0.712992
0.71304
0.713092
0.713145
0.713201
0.713258
0.713317
0.713377
0.713437
0.713497
0.713555
0.713613
0.713668
0.713721
0.71377
0.713816
0.713858
0.713896
0.71393
0.71396
0.713986
0.714009
0.714028
0.714045
0.71406
0.714072
0.714084
0.714095
0.714105
0.714115
0.714125
0.714135
0.714145
0.714156
0.714167
0.714178
0.71419
0.714202
0.714215
0.714228
0.714242
0.714256
0.714271
0.714286
0.714302
0.714319
0.714336
0.714354
0.714373
0.714392
0.714412
0.714432
0.714453
0.714475
0.714496
0.714518
0.71454
0.714562
0.714583
0.714604
0.714625
0.714645
0.714663
0.714681
0.714698
0.714713
0.714727
0.714739
0.71475
0.71476
0.714768
0.714774
0.714779
0.714783
0.714786
0.714787
0.714788
0.714788
0.714787
0.714786
0.714784
0.714782
0.71478
0.714777
0.714775
0.714773
0.71477
0.714768
0.714766
0.714763
0.714761
0.714759
0.714756
0.714754
0.714751
0.714749
0.714746
0.714742
0.714739
0.714736
0.714732
0.714729
0.714725
0.714722
0.714719
0.714715
0.714713
0.71471
0.714708
0.714706
0.714704
0.714703
0.714702
0.714701
0.7147
0.7147
0.714699
0.714698
0.714697
0.714696
0.714694
0.714692
0.714689
0.714686
0.714682
0.714678
0.714673
0.714668
0.714662
0.714656
0.714649
0.714641
0.714633
0.714625
0.714617
0.714608
0.714599
0.714589
0.71458
0.71457
0.714561
0.714551
0.714541
0.714531
0.714522
0.714512
0.714502
0.714492
0.714483
0.714473
0.714463
0.714454
0.714444
0.714435
0.714425
0.714415
0.714406
0.714396
0.714387
0.714377
0.714368
0.714358
0.714349
0.714339
0.714329
0.71432
0.71431
0.714301
0.714291
0.712545
0.712521
0.712515
0.712515
0.712516
0.712518
0.71252
0.712522
0.712525
0.712529
0.712535
0.712542
0.71255
0.712559
0.712571
0.712583
0.712598
0.712614
0.712631
0.712651
0.712672
0.712696
0.712722
0.71275
0.71278
0.712813
0.712848
0.712886
0.712927
0.71297
0.713016
0.713065
0.713116
0.713168
0.713222
0.713278
0.713334
0.713391
0.713447
0.713503
0.713557
0.71361
0.71366
0.713707
0.71375
0.71379
0.713827
0.713859
0.713888
0.713914
0.713937
0.713956
0.713974
0.71399
0.714004
0.714018
0.714031
0.714043
0.714055
0.714067
0.714079
0.714091
0.714104
0.714116
0.714129
0.714142
0.714155
0.714169
0.714182
0.714196
0.714211
0.714225
0.714241
0.714256
0.714272
0.714289
0.714306
0.714324
0.714343
0.714362
0.714382
0.714403
0.714424
0.714446
0.714468
0.714491
0.714514
0.714537
0.71456
0.714583
0.714606
0.714628
0.71465
0.71467
0.71469
0.714709
0.714726
0.714742
0.714757
0.71477
0.714781
0.714791
0.714799
0.714805
0.714811
0.714814
0.714817
0.714818
0.714819
0.714818
0.714817
0.714815
0.714812
0.714809
0.714806
0.714802
0.714798
0.714794
0.71479
0.714786
0.714781
0.714777
0.714772
0.714767
0.714762
0.714757
0.714752
0.714747
0.714742
0.714736
0.714731
0.714726
0.714721
0.714716
0.714712
0.714708
0.714704
0.714701
0.714698
0.714696
0.714695
0.714694
0.714693
0.714693
0.714693
0.714693
0.714693
0.714694
0.714694
0.714694
0.714693
0.714693
0.714691
0.71469
0.714687
0.714684
0.71468
0.714676
0.714671
0.714665
0.714659
0.714652
0.714645
0.714637
0.714628
0.714619
0.71461
0.714601
0.714591
0.714582
0.714572
0.714562
0.714552
0.714542
0.714532
0.714522
0.714512
0.714502
0.714492
0.714482
0.714472
0.714463
0.714453
0.714444
0.714434
0.714425
0.714415
0.714406
0.714396
0.714387
0.714377
0.714368
0.714358
0.714349
0.714339
0.714329
0.71432
0.71431
0.714301
0.714291
0.712608
0.71258
0.712565
0.712558
0.712554
0.712551
0.71255
0.71255
0.712551
0.712554
0.712559
0.712565
0.712574
0.712584
0.712596
0.71261
0.712626
0.712644
0.712664
0.712686
0.712711
0.712738
0.712767
0.712798
0.712833
0.712869
0.712909
0.71295
0.712995
0.713041
0.71309
0.71314
0.713192
0.713245
0.713299
0.713353
0.713407
0.71346
0.713511
0.713561
0.713609
0.713654
0.713695
0.713734
0.713769
0.7138
0.713829
0.713855
0.713878
0.713899
0.713918
0.713936
0.713952
0.713967
0.713981
0.713995
0.714009
0.714023
0.714037
0.714051
0.714064
0.714078
0.714092
0.714106
0.714119
0.714133
0.714147
0.714161
0.714175
0.71419
0.714204
0.714219
0.714235
0.714251
0.714267
0.714284
0.714302
0.71432
0.714339
0.714359
0.714379
0.7144
0.714422
0.714444
0.714467
0.71449
0.714514
0.714538
0.714562
0.714586
0.71461
0.714633
0.714656
0.714678
0.714699
0.714719
0.714738
0.714755
0.714771
0.714785
0.714798
0.714809
0.714818
0.714826
0.714832
0.714837
0.71484
0.714842
0.714843
0.714842
0.714841
0.714838
0.714835
0.714832
0.714827
0.714823
0.714817
0.714812
0.714806
0.7148
0.714794
0.714788
0.714781
0.714775
0.714768
0.714761
0.714754
0.714747
0.71474
0.714733
0.714727
0.71472
0.714715
0.714709
0.714704
0.7147
0.714696
0.714693
0.71469
0.714689
0.714687
0.714687
0.714687
0.714687
0.714688
0.714689
0.71469
0.714691
0.714691
0.714692
0.714692
0.714692
0.714692
0.71469
0.714689
0.714686
0.714682
0.714678
0.714673
0.714668
0.714662
0.714655
0.714647
0.714639
0.71463
0.714621
0.714612
0.714603
0.714593
0.714583
0.714572
0.714562
0.714552
0.714542
0.714532
0.714521
0.714511
0.714501
0.714491
0.714482
0.714472
0.714462
0.714453
0.714443
0.714434
0.714424
0.714415
0.714405
0.714396
0.714387
0.714377
0.714368
0.714358
0.714349
0.714339
0.71433
0.71432
0.71431
0.714301
0.714291
0.712669
0.712641
0.712621
0.712607
0.712597
0.712589
0.712584
0.71258
0.712579
0.71258
0.712584
0.712589
0.712597
0.712608
0.71262
0.712635
0.712653
0.712673
0.712695
0.712719
0.712747
0.712776
0.712808
0.712843
0.71288
0.71292
0.712962
0.713007
0.713053
0.713102
0.713152
0.713203
0.713255
0.713307
0.713358
0.713409
0.713459
0.713507
0.713553
0.713597
0.713638
0.713677
0.713713
0.713745
0.713775
0.713801
0.713825
0.713847
0.713867
0.713886
0.713904
0.713921
0.713939
0.713955
0.713972
0.713988
0.714003
0.714018
0.714033
0.714047
0.714061
0.714075
0.714089
0.714103
0.714117
0.714131
0.714145
0.714159
0.714173
0.714188
0.714203
0.714218
0.714234
0.71425
0.714266
0.714284
0.714301
0.71432
0.714339
0.714359
0.714379
0.714401
0.714423
0.714445
0.714469
0.714493
0.714517
0.714541
0.714566
0.71459
0.714615
0.714639
0.714662
0.714685
0.714707
0.714728
0.714747
0.714765
0.714782
0.714797
0.71481
0.714822
0.714832
0.71484
0.714847
0.714852
0.714855
0.714857
0.714858
0.714858
0.714856
0.714853
0.71485
0.714846
0.714841
0.714835
0.714829
0.714823
0.714816
0.714809
0.714801
0.714794
0.714786
0.714778
0.71477
0.714762
0.714754
0.714746
0.714738
0.714731
0.714724
0.714717
0.714711
0.714705
0.7147
0.714695
0.714692
0.714689
0.714686
0.714685
0.714684
0.714683
0.714684
0.714684
0.714685
0.714687
0.714688
0.714689
0.714691
0.714692
0.714692
0.714693
0.714692
0.714691
0.71469
0.714687
0.714684
0.71468
0.714675
0.71467
0.714663
0.714656
0.714649
0.71464
0.714632
0.714623
0.714613
0.714603
0.714593
0.714583
0.714573
0.714563
0.714552
0.714542
0.714531
0.714521
0.714511
0.714501
0.714491
0.714481
0.714472
0.714462
0.714452
0.714443
0.714433
0.714424
0.714415
0.714405
0.714396
0.714386
0.714377
0.714368
0.714358
0.714349
0.714339
0.71433
0.71432
0.71431
0.714301
0.714291
0.712712
0.712683
0.71266
0.712642
0.712627
0.712616
0.712607
0.712601
0.712597
0.712597
0.712599
0.712605
0.712612
0.712623
0.712636
0.712652
0.712671
0.712692
0.712716
0.712742
0.712771
0.712802
0.712836
0.712873
0.712911
0.712953
0.712996
0.713042
0.713089
0.713138
0.713187
0.713238
0.713288
0.713338
0.713388
0.713435
0.713481
0.713526
0.713567
0.713606
0.713643
0.713677
0.713708
0.713736
0.713763
0.713788
0.713813
0.713836
0.713859
0.71388
0.713901
0.71392
0.713937
0.713954
0.71397
0.713986
0.714001
0.714016
0.714031
0.714045
0.714059
0.714074
0.714088
0.714102
0.714116
0.71413
0.714144
0.714159
0.714173
0.714188
0.714203
0.714219
0.714234
0.714251
0.714268
0.714285
0.714303
0.714321
0.714341
0.714361
0.714382
0.714403
0.714426
0.714449
0.714472
0.714496
0.714521
0.714545
0.71457
0.714595
0.71462
0.714644
0.714668
0.714691
0.714713
0.714734
0.714754
0.714772
0.714789
0.714804
0.714818
0.71483
0.71484
0.714849
0.714855
0.71486
0.714864
0.714866
0.714866
0.714866
0.714864
0.714861
0.714857
0.714852
0.714847
0.714841
0.714834
0.714827
0.71482
0.714812
0.714804
0.714795
0.714787
0.714778
0.71477
0.714761
0.714753
0.714745
0.714737
0.714729
0.714722
0.714715
0.714709
0.714703
0.714698
0.714694
0.71469
0.714687
0.714685
0.714684
0.714683
0.714683
0.714683
0.714684
0.714685
0.714686
0.714688
0.71469
0.714691
0.714692
0.714693
0.714693
0.714693
0.714692
0.71469
0.714688
0.714685
0.714681
0.714676
0.71467
0.714664
0.714657
0.714649
0.714641
0.714632
0.714623
0.714613
0.714604
0.714594
0.714583
0.714573
0.714563
0.714552
0.714542
0.714531
0.714521
0.714511
0.714501
0.714491
0.714481
0.714472
0.714462
0.714452
0.714443
0.714433
0.714424
0.714415
0.714405
0.714396
0.714386
0.714377
0.714368
0.714358
0.714349
0.714339
0.71433
0.71432
0.71431
0.714301
0.714291
0.712737
0.712708
0.712683
0.712661
0.712644
0.712629
0.712618
0.71261
0.712606
0.712605
0.712607
0.712612
0.71262
0.712631
0.712645
0.712661
0.71268
0.712702
0.712726
0.712753
0.712783
0.712815
0.71285
0.712887
0.712926
0.712968
0.713011
0.713056
0.713103
0.713151
0.713199
0.713248
0.713296
0.713343
0.713389
0.713434
0.713477
0.713518
0.713558
0.713597
0.713634
0.713669
0.713702
0.713733
0.713762
0.713789
0.713813
0.713836
0.713858
0.713879
0.713898
0.713917
0.713935
0.713952
0.713968
0.713984
0.714
0.714015
0.71403
0.714045
0.714059
0.714074
0.714088
0.714102
0.714116
0.71413
0.714145
0.714159
0.714174
0.714189
0.714204
0.714219
0.714235
0.714252
0.714269
0.714286
0.714304
0.714323
0.714343
0.714363
0.714384
0.714405
0.714428
0.714451
0.714475
0.714499
0.714523
0.714548
0.714573
0.714598
0.714623
0.714647
0.714671
0.714694
0.714716
0.714737
0.714757
0.714776
0.714793
0.714808
0.714821
0.714833
0.714844
0.714852
0.714859
0.714864
0.714867
0.714869
0.714869
0.714868
0.714866
0.714863
0.714859
0.714854
0.714848
0.714842
0.714835
0.714828
0.71482
0.714812
0.714804
0.714795
0.714787
0.714778
0.714769
0.714761
0.714752
0.714744
0.714736
0.714729
0.714722
0.714715
0.714709
0.714703
0.714698
0.714694
0.71469
0.714688
0.714685
0.714684
0.714683
0.714683
0.714683
0.714684
0.714685
0.714687
0.714688
0.71469
0.714691
0.714692
0.714693
0.714693
0.714693
0.714692
0.71469
0.714688
0.714685
0.714681
0.714676
0.71467
0.714664
0.714657
0.714649
0.714641
0.714632
0.714623
0.714613
0.714604
0.714593
0.714583
0.714573
0.714563
0.714552
0.714542
0.714531
0.714521
0.714511
0.714501
0.714491
0.714481
0.714472
0.714462
0.714452
0.714443
0.714433
0.714424
0.714415
0.714405
0.714396
0.714386
0.714377
0.714368
0.714358
0.714349
0.714339
0.714329
0.71432
0.71431
0.714301
0.714291
0.712744
0.712712
0.712685
0.712662
0.712642
0.712626
0.712614
0.712606
0.712602
0.7126
0.712603
0.712608
0.712616
0.712627
0.71264
0.712657
0.712676
0.712698
0.712722
0.712749
0.712778
0.71281
0.712844
0.71288
0.712919
0.71296
0.713002
0.713047
0.713093
0.71314
0.713188
0.713236
0.713284
0.713332
0.713379
0.713425
0.713469
0.713512
0.713553
0.713593
0.71363
0.713665
0.713698
0.713728
0.713756
0.713783
0.713808
0.713832
0.713855
0.713876
0.713896
0.713916
0.713934
0.713951
0.713968
0.713984
0.714
0.714015
0.71403
0.714044
0.714059
0.714073
0.714088
0.714102
0.714116
0.71413
0.714145
0.714159
0.714174
0.714189
0.714204
0.71422
0.714236
0.714253
0.71427
0.714287
0.714306
0.714325
0.714344
0.714365
0.714386
0.714408
0.714431
0.714454
0.714478
0.714502
0.714527
0.714552
0.714577
0.714602
0.714627
0.714652
0.714676
0.714699
0.714721
0.714742
0.714762
0.71478
0.714797
0.714812
0.714825
0.714837
0.714847
0.714855
0.714861
0.714866
0.714869
0.714871
0.714871
0.71487
0.714867
0.714864
0.714859
0.714854
0.714848
0.714841
0.714834
0.714826
0.714819
0.71481
0.714802
0.714794
0.714785
0.714776
0.714768
0.714759
0.714751
0.714743
0.714735
0.714728
0.714721
0.714714
0.714708
0.714703
0.714698
0.714694
0.714691
0.714688
0.714686
0.714685
0.714684
0.714684
0.714685
0.714686
0.714687
0.714688
0.71469
0.714691
0.714692
0.714693
0.714694
0.714694
0.714694
0.714693
0.714691
0.714688
0.714685
0.714681
0.714676
0.71467
0.714664
0.714657
0.714649
0.714641
0.714632
0.714623
0.714613
0.714603
0.714593
0.714583
0.714573
0.714562
0.714552
0.714542
0.714531
0.714521
0.714511
0.714501
0.714491
0.714481
0.714472
0.714462
0.714452
0.714443
0.714433
0.714424
0.714415
0.714405
0.714396
0.714386
0.714377
0.714368
0.714358
0.714349
0.714339
0.714329
0.71432
0.71431
0.714301
0.714291
)
;

boundaryField
{
    inlet
    {
        type            zeroGradient;
    }
    outlet
    {
        type            fixedValue;