/*--------------------------------*- C++ -*----------------------------------*\
| =========                 |                                                 |
| \\      /  F ield         | OpenFOAM: The Open Source CFD Toolbox           |
|  \\    /   O peration     | Version:  4.1                                   |
|   \\  /    A nd           | Web:      www.OpenFOAM.org                      |
|    \\/     M anipulation  |                                                 |
\*---------------------------------------------------------------------------*/
FoamFile
{
    version     2.0;
    format      ascii;
    class       volVectorField;
    location    "61";
    object      U;
}
// * * * * * * * * * * * * * * * * * * * * * * * * * * * * * * * * * * * * * //

dimensions      [0 1 -1 0 0 0 0];

internalField   nonuniform List<vector> 
3264
(
(0.000223183 -0.000324135 0)
(0.000240548 -0.000247967 0)
(-0.000294906 -0.000118481 0)
(-0.00131671 5.79426e-05 0)
(-0.00282393 0.000266051 0)
(-0.00466808 0.000474058 0)
(-0.00669848 0.000640132 0)
(-0.00875225 0.000742537 0)
(-0.0107107 0.000783819 0)
(-0.0124909 0.000778142 0)
(-0.0140458 0.000740703 0)
(-0.0153505 0.000682832 0)
(-0.0163937 0.000611875 0)
(-0.0171712 0.000532136 0)
(-0.0176823 0.000446056 0)
(-0.0179276 0.000355054 0)
(-0.0179089 0.000260101 0)
(-0.0176285 0.000162042 0)
(-0.01709 6.17877e-05 0)
(-0.0162983 -3.95922e-05 0)
(-0.0152604 -0.000140814 0)
(-0.0139858 -0.000240347 0)
(-0.0124867 -0.000336382 0)
(-0.0107792 -0.000426805 0)
(-0.00888364 -0.000509182 0)
(-0.00682548 -0.000580776 0)
(-0.00463635 -0.000638635 0)
(-0.0023548 -0.000679788 0)
(-2.69031e-05 -0.000701582 0)
(0.00229401 -0.000702154 0)
(0.00454887 -0.000680948 0)
(0.00667611 -0.000639139 0)
(0.00861682 -0.000579738 0)
(0.0103211 -0.000507298 0)
(0.0117543 -0.000427248 0)
(0.0129015 -0.000345102 0)
(0.0137686 -0.000265792 0)
(0.0143798 -0.000193282 0)
(0.0147724 -0.000130399 0)
(0.0149904 -7.87883e-05 0)
(0.0150784 -3.89382e-05 0)
(0.015077 -1.02899e-05 0)
(0.0150201 8.5285e-06 0)
(0.0149339 1.93761e-05 0)
(0.0148373 2.42583e-05 0)
(0.0147423 2.50492e-05 0)
(0.0146562 2.33189e-05 0)
(0.0145823 2.02658e-05 0)
(0.0145215 1.67275e-05 0)
(0.0144732 1.3236e-05 0)
(0.0144359 1.00889e-05 0)
(0.014408 7.41994e-06 0)
(0.0143876 5.25766e-06 0)
(0.014373 3.56976e-06 0)
(0.014363 2.29424e-06 0)
(0.0143564 1.35926e-06 0)
(0.0143522 6.9476e-07 0)
(0.0143497 2.38422e-07 0)
(0.0143485 -6.20682e-08 0)
(0.0143481 -2.48814e-07 0)
(0.0143483 -3.54638e-07 0)
(0.0143488 -4.04468e-07 0)
(0.0143494 -4.16807e-07 0)
(0.0143501 -4.05111e-07 0)
(0.0143509 -3.78956e-07 0)
(0.0143516 -3.45013e-07 0)
(0.0143523 -3.07805e-07 0)
(0.0143529 -2.70299e-07 0)
(0.0143535 -2.34356e-07 0)
(0.014354 -2.01056e-07 0)
(0.0143544 -1.70949e-07 0)
(0.0143548 -1.44228e-07 0)
(0.0143551 -1.20856e-07 0)
(0.0143554 -1.00653e-07 0)
(0.0143556 -8.33632e-08 0)
(0.0143558 -6.86908e-08 0)
(0.0143559 -5.63313e-08 0)
(0.014356 -4.59879e-08 0)
(0.0143561 -3.73826e-08 0)
(0.0143562 -3.02617e-08 0)
(0.0143563 -2.43983e-08 0)
(0.0143563 -1.95929e-08 0)
(0.0143564 -1.56717e-08 0)
(0.0143564 -1.24856e-08 0)
(0.0143565 -9.9073e-09 0)
(0.0143565 -7.82906e-09 0)
(0.0143565 -6.16047e-09 0)
(0.0143565 -4.82599e-09 0)
(0.0143565 -3.76288e-09 0)
(0.0143565 -2.91933e-09 0)
(0.0143565 -2.2527e-09 0)
(0.0143565 -1.72809e-09 0)
(0.0143566 -1.31705e-09 0)
(0.0143566 -9.96468e-10 0)
(0.0143566 -7.47673e-10 0)
(0.0143566 -5.55607e-10 0)
(0.0143566 -4.08189e-10 0)
(0.0143566 -2.95762e-10 0)
(0.0143566 -2.10632e-10 0)
(0.0143566 -1.46697e-10 0)
(0.0143566 -9.91284e-11 0)
(0.0143566 -6.41283e-11 0)
(0.0143566 -3.87157e-11 0)
(0.0143566 -2.05694e-11 0)
(0.0143566 -7.88402e-12 0)
(0.0143566 7.32115e-13 0)
(0.0143566 6.34915e-12 0)
(0.0143566 9.78493e-12 0)
(0.0143566 1.16543e-11 0)
(0.0143566 1.24254e-11 0)
(0.0143566 1.24467e-11 0)
(0.0143566 1.19789e-11 0)
(0.0143566 1.12143e-11 0)
(0.0143566 1.02835e-11 0)
(0.0143566 9.27966e-12 0)
(0.0143566 8.26123e-12 0)
(0.0143566 7.27277e-12 0)
(0.0143566 6.34427e-12 0)
(0.0143566 5.49041e-12 0)
(0.0143566 4.72333e-12 0)
(0.0143566 4.04017e-12 0)
(0.0143566 3.43789e-12 0)
(0.0143566 2.90938e-12 0)
(0.0143566 2.44901e-12 0)
(0.0143566 2.05251e-12 0)
(0.0143566 1.712e-12 0)
(0.0143566 1.423e-12 0)
(0.0143566 1.1784e-12 0)
(0.0143566 9.71553e-13 0)
(0.0143566 8.0081e-13 0)
(0.0143566 6.59366e-13 0)
(0.0143566 5.44179e-13 0)
(0.0143566 4.47932e-13 0)
(0.0143566 3.64494e-13 0)
(0.0143566 2.93401e-13 0)
(0.0143566 2.3231e-13 0)
(0.0143566 1.83797e-13 0)
(0.0143566 1.45817e-13 0)
(0.0143566 1.15253e-13 0)
(0.0143566 9.18798e-14 0)
(0.0143566 7.14234e-14 0)
(0.0143566 5.64417e-14 0)
(0.0143566 4.56545e-14 0)
(0.0143566 3.67795e-14 0)
(0.0143566 3.07672e-14 0)
(0.0143566 2.39589e-14 0)
(0.0143566 1.8809e-14 0)
(0.0143566 1.40373e-14 0)
(0.0143566 1.09023e-14 0)
(0.0143566 1.0186e-14 0)
(0.0143566 9.54156e-15 0)
(0.0143566 1.04654e-14 0)
(0.0143566 1.04489e-14 0)
(0.0143566 7.90524e-15 0)
(0.0143566 3.81588e-15 0)
(0.0143566 -1.45134e-15 0)
(0.0143566 -5.53909e-15 0)
(0.0143566 -7.44478e-15 0)
(0.0143566 -8.14608e-15 0)
(0.0143566 -8.77261e-15 0)
(0.0143566 -8.75458e-15 0)
(0.0143566 -7.18792e-15 0)
(0.0143566 -3.10231e-15 0)
(0.0143566 1.63795e-15 0)
(0.0143566 5.65024e-15 0)
(0.0143566 8.36963e-15 0)
(0.0143566 8.50126e-15 0)
(0.0143566 7.42713e-15 0)
(0.0143566 3.64719e-15 0)
(0.0143566 -9.68481e-16 0)
(0.0143566 -5.75418e-15 0)
(0.0143566 -7.47425e-15 0)
(0.0143566 -5.51983e-15 0)
(0.0143566 -2.05841e-15 0)
(0.0143566 2.10928e-15 0)
(0.0143566 5.63416e-15 0)
(0.0143566 8.00326e-15 0)
(0.0143566 9.45919e-15 0)
(0.0143566 8.41e-15 0)
(0.0143566 6.00775e-15 0)
(0.0143566 3.27647e-15 0)
(0.0143566 2.16732e-16 0)
(0.0143566 -4.34977e-16 0)
(0.0143566 9.8136e-16 0)
(0.0143566 5.04465e-15 0)
(0.0143566 1.27315e-14 0)
(0.0143566 2.37794e-14 0)
(0.0143566 3.93834e-14 0)
(0.0143566 5.8049e-14 0)
(0.0143566 8.19285e-14 0)
(0.0143566 1.10484e-13 0)
(0.0143566 1.40144e-13 0)
(0.0143566 1.80435e-13 0)
(0.0143566 1.71866e-13 0)
(0.0143566 2.04303e-13 0)
(0.0143566 -5.20179e-14 0)
(0.0143566 -3.94715e-13 0)
(0.0143566 -9.73714e-13 0)
(0.0143566 -6.29695e-12 0)
(0.0143566 -3.96782e-12 0)
(-0.000216001 -8.94917e-05 0)
(-0.00197432 0.000849693 0)
(-0.00473038 0.00177971 0)
(-0.00792566 0.00260595 0)
(-0.0113014 0.00319677 0)
(-0.014515 0.00347458 0)
(-0.0173803 0.00347086 0)
(-0.0198018 0.00326302 0)
(-0.0217583 0.00292853 0)
(-0.0232581 0.00252332 0)
(-0.0243219 0.00208343 0)
(-0.0249721 0.001629 0)
(-0.0252295 0.00117024 0)
(-0.0251118 0.000711581 0)
(-0.0246339 0.000254663 0)
(-0.0238084 -0.000199889 0)
(-0.0226469 -0.000651446 0)
(-0.0211602 -0.00109885 0)
(-0.0193596 -0.00154017 0)
(-0.0172572 -0.0019726 0)
(-0.0148664 -0.00239243 0)
(-0.0122027 -0.00279493 0)
(-0.0092837 -0.00317426 0)
(-0.00612997 -0.00352329 0)
(-0.00276569 -0.00383335 0)
(0.000780401 -0.00409403 0)
(0.00447364 -0.00429307 0)
(0.00827181 -0.00441665 0)
(0.0121232 -0.00445018 0)
(0.015965 -0.00438021 0)
(0.0197225 -0.00419722 0)
(0.0233102 -0.00389938 0)
(0.0266368 -0.00349598 0)
(0.0296133 -0.00300926 0)
(0.0321645 -0.00247293 0)
(0.034241 -0.00192713 0)
(0.035828 -0.0014111 0)
(0.0369485 -0.000956104 0)
(0.0376579 -0.000581207 0)
(0.0380337 -0.00029258 0)
(0.0381611 -8.58625e-05 0)
(0.0381216 5.01183e-05 0)
(0.0379834 0.000129667 0)
(0.0377985 0.000167384 0)
(0.0376024 0.000176376 0)
(0.0374169 0.000167378 0)
(0.0372532 0.000148531 0)
(0.0371157 0.000125564 0)
(0.0370042 0.000102196 0)
(0.0369164 8.05968e-05 0)
(0.0368488 6.18341e-05 0)
(0.0367978 4.62481e-05 0)
(0.0367601 3.37416e-05 0)
(0.0367326 2.39864e-05 0)
(0.036713 1.65604e-05 0)
(0.0366992 1.10309e-05 0)
(0.0366898 6.99978e-06 0)
(0.0366835 4.12387e-06 0)
(0.0366795 2.12039e-06 0)
(0.0366771 7.63622e-07 0)
(0.0366759 -1.22125e-07 0)
(0.0366753 -6.70861e-07 0)
(0.0366753 -9.83077e-07 0)
(0.0366756 -1.13299e-06 0)
(0.036676 -1.17465e-06 0)
(0.0366765 -1.14683e-06 0)
(0.0366771 -1.07694e-06 0)
(0.0366777 -9.84001e-07 0)
(0.0366782 -8.80925e-07 0)
(0.0366787 -7.76226e-07 0)
(0.0366792 -6.75288e-07 0)
(0.0366796 -5.81299e-07 0)
(0.0366799 -4.95931e-07 0)
(0.0366802 -4.19841e-07 0)
(0.0366805 -3.53017e-07 0)
(0.0366807 -2.95033e-07 0)
(0.0366809 -2.45221e-07 0)
(0.0366811 -2.02794e-07 0)
(0.0366812 -1.66925e-07 0)
(0.0366813 -1.36798e-07 0)
(0.0366814 -1.11643e-07 0)
(0.0366815 -9.0751e-08 0)
(0.0366815 -7.3485e-08 0)
(0.0366816 -5.92806e-08 0)
(0.0366816 -4.76453e-08 0)
(0.0366816 -3.81532e-08 0)
(0.0366817 -3.04398e-08 0)
(0.0366817 -2.41956e-08 0)
(0.0366817 -1.91593e-08 0)
(0.0366817 -1.51122e-08 0)
(0.0366817 -1.18717e-08 0)
(0.0366817 -9.28638e-09 0)
(0.0366817 -7.23143e-09 0)
(0.0366818 -5.60411e-09 0)
(0.0366818 -4.3204e-09 0)
(0.0366818 -3.31179e-09 0)
(0.0366818 -2.52264e-09 0)
(0.0366818 -1.90795e-09 0)
(0.0366818 -1.43141e-09 0)
(0.0366818 -1.06386e-09 0)
(0.0366818 -7.81967e-10 0)
(0.0366818 -5.67098e-10 0)
(0.0366818 -4.0445e-10 0)
(0.0366818 -2.82297e-10 0)
(0.0366818 -1.91397e-10 0)
(0.0366818 -1.24479e-10 0)
(0.0366818 -7.58586e-11 0)
(0.0366818 -4.10998e-11 0)
(0.0366818 -1.67606e-11 0)
(0.0366818 -1.84367e-13 0)
(0.0366818 1.06728e-11 0)
(0.0366818 1.73701e-11 0)
(0.0366818 2.10927e-11 0)
(0.0366818 2.27256e-11 0)
(0.0366818 2.29208e-11 0)
(0.0366818 2.21629e-11 0)
(0.0366818 2.08079e-11 0)
(0.0366818 1.91202e-11 0)
(0.0366818 1.72842e-11 0)
(0.0366818 1.54189e-11 0)
(0.0366818 1.36017e-11 0)
(0.0366818 1.18833e-11 0)
(0.0366818 1.02921e-11 0)
(0.0366818 8.84839e-12 0)
(0.0366818 7.55896e-12 0)
(0.0366818 6.42338e-12 0)
(0.0366818 5.43298e-12 0)
(0.0366818 4.57746e-12 0)
(0.0366818 3.8421e-12 0)
(0.0366818 3.21419e-12 0)
(0.0366818 2.68083e-12 0)
(0.0366818 2.22675e-12 0)
(0.0366818 1.84033e-12 0)
(0.0366818 1.51014e-12 0)
(0.0366818 1.2293e-12 0)
(0.0366818 9.94398e-13 0)
(0.0366818 8.03395e-13 0)
(0.0366818 6.51493e-13 0)
(0.0366818 5.31413e-13 0)
(0.0366818 4.34628e-13 0)
(0.0366818 3.55503e-13 0)
(0.0366818 2.91767e-13 0)
(0.0366818 2.42167e-13 0)
(0.0366818 2.02874e-13 0)
(0.0366818 1.70257e-13 0)
(0.0366818 1.41188e-13 0)
(0.0366818 1.13368e-13 0)
(0.0366818 8.91874e-14 0)
(0.0366818 6.68373e-14 0)
(0.0366818 4.88108e-14 0)
(0.0366818 3.59194e-14 0)
(0.0366818 2.49963e-14 0)
(0.0366818 1.42244e-14 0)
(0.0366818 1.11134e-15 0)
(0.0366818 -1.08233e-14 0)
(0.0366818 -2.06991e-14 0)
(0.0366818 -2.67373e-14 0)
(0.0366818 -2.83074e-14 0)
(0.0366818 -2.65448e-14 0)
(0.0366818 -2.31046e-14 0)
(0.0366818 -1.96625e-14 0)
(0.0366818 -1.47011e-14 0)
(0.0366818 -7.8908e-15 0)
(0.0366818 1.44698e-15 0)
(0.0366818 1.06912e-14 0)
(0.0366818 1.69659e-14 0)
(0.0366818 1.85573e-14 0)
(0.0366818 1.59982e-14 0)
(0.0366818 8.38854e-15 0)
(0.0366818 -8.20219e-16 0)
(0.0366818 -9.05296e-15 0)
(0.0366818 -1.37413e-14 0)
(0.0366818 -1.15979e-14 0)
(0.0366818 -5.30427e-15 0)
(0.0366818 3.88832e-15 0)
(0.0366818 1.55936e-14 0)
(0.0366818 2.56826e-14 0)
(0.0366818 3.36395e-14 0)
(0.0366818 3.69473e-14 0)
(0.0366818 3.64277e-14 0)
(0.0366818 3.41405e-14 0)
(0.0366818 3.11426e-14 0)
(0.0366818 3.27049e-14 0)
(0.0366818 3.84543e-14 0)
(0.0366818 5.31183e-14 0)
(0.0366818 8.12734e-14 0)
(0.0366818 1.2416e-13 0)
(0.0366818 1.82832e-13 0)
(0.0366818 2.61262e-13 0)
(0.0366818 3.63142e-13 0)
(0.0366818 4.94571e-13 0)
(0.0366818 6.59597e-13 0)
(0.0366818 8.75788e-13 0)
(0.0366818 1.07929e-12 0)
(0.0366818 1.44962e-12 0)
(0.0366818 1.3723e-12 0)
(0.0366818 1.55809e-12 0)
(0.0366818 1.35018e-12 0)
(0.0366818 -6.18655e-12 0)
(0.0366818 -4.43885e-12 0)
(-0.000508945 0.00168685 0)
(-0.00338275 0.00407419 0)
(-0.00706653 0.00549824 0)
(-0.0105484 0.00624288 0)
(-0.0135939 0.00645112 0)
(-0.0160507 0.00619024 0)
(-0.0179466 0.00563386 0)
(-0.0193338 0.00490865 0)
(-0.0202745 0.00410456 0)
(-0.0208163 0.00327071 0)
(-0.0209944 0.00243376 0)
(-0.020833 0.0016053 0)
(-0.0203487 0.000788977 0)
(-0.0195531 -1.53136e-05 0)
(-0.0184555 -0.000808884 0)
(-0.0170641 -0.00159274 0)
(-0.0153874 -0.0023669 0)
(-0.0134349 -0.00313004 0)
(-0.0112177 -0.00387951 0)
(-0.00874853 -0.00461131 0)
(-0.00604206 -0.0053202 0)
(-0.00311502 -0.00599962 0)
(1.40228e-05 -0.00664162 0)
(0.00332465 -0.00723654 0)
(0.00679469 -0.00777256 0)
(0.0104002 -0.00823505 0)
(0.0141151 -0.00860591 0)
(0.0179107 -0.00886304 0)
(0.0217542 -0.00898058 0)
(0.0256067 -0.00893045 0)
(0.0294216 -0.00868605 0)
(0.0331416 -0.0082284 0)
(0.0366982 -0.00755395 0)
(0.0400136 -0.0066819 0)
(0.0430058 -0.00565791 0)
(0.045599 -0.00455097 0)
(0.0477359 -0.00344301 0)
(0.0493896 -0.00241378 0)
(0.0505704 -0.00152623 0)
(0.0513252 -0.000816921 0)
(0.0517279 -0.000294239 0)
(0.0518658 5.67604e-05 0)
(0.0518252 0.000265608 0)
(0.0516799 0.000367342 0)
(0.0514864 0.000395513 0)
(0.0512828 0.000378144 0)
(0.0510918 0.000336325 0)
(0.0509248 0.00028455 0)
(0.0507853 0.000231903 0)
(0.0506728 0.000183464 0)
(0.0505843 0.000141589 0)
(0.0505159 0.000106925 0)
(0.0504641 7.91473e-05 0)
(0.0504252 5.74516e-05 0)
(0.0503964 4.08617e-05 0)
(0.0503754 2.84072e-05 0)
(0.0503601 1.92127e-05 0)
(0.0503493 1.25342e-05 0)
(0.0503416 7.7635e-06 0)
(0.0503363 4.41799e-06 0)
(0.0503328 2.12258e-06 0)
(0.0503304 5.90813e-07 0)
(0.050329 -3.93103e-07 0)
(0.0503282 -9.89766e-07 0)
(0.0503278 -1.31742e-06 0)
(0.0503276 -1.46223e-06 0)
(0.0503277 -1.4863e-06 0)
(0.0503279 -1.43386e-06 0)
(0.0503281 -1.33597e-06 0)
(0.0503284 -1.21411e-06 0)
(0.0503286 -1.08274e-06 0)
(0.0503289 -9.51365e-07 0)
(0.0503292 -8.25905e-07 0)
(0.0503294 -7.09813e-07 0)
(0.0503296 -6.04831e-07 0)
(0.0503298 -5.11551e-07 0)
(0.0503299 -4.2982e-07 0)
(0.05033 -3.59024e-07 0)
(0.0503302 -2.98287e-07 0)
(0.0503303 -2.46609e-07 0)
(0.0503303 -2.02952e-07 0)
(0.0503304 -1.66308e-07 0)
(0.0503305 -1.35725e-07 0)
(0.0503305 -1.10334e-07 0)
(0.0503305 -8.93543e-08 0)
(0.0503306 -7.20978e-08 0)
(0.0503306 -5.79633e-08 0)
(0.0503306 -4.64323e-08 0)
(0.0503306 -3.70614e-08 0)
(0.0503307 -2.94742e-08 0)
(0.0503307 -2.33536e-08 0)
(0.0503307 -1.84335e-08 0)
(0.0503307 -1.44926e-08 0)
(0.0503307 -1.13472e-08 0)
(0.0503307 -8.84577e-09 0)
(0.0503307 -6.86366e-09 0)
(0.0503307 -5.29898e-09 0)
(0.0503307 -4.06864e-09 0)
(0.0503307 -3.10513e-09 0)
(0.0503307 -2.35383e-09 0)
(0.0503307 -1.77068e-09 0)
(0.0503307 -1.32027e-09 0)
(0.0503307 -9.74246e-10 0)
(0.0503307 -7.09993e-10 0)
(0.0503307 -5.09523e-10 0)
(0.0503307 -3.58585e-10 0)
(0.0503307 -2.45926e-10 0)
(0.0503307 -1.62691e-10 0)
(0.0503307 -1.01935e-10 0)
(0.0503307 -5.82386e-11 0)
(0.0503307 -2.73887e-11 0)
(0.0503307 -6.13374e-12 0)
(0.0503307 8.02157e-12 0)
(0.0503307 1.69821e-11 0)
(0.0503307 2.21937e-11 0)
(0.0503307 2.47511e-11 0)
(0.0503307 2.54748e-11 0)
(0.0503307 2.49731e-11 0)
(0.0503307 2.3689e-11 0)
(0.0503307 2.19379e-11 0)
(0.0503307 1.99394e-11 0)
(0.0503307 1.78483e-11 0)
(0.0503307 1.57771e-11 0)
(0.0503307 1.38017e-11 0)
(0.0503307 1.19724e-11 0)
(0.0503307 1.03159e-11 0)
(0.0503307 8.8397e-12 0)
(0.0503307 7.53949e-12 0)
(0.0503307 6.40285e-12 0)
(0.0503307 5.41492e-12 0)
(0.0503307 4.55869e-12 0)
(0.0503307 3.81277e-12 0)
(0.0503307 3.16341e-12 0)
(0.0503307 2.59966e-12 0)
(0.0503307 2.11848e-12 0)
(0.0503307 1.71901e-12 0)
(0.0503307 1.39357e-12 0)
(0.0503307 1.13259e-12 0)
(0.0503307 9.23645e-13 0)
(0.0503307 7.56833e-13 0)
(0.0503307 6.25694e-13 0)
(0.0503307 5.22271e-13 0)
(0.0503307 4.40876e-13 0)
(0.0503307 3.75946e-13 0)
(0.0503307 3.21118e-13 0)
(0.0503307 2.73078e-13 0)
(0.0503307 2.29047e-13 0)
(0.0503307 1.88878e-13 0)
(0.0503307 1.53383e-13 0)
(0.0503307 1.21234e-13 0)
(0.0503307 9.0576e-14 0)
(0.0503307 6.01983e-14 0)
(0.0503307 2.84333e-14 0)
(0.0503307 -2.04581e-15 0)
(0.0503307 -3.01171e-14 0)
(0.0503307 -5.10589e-14 0)
(0.0503307 -6.47036e-14 0)
(0.0503307 -7.18195e-14 0)
(0.0503307 -7.15701e-14 0)
(0.0503307 -6.56662e-14 0)
(0.0503307 -5.41567e-14 0)
(0.0503307 -4.02986e-14 0)
(0.0503307 -2.42614e-14 0)
(0.0503307 -7.45813e-15 0)
(0.0503307 9.00879e-15 0)
(0.0503307 2.11301e-14 0)
(0.0503307 2.58115e-14 0)
(0.0503307 2.22267e-14 0)
(0.0503307 1.51522e-14 0)
(0.0503307 5.89611e-15 0)
(0.0503307 -1.34364e-15 0)
(0.0503307 -6.73705e-15 0)
(0.0503307 -9.27128e-15 0)
(0.0503307 -6.43417e-15 0)
(0.0503307 9.86163e-17 0)
(0.0503307 1.1583e-14 0)
(0.0503307 2.52205e-14 0)
(0.0503307 3.87575e-14 0)
(0.0503307 5.2444e-14 0)
(0.0503307 6.29273e-14 0)
(0.0503307 7.10916e-14 0)
(0.0503307 7.60773e-14 0)
(0.0503307 7.99632e-14 0)
(0.0503307 8.91892e-14 0)
(0.0503307 1.07696e-13 0)
(0.0503307 1.43439e-13 0)
(0.0503307 2.0039e-13 0)
(0.0503307 2.8358e-13 0)
(0.0503307 3.99852e-13 0)
(0.0503307 5.54981e-13 0)
(0.0503307 7.60438e-13 0)
(0.0503307 1.03478e-12 0)
(0.0503307 1.38789e-12 0)
(0.0503307 1.85483e-12 0)
(0.0503307 2.49028e-12 0)
(0.0503307 3.05253e-12 0)
(0.0503307 4.43092e-12 0)
(0.0503307 4.42065e-12 0)
(0.0503307 5.27208e-12 0)
(0.0503307 7.22237e-12 0)
(-0.000476549 0.00344541 0)
(-0.00305021 0.00707581 0)
(-0.00604008 0.00854107 0)
(-0.00844603 0.00881607 0)
(-0.0101886 0.00848511 0)
(-0.0113321 0.00772713 0)
(-0.0120017 0.0067528 0)
(-0.0122917 0.00567033 0)
(-0.0122664 0.0045504 0)
(-0.0119629 0.00342491 0)
(-0.0114008 0.00230906 0)
(-0.0105879 0.00120711 0)
(-0.0095261 0.000118817 0)
(-0.00821526 -0.00095746 0)
(-0.00665559 -0.00202284 0)
(-0.00484943 -0.00307696 0)
(-0.0028022 -0.00411768 0)
(-0.000522918 -0.00514105 0)
(0.0019756 -0.0061415 0)
(0.0046767 -0.00711201 0)
(0.00755995 -0.00804436 0)
(0.0106013 -0.00892925 0)
(0.0137732 -0.00975635 0)
(0.0170453 -0.0105142 0)
(0.0203843 -0.0111899 0)
(0.0237551 -0.0117685 0)
(0.0271214 -0.0122324 0)
(0.0304469 -0.0125599 0)
(0.0336963 -0.0127249 0)
(0.0368373 -0.0126969 0)
(0.0398416 -0.012443 0)
(0.0426866 -0.0119328 0)
(0.0453545 -0.0111472 0)
(0.0478305 -0.0100888 0)
(0.0500983 -0.00879173 0)
(0.0521354 -0.00732441 0)
(0.0539125 -0.00578344 0)
(0.0553979 -0.00427784 0)
(0.0565681 -0.00290905 0)
(0.0574184 -0.00175302 0)
(0.0579689 -0.000849631 0)
(0.0582632 -0.000201792 0)
(0.0583594 0.000217107 0)
(0.0583188 0.000451232 0)
(0.0581965 0.000550153 0)
(0.0580355 0.000559697 0)
(0.0578657 0.000516941 0)
(0.0577052 0.000448814 0)
(0.0575633 0.000373027 0)
(0.0574434 0.000300038 0)
(0.0573452 0.000235174 0)
(0.0572666 0.000180453 0)
(0.0572048 0.00013595 0)
(0.0571569 0.000100735 0)
(0.0571202 7.34597e-05 0)
(0.0570923 5.27008e-05 0)
(0.0570712 3.71362e-05 0)
(0.0570555 2.5623e-05 0)
(0.0570439 1.72162e-05 0)
(0.0570354 1.11587e-05 0)
(0.0570292 6.85684e-06 0)
(0.0570247 3.85285e-06 0)
(0.0570215 1.79856e-06 0)
(0.0570193 4.31781e-07 0)
(0.0570178 -4.43066e-07 0)
(0.0570168 -9.70687e-07 0)
(0.0570162 -1.25727e-06 0)
(0.0570158 -1.38008e-06 0)
(0.0570156 -1.39482e-06 0)
(0.0570155 -1.34117e-06 0)
(0.0570155 -1.24706e-06 0)
(0.0570156 -1.13181e-06 0)
(0.0570157 -1.00844e-06 0)
(0.0570158 -8.85528e-07 0)
(0.0570159 -7.68404e-07 0)
(0.057016 -6.60173e-07 0)
(0.0570161 -5.62385e-07 0)
(0.0570162 -4.7555e-07 0)
(0.0570163 -3.99499e-07 0)
(0.0570163 -3.33644e-07 0)
(0.0570164 -2.77161e-07 0)
(0.0570164 -2.29112e-07 0)
(0.0570165 -1.88529e-07 0)
(0.0570165 -1.54469e-07 0)
(0.0570166 -1.26048e-07 0)
(0.0570166 -1.02455e-07 0)
(0.0570166 -8.29639e-08 0)
(0.0570166 -6.69336e-08 0)
(0.0570166 -5.38052e-08 0)
(0.0570167 -4.30962e-08 0)
(0.0570167 -3.43945e-08 0)
(0.0570167 -2.73499e-08 0)
(0.0570167 -2.16676e-08 0)
(0.0570167 -1.71005e-08 0)
(0.0570167 -1.34428e-08 0)
(0.0570167 -1.05237e-08 0)
(0.0570167 -8.20259e-09 0)
(0.0570167 -6.36361e-09 0)
(0.0570167 -4.91213e-09 0)
(0.0570167 -3.77094e-09 0)
(0.0570167 -2.87737e-09 0)
(0.0570167 -2.18068e-09 0)
(0.0570167 -1.63998e-09 0)
(0.0570167 -1.22243e-09 0)
(0.0570167 -9.01728e-10 0)
(0.0570167 -6.56875e-10 0)
(0.0570167 -4.71183e-10 0)
(0.0570167 -3.31415e-10 0)
(0.0570167 -2.27121e-10 0)
(0.0570167 -1.50082e-10 0)
(0.0570167 -9.38573e-11 0)
(0.0570167 -5.34307e-11 0)
(0.0570167 -2.49064e-11 0)
(0.0570167 -5.27385e-12 0)
(0.0570167 7.77927e-12 0)
(0.0570167 1.60294e-11 0)
(0.0570167 2.08205e-11 0)
(0.0570167 2.31652e-11 0)
(0.0570167 2.38141e-11 0)
(0.0570167 2.33204e-11 0)
(0.0570167 2.20866e-11 0)
(0.0570167 2.04126e-11 0)
(0.0570167 1.85169e-11 0)
(0.0570167 1.65566e-11 0)
(0.0570167 1.46349e-11 0)
(0.0570167 1.28164e-11 0)
(0.0570167 1.11405e-11 0)
(0.0570167 9.62184e-12 0)
(0.0570167 8.26422e-12 0)
(0.0570167 7.0577e-12 0)
(0.0570167 5.98767e-12 0)
(0.0570167 5.04213e-12 0)
(0.0570167 4.20918e-12 0)
(0.0570167 3.48421e-12 0)
(0.0570167 2.86341e-12 0)
(0.0570167 2.33946e-12 0)
(0.0570167 1.90618e-12 0)
(0.0570167 1.55218e-12 0)
(0.0570167 1.26592e-12 0)
(0.0570167 1.03535e-12 0)
(0.0570167 8.5017e-13 0)
(0.0570167 7.04268e-13 0)
(0.0570167 5.89448e-13 0)
(0.0570167 4.99352e-13 0)
(0.0570167 4.24992e-13 0)
(0.0570167 3.62295e-13 0)
(0.0570167 3.08402e-13 0)
(0.0570167 2.61557e-13 0)
(0.0570167 2.21648e-13 0)
(0.0570167 1.85363e-13 0)
(0.0570167 1.49743e-13 0)
(0.0570167 1.11829e-13 0)
(0.0570167 7.16033e-14 0)
(0.0570167 2.92506e-14 0)
(0.0570167 -1.01526e-14 0)
(0.0570167 -4.31549e-14 0)
(0.0570167 -7.031e-14 0)
(0.0570167 -8.99807e-14 0)
(0.0570167 -1.02609e-13 0)
(0.0570167 -1.07179e-13 0)
(0.0570167 -1.01736e-13 0)
(0.0570167 -8.85083e-14 0)
(0.0570167 -6.79801e-14 0)
(0.0570167 -4.3336e-14 0)
(0.0570167 -1.82645e-14 0)
(0.0570167 3.99766e-15 0)
(0.0570167 1.68594e-14 0)
(0.0570167 2.24939e-14 0)
(0.0570167 2.04866e-14 0)
(0.0570167 1.38781e-14 0)
(0.0570167 6.31852e-15 0)
(0.0570167 -2.38575e-15 0)
(0.0570167 -9.18888e-15 0)
(0.0570167 -1.17599e-14 0)
(0.0570167 -8.66153e-15 0)
(0.0570167 3.014e-16 0)
(0.0570167 1.39536e-14 0)
(0.0570167 3.23152e-14 0)
(0.0570167 5.27794e-14 0)
(0.0570167 7.16689e-14 0)
(0.0570167 8.61181e-14 0)
(0.0570167 9.53364e-14 0)
(0.0570167 1.02585e-13 0)
(0.0570167 1.12706e-13 0)
(0.0570167 1.31812e-13 0)
(0.0570167 1.67386e-13 0)
(0.0570167 2.25409e-13 0)
(0.0570167 3.14268e-13 0)
(0.0570167 4.42845e-13 0)
(0.0570167 6.20153e-13 0)
(0.0570167 8.61338e-13 0)
(0.0570167 1.18493e-12 0)
(0.0570167 1.62629e-12 0)
(0.0570167 2.23199e-12 0)
(0.0570167 3.04847e-12 0)
(0.0570167 4.2094e-12 0)
(0.0570167 5.9743e-12 0)
(0.0570167 7.29381e-12 0)
(0.0570167 1.46578e-11 0)
(0.0570167 1.61871e-11 0)
(-0.000193758 0.00497989 0)
(-0.00133462 0.0092732 0)
(-0.00273268 0.0105822 0)
(-0.00359002 0.0102233 0)
(-0.00387647 0.00935483 0)
(-0.0037185 0.00816986 0)
(-0.00323838 0.00687897 0)
(-0.00251747 0.00554165 0)
(-0.00159618 0.00420101 0)
(-0.000489368 0.00286776 0)
(0.000803132 0.00154488 0)
(0.0022896 0.000230069 0)
(0.00398004 -0.00107914 0)
(0.00588311 -0.00238381 0)
(0.00800365 -0.00368251 0)
(0.0103417 -0.00497126 0)
(0.0128919 -0.00624359 0)
(0.0156435 -0.00749092 0)
(0.0185806 -0.00870283 0)
(0.0216821 -0.00986739 0)
(0.0249218 -0.0109714 0)
(0.0282685 -0.0120006 0)
(0.0316858 -0.0129398 0)
(0.0351324 -0.0137728 0)
(0.0385614 -0.0144824 0)
(0.0419206 -0.0150501 0)
(0.0451529 -0.0154561 0)
(0.0481966 -0.0156788 0)
(0.0509874 -0.0156954 0)
(0.0534621 -0.0154836 0)
(0.0555649 -0.0150238 0)
(0.0572574 -0.0143031 0)
(0.0585305 -0.0133185 0)
(0.0594154 -0.0120809 0)
(0.0599841 -0.0106188 0)
(0.0603358 -0.00898359 0)
(0.0605688 -0.00725274 0)
(0.0607527 -0.0055248 0)
(0.0609153 -0.00390537 0)
(0.0610495 -0.00248753 0)
(0.0611342 -0.0013343 0)
(0.0611532 -0.000469615 0)
(0.0611047 0.0001199 0)
(0.0610004 0.000474728 0)
(0.0608593 0.000648701 0)
(0.0607013 0.000696595 0)
(0.0605425 0.000665865 0)
(0.0603941 0.000592957 0)
(0.0602622 0.000503101 0)
(0.0601494 0.000412049 0)
(0.0600554 0.000328481 0)
(0.0599789 0.000256297 0)
(0.0599175 0.000196463 0)
(0.0598689 0.000148318 0)
(0.0598308 0.000110438 0)
(0.0598012 8.11567e-05 0)
(0.0597784 5.88458e-05 0)
(0.059761 4.20552e-05 0)
(0.0597478 2.95597e-05 0)
(0.0597378 2.03594e-05 0)
(0.0597303 1.36592e-05 0)
(0.0597247 8.83693e-06 0)
(0.0597206 5.41308e-06 0)
(0.0597176 3.02155e-06 0)
(0.0597154 1.38534e-06 0)
(0.0597138 2.96437e-07 0)
(0.0597127 -4.00277e-07 0)
(0.059712 -8.1969e-07 0)
(0.0597115 -1.04627e-06 0)
(0.0597111 -1.14165e-06 0)
(0.0597109 -1.15034e-06 0)
(0.0597108 -1.10418e-06 0)
(0.0597108 -1.02559e-06 0)
(0.0597108 -9.30138e-07 0)
(0.0597108 -8.28338e-07 0)
(0.0597108 -7.27097e-07 0)
(0.0597109 -6.30734e-07 0)
(0.0597109 -5.4175e-07 0)
(0.059711 -4.61394e-07 0)
(0.059711 -3.90065e-07 0)
(0.059711 -3.27613e-07 0)
(0.0597111 -2.73549e-07 0)
(0.0597111 -2.27189e-07 0)
(0.0597111 -1.87761e-07 0)
(0.0597112 -1.54467e-07 0)
(0.0597112 -1.26531e-07 0)
(0.0597112 -1.03225e-07 0)
(0.0597112 -8.38824e-08 0)
(0.0597112 -6.79065e-08 0)
(0.0597112 -5.47703e-08 0)
(0.0597113 -4.40147e-08 0)
(0.0597113 -3.52434e-08 0)
(0.0597113 -2.8118e-08 0)
(0.0597113 -2.23511e-08 0)
(0.0597113 -1.77008e-08 0)
(0.0597113 -1.39642e-08 0)
(0.0597113 -1.09726e-08 0)
(0.0597113 -8.58591e-09 0)
(0.0597113 -6.68875e-09 0)
(0.0597113 -5.18623e-09 0)
(0.0597113 -4.00075e-09 0)
(0.0597113 -3.06909e-09 0)
(0.0597113 -2.33991e-09 0)
(0.0597113 -1.7717e-09 0)
(0.0597113 -1.33098e-09 0)
(0.0597113 -9.90868e-10 0)
(0.0597113 -7.29834e-10 0)
(0.0597113 -5.30697e-10 0)
(0.0597113 -3.79804e-10 0)
(0.0597113 -2.66341e-10 0)
(0.0597113 -1.81774e-10 0)
(0.0597113 -1.19395e-10 0)
(0.0597113 -7.39537e-11 0)
(0.0597113 -4.13559e-11 0)
(0.0597113 -1.84201e-11 0)
(0.0597113 -2.68897e-12 0)
(0.0597113 7.7234e-12 0)
(0.0597113 1.42512e-11 0)
(0.0597113 1.79785e-11 0)
(0.0597113 1.97202e-11 0)
(0.0597113 2.00917e-11 0)
(0.0597113 1.95522e-11 0)
(0.0597113 1.84407e-11 0)
(0.0597113 1.70025e-11 0)
(0.0597113 1.54104e-11 0)
(0.0597113 1.37816e-11 0)
(0.0597113 1.21902e-11 0)
(0.0597113 1.06829e-11 0)
(0.0597113 9.28463e-12 0)
(0.0597113 8.0069e-12 0)
(0.0597113 6.85168e-12 0)
(0.0597113 5.81528e-12 0)
(0.0597113 4.89531e-12 0)
(0.0597113 4.08807e-12 0)
(0.0597113 3.39153e-12 0)
(0.0597113 2.79932e-12 0)
(0.0597113 2.30012e-12 0)
(0.0597113 1.88245e-12 0)
(0.0597113 1.53588e-12 0)
(0.0597113 1.25084e-12 0)
(0.0597113 1.02064e-12 0)
(0.0597113 8.36135e-13 0)
(0.0597113 6.89668e-13 0)
(0.0597113 5.72765e-13 0)
(0.0597113 4.7903e-13 0)
(0.0597113 4.03985e-13 0)
(0.0597113 3.44771e-13 0)
(0.0597113 2.97505e-13 0)
(0.0597113 2.59725e-13 0)
(0.0597113 2.25812e-13 0)
(0.0597113 1.90803e-13 0)
(0.0597113 1.52653e-13 0)
(0.0597113 1.11188e-13 0)
(0.0597113 6.8488e-14 0)
(0.0597113 2.72469e-14 0)
(0.0597113 -1.17762e-14 0)
(0.0597113 -4.72282e-14 0)
(0.0597113 -7.71695e-14 0)
(0.0597113 -1.01669e-13 0)
(0.0597113 -1.18637e-13 0)
(0.0597113 -1.25638e-13 0)
(0.0597113 -1.21425e-13 0)
(0.0597113 -1.05526e-13 0)
(0.0597113 -8.26636e-14 0)
(0.0597113 -5.78942e-14 0)
(0.0597113 -3.52892e-14 0)
(0.0597113 -1.77435e-14 0)
(0.0597113 -5.41208e-15 0)
(0.0597113 1.07915e-15 0)
(0.0597113 2.50815e-15 0)
(0.0597113 -3.30363e-16 0)
(0.0597113 -5.6054e-15 0)
(0.0597113 -9.83434e-15 0)
(0.0597113 -1.27195e-14 0)
(0.0597113 -1.1305e-14 0)
(0.0597113 -4.08176e-15 0)
(0.0597113 1.01319e-14 0)
(0.0597113 2.98818e-14 0)
(0.0597113 5.16107e-14 0)
(0.0597113 7.21151e-14 0)
(0.0597113 8.73819e-14 0)
(0.0597113 9.70002e-14 0)
(0.0597113 1.03357e-13 0)
(0.0597113 1.0999e-13 0)
(0.0597113 1.25175e-13 0)
(0.0597113 1.54252e-13 0)
(0.0597113 2.04858e-13 0)
(0.0597113 2.87081e-13 0)
(0.0597113 4.06768e-13 0)
(0.0597113 5.7714e-13 0)
(0.0597113 8.12207e-13 0)
(0.0597113 1.13796e-12 0)
(0.0597113 1.59693e-12 0)
(0.0597113 2.23368e-12 0)
(0.0597113 3.16219e-12 0)
(0.0597113 4.48543e-12 0)
(0.0597113 6.46181e-12 0)
(0.0597113 8.898e-12 0)
(0.0597113 1.70985e-11 0)
(0.0597113 1.83594e-11 0)
(-0.000273659 0.00467319 0)
(-0.000134921 0.00927171 0)
(0.000755678 0.0106201 0)
(0.0017872 0.00999987 0)
(0.00324241 0.00885289 0)
(0.0048185 0.00746281 0)
(0.00652837 0.00601799 0)
(0.00831689 0.00455436 0)
(0.0101958 0.00308901 0)
(0.0121779 0.00162089 0)
(0.0142853 0.000146045 0)
(0.0165391 -0.00133909 0)
(0.0189566 -0.00283512 0)
(0.0215496 -0.00433914 0)
(0.0243236 -0.0058447 0)
(0.0272772 -0.00734227 0)
(0.0304031 -0.00881984 0)
(0.0336879 -0.0102633 0)
(0.0371129 -0.0116569 0)
(0.040654 -0.0129834 0)
(0.0442819 -0.0142239 0)
(0.0479617 -0.0153586 0)
(0.0516524 -0.0163661 0)
(0.0553067 -0.0172236 0)
(0.05887 -0.0179071 0)
(0.0622801 -0.0183907 0)
(0.0654666 -0.018647 0)
(0.0683509 -0.0186475 0)
(0.0708475 -0.0183635 0)
(0.0728666 -0.01777 0)
(0.0743188 -0.0168516 0)
(0.0751251 -0.015613 0)
(0.0752319 -0.0140903 0)
(0.074635 -0.0123561 0)
(0.0734073 -0.0105081 0)
(0.0717145 -0.00864386 0)
(0.0697961 -0.00683783 0)
(0.0679071 -0.00514065 0)
(0.0662448 -0.00359452 0)
(0.0649043 -0.00224438 0)
(0.063886 -0.00113274 0)
(0.0631345 -0.00028496 0)
(0.0625805 0.000301429 0)
(0.0621648 0.000656139 0)
(0.0618451 0.000826473 0)
(0.061594 0.000865015 0)
(0.0613943 0.000819843 0)
(0.0612343 0.000729246 0)
(0.0611061 0.000620443 0)
(0.0610034 0.000510783 0)
(0.0609215 0.000410005 0)
(0.0608564 0.000322582 0)
(0.0608048 0.000249675 0)
(0.0607642 0.000190583 0)
(0.0607322 0.000143705 0)
(0.0607073 0.000107134 0)
(0.0606879 7.89863e-05 0)
(0.0606729 5.75666e-05 0)
(0.0606613 4.14293e-05 0)
(0.0606524 2.93846e-05 0)
(0.0606457 2.04768e-05 0)
(0.0606406 1.39517e-05 0)
(0.0606368 9.22191e-06 0)
(0.0606339 5.83463e-06 0)
(0.0606318 3.4437e-06 0)
(0.0606302 1.7863e-06 0)
(0.0606291 6.64238e-07 0)
(0.0606283 -7.11003e-08 0)
(0.0606277 -5.30408e-07 0)
(0.0606273 -7.95599e-07 0)
(0.0606271 -9.26835e-07 0)
(0.0606269 -9.67926e-07 0)
(0.0606268 -9.50447e-07 0)
(0.0606267 -8.96877e-07 0)
(0.0606267 -8.22974e-07 0)
(0.0606267 -7.39565e-07 0)
(0.0606267 -6.53892e-07 0)
(0.0606267 -5.70618e-07 0)
(0.0606267 -4.92575e-07 0)
(0.0606268 -4.21315e-07 0)
(0.0606268 -3.57513e-07 0)
(0.0606268 -3.01265e-07 0)
(0.0606268 -2.52291e-07 0)
(0.0606268 -2.10094e-07 0)
(0.0606269 -1.74057e-07 0)
(0.0606269 -1.43517e-07 0)
(0.0606269 -1.17809e-07 0)
(0.0606269 -9.63008e-08 0)
(0.0606269 -7.84037e-08 0)
(0.0606269 -6.35863e-08 0)
(0.0606269 -5.13759e-08 0)
(0.0606269 -4.13576e-08 0)
(0.0606269 -3.31718e-08 0)
(0.0606269 -2.65097e-08 0)
(0.0606269 -2.11081e-08 0)
(0.0606269 -1.67449e-08 0)
(0.0606269 -1.32331e-08 0)
(0.0606269 -1.04167e-08 0)
(0.0606269 -8.16617e-09 0)
(0.0606269 -6.37421e-09 0)
(0.0606269 -4.95262e-09 0)
(0.0606269 -3.82907e-09 0)
(0.0606269 -2.94454e-09 0)
(0.0606269 -2.25099e-09 0)
(0.0606269 -1.70951e-09 0)
(0.0606269 -1.28867e-09 0)