/*--------------------------------*- C++ -*----------------------------------*\
| =========                 |                                                 |
| \\      /  F ield         | OpenFOAM: The Open Source CFD Toolbox           |
|  \\    /   O peration     | Version:  4.1                                   |
|   \\  /    A nd           | Web:      www.OpenFOAM.org                      |
|    \\/     M anipulation  |                                                 |
\*---------------------------------------------------------------------------*/
FoamFile
{
    version     2.0;
    format      ascii;
    class       volScalarField;
    location    "228";
    object      p;
}
// * * * * * * * * * * * * * * * * * * * * * * * * * * * * * * * * * * * * * //

dimensions      [1 -1 -2 0 0 0 0];

internalField   nonuniform List<scalar> 
3264
(
0.712546
0.712544
0.712543
0.712543
0.712542
0.712543
0.712543
0.712545
0.712546
0.712549
0.712552
0.712555
0.712559
0.712564
0.71257
0.712577
0.712585
0.712594
0.712604
0.712616
0.712631
0.712648
0.712667
0.71269
0.712717
0.712748
0.712783
0.712822
0.712867
0.712917
0.712973
0.713033
0.713099
0.71317
0.713246
0.713326
0.71341
0.713497
0.713586
0.713676
0.713768
0.713859
0.713948
0.714036
0.71412
0.714201
0.714276
0.714347
0.714411
0.714469
0.71452
0.714565
0.714603
0.714634
0.714659
0.714678
0.714692
0.714701
0.714706
0.714708
0.714708
0.714705
0.714701
0.714696
0.714691
0.714686
0.714682
0.714678
0.714675
0.714672
0.714671
0.71467
0.714669
0.714669
0.714669
0.71467
0.71467
0.714671
0.714671
0.714671
0.714671
0.714671
0.714671
0.71467
0.71467
0.71467
0.71467
0.71467
0.71467
0.714672
0.714674
0.714677
0.714682
0.714688
0.714696
0.714706
0.714717
0.714731
0.714746
0.714763
0.714781
0.714801
0.714823
0.714844
0.714867
0.71489
0.714912
0.714934
0.714955
0.714975
0.714994
0.71501
0.715025
0.715038
0.715049
0.715057
0.715063
0.715067
0.715069
0.715069
0.715066
0.715062
0.715057
0.71505
0.715042
0.715033
0.715023
0.715012
0.715001
0.71499
0.714979
0.714968
0.714957
0.714946
0.714935
0.714924
0.714914
0.714904
0.714894
0.714885
0.714875
0.714866
0.714857
0.714848
0.714838
0.714829
0.71482
0.71481
0.714801
0.714791
0.714782
0.714772
0.714762
0.714752
0.714742
0.714732
0.714722
0.714712
0.714702
0.714692
0.714682
0.714672
0.714662
0.714652
0.714642
0.714632
0.714621
0.714611
0.714601
0.714591
0.714581
0.714571
0.714561
0.714551
0.714541
0.714531
0.714521
0.714511
0.714501
0.714491
0.714481
0.714471
0.714461
0.714451
0.714441
0.714431
0.714421
0.714411
0.714401
0.714391
0.714381
0.714371
0.714361
0.714351
0.714341
0.714331
0.714321
0.714311
0.714301
0.714291
0.712547
0.712546
0.712545
0.712545
0.712545
0.712545
0.712546
0.712547
0.712549
0.712551
0.712554
0.712558
0.712562
0.712567
0.712573
0.71258
0.712588
0.712597
0.712607
0.712619
0.712633
0.71265
0.712669
0.712691
0.712717
0.712747
0.712781
0.71282
0.712863
0.712913
0.712967
0.713027
0.713092
0.713162
0.713238
0.713317
0.7134
0.713487
0.713576
0.713666
0.713757
0.713848
0.713937
0.714025
0.714109
0.71419
0.714266
0.714336
0.714401
0.714459
0.71451
0.714555
0.714594
0.714625
0.714651
0.71467
0.714685
0.714695
0.714701
0.714703
0.714703
0.714702
0.714699
0.714695
0.714691
0.714688
0.714684
0.714681
0.714679
0.714677
0.714676
0.714675
0.714674
0.714674
0.714674
0.714674
0.714674
0.714674
0.714674
0.714674
0.714674
0.714674
0.714673
0.714673
0.714672
0.714671
0.714671
0.714671
0.714671
0.714672
0.714674
0.714677
0.714681
0.714687
0.714694
0.714704
0.714715
0.714728
0.714743
0.714759
0.714778
0.714798
0.714819
0.714841
0.714863
0.714886
0.714908
0.71493
0.714952
0.714972
0.714991
0.715008
0.715023
0.715036
0.715047
0.715056
0.715062
0.715067
0.715069
0.715069
0.715067
0.715063
0.715057
0.71505
0.715042
0.715033
0.715023
0.715013
0.715002
0.714991
0.714979
0.714968
0.714957
0.714946
0.714935
0.714924
0.714914
0.714904
0.714894
0.714885
0.714875
0.714866
0.714857
0.714848
0.714838
0.714829
0.71482
0.71481
0.714801
0.714791
0.714782
0.714772
0.714762
0.714752
0.714742
0.714732
0.714722
0.714712
0.714702
0.714692
0.714682
0.714672
0.714662
0.714652
0.714642
0.714632
0.714621
0.714611
0.714601
0.714591
0.714581
0.714571
0.714561
0.714551
0.714541
0.714531
0.714521
0.714511
0.714501
0.714491
0.714481
0.714471
0.714461
0.714451
0.714441
0.714431
0.714421
0.714411
0.714401
0.714391
0.714381
0.714371
0.714361
0.714351
0.714341
0.714331
0.714321
0.714311
0.714301
0.714291
0.712549
0.712547
0.712546
0.712545
0.712545
0.712545
0.712545
0.712547
0.712548
0.712551
0.712554
0.712557
0.712562
0.712567
0.712573
0.712579
0.712587
0.712595
0.712605
0.712617
0.71263
0.712646
0.712665
0.712686
0.712711
0.71274
0.712774
0.712812
0.712855
0.712904
0.712958
0.713017
0.713082
0.713152
0.713227
0.713306
0.713389
0.713476
0.713564
0.713655
0.713745
0.713836
0.713925
0.714013
0.714097
0.714177
0.714253
0.714323
0.714387
0.714445
0.714497
0.714541
0.714579
0.714611
0.714636
0.714656
0.71467
0.71468
0.714686
0.714689
0.714689
0.714688
0.714686
0.714683
0.71468
0.714677
0.714674
0.714672
0.714671
0.714671
0.714671
0.714672
0.714673
0.714674
0.714675
0.714676
0.714676
0.714677
0.714677
0.714676
0.714676
0.714675
0.714675
0.714674
0.714673
0.714673
0.714672
0.714672
0.714672
0.714672
0.714674
0.714676
0.71468
0.714686
0.714693
0.714702
0.714713
0.714726
0.71474
0.714757
0.714775
0.714795
0.714816
0.714838
0.71486
0.714883
0.714906
0.714928
0.714949
0.71497
0.714989
0.715006
0.715021
0.715035
0.715046
0.715055
0.715062
0.715066
0.715068
0.715068
0.715066
0.715063
0.715057
0.715051
0.715042
0.715033
0.715023
0.715013
0.715002
0.714991
0.714979
0.714968
0.714957
0.714946
0.714935
0.714924
0.714914
0.714904
0.714894
0.714885
0.714875
0.714866
0.714857
0.714848
0.714838
0.714829
0.71482
0.71481
0.714801
0.714791
0.714782
0.714772
0.714762
0.714752
0.714742
0.714732
0.714722
0.714712
0.714702
0.714692
0.714682
0.714672
0.714662
0.714652
0.714642
0.714632
0.714621
0.714611
0.714601
0.714591
0.714581
0.714571
0.714561
0.714551
0.714541
0.714531
0.714521
0.714511
0.714501
0.714491
0.714481
0.714471
0.714461
0.714451
0.714441
0.714431
0.714421
0.714411
0.714401
0.714391
0.714381
0.714371
0.714361
0.714351
0.714341
0.714331
0.714321
0.714311
0.714301
0.714291
0.712543
0.712543
0.712542
0.712542
0.712542
0.712543
0.712543
0.712545
0.712547
0.712549
0.712552
0.712556
0.71256
0.712566
0.712571
0.712578
0.712585
0.712593
0.712603
0.712614
0.712627
0.712642
0.712659
0.71268
0.712704
0.712733
0.712765
0.712803
0.712845
0.712893
0.712947
0.713006
0.71307
0.713139
0.713214
0.713293
0.713375
0.713461
0.713549
0.713638
0.713728
0.713818
0.713906
0.713992
0.714075
0.714154
0.714228
0.714297
0.71436
0.714416
0.714466
0.714509
0.714545
0.714576
0.7146
0.714618
0.714632
0.714641
0.714647
0.71465
0.714651
0.714651
0.714649
0.714647
0.714646
0.714645
0.714645
0.714645
0.714647
0.714649
0.714652
0.714655
0.714659
0.714663
0.714667
0.714671
0.714674
0.714677
0.714678
0.714679
0.71468
0.71468
0.714679
0.714678
0.714677
0.714676
0.714675
0.714674
0.714674
0.714674
0.714675
0.714677
0.714681
0.714686
0.714693
0.714701
0.714712
0.714724
0.714739
0.714755
0.714773
0.714793
0.714813
0.714835
0.714857
0.71488
0.714902
0.714924
0.714946
0.714966
0.714985
0.715002
0.715017
0.715031
0.715042
0.715051
0.715058
0.715063
0.715065
0.715065
0.715064
0.71506
0.715055
0.715049
0.715041
0.715032
0.715023
0.715012
0.715002
0.714991
0.714979
0.714968
0.714957
0.714946
0.714935
0.714925
0.714914
0.714904
0.714895
0.714885
0.714876
0.714866
0.714857
0.714848
0.714839
0.714829
0.71482
0.71481
0.714801
0.714791
0.714782
0.714772
0.714762
0.714752
0.714742
0.714732
0.714722
0.714712
0.714702
0.714692
0.714682
0.714672
0.714662
0.714652
0.714642
0.714632
0.714621
0.714611
0.714601
0.714591
0.714581
0.714571
0.714561
0.714551
0.714541
0.714531
0.714521
0.714511
0.714501
0.714491
0.714481
0.714471
0.714461
0.714451
0.714441
0.714431
0.714421
0.714411
0.714401
0.714391
0.714381
0.714371
0.714361
0.714351
0.714341
0.714331
0.714321
0.714311
0.714301
0.714291
0.712541
0.712541
0.712538
0.712538
0.712537
0.712538
0.712539
0.71254
0.712543
0.712545
0.712549
0.712553
0.712558
0.712563
0.712569
0.712575
0.712582
0.71259
0.712599
0.71261
0.712623
0.712637
0.712654
0.712675
0.712699
0.712726
0.712759
0.712796
0.712838
0.712886
0.712939
0.712998
0.713062
0.713131
0.713204
0.713282
0.713364
0.713448
0.713535
0.713623
0.713711
0.713798
0.713884
0.713968
0.714048
0.714124
0.714195
0.71426
0.714319
0.714372
0.714418
0.714458
0.714491
0.714518
0.71454
0.714556
0.714567
0.714575
0.71458
0.714582
0.714583
0.714583
0.714582
0.714582
0.714582
0.714584
0.714586
0.71459
0.714595
0.714601
0.714608
0.714616
0.714625
0.714634
0.714643
0.714651
0.714659
0.714666
0.714672
0.714677
0.714681
0.714683
0.714685
0.714685
0.714685
0.714684
0.714683
0.714682
0.714681
0.714681
0.714682
0.714684
0.714687
0.714691
0.714698
0.714706
0.714716
0.714728
0.714742
0.714758
0.714775
0.714794
0.714814
0.714835
0.714857
0.714879
0.714901
0.714922
0.714943
0.714962
0.714981
0.714997
0.715012
0.715025
0.715036
0.715045
0.715052
0.715056
0.715059
0.715059
0.715058
0.715055
0.71505
0.715044
0.715037
0.715029
0.71502
0.71501
0.715
0.71499
0.714979
0.714968
0.714957
0.714946
0.714936
0.714925
0.714915
0.714905
0.714895
0.714886
0.714876
0.714867
0.714858
0.714848
0.714839
0.714829
0.71482
0.714811
0.714801
0.714791
0.714782
0.714772
0.714762
0.714752
0.714742
0.714732
0.714722
0.714712
0.714702
0.714692
0.714682
0.714672
0.714662
0.714652
0.714642
0.714632
0.714621
0.714611
0.714601
0.714591
0.714581
0.714571
0.714561
0.714551
0.714541
0.714531
0.714521
0.714511
0.714501
0.714491
0.714481
0.714471
0.714461
0.714451
0.714441
0.714431
0.714421
0.714411
0.714401
0.714391
0.714381
0.714371
0.714361
0.714351
0.714341
0.714331
0.714321
0.714311
0.714301
0.714291
0.712509
0.712523
0.712523
0.712529
0.712531
0.712533
0.712535
0.712538
0.71254
0.712544
0.712547
0.712552
0.712557
0.712562
0.712568
0.712574
0.712581
0.712589
0.712598
0.712609
0.712621
0.712636
0.712653
0.712673
0.712697
0.712725
0.712757
0.712794
0.712837
0.712884
0.712937
0.712996
0.713059
0.713128
0.7132
0.713277
0.713357
0.71344
0.713524
0.71361
0.713695
0.713779
0.713861
0.71394
0.714015
0.714086
0.714152
0.714212
0.714265
0.714312
0.714353
0.714387
0.714415
0.714437
0.714454
0.714467
0.714475
0.714481
0.714484
0.714486
0.714486
0.714487
0.714488
0.714489
0.714492
0.714496
0.714502
0.714509
0.714519
0.71453
0.714542
0.714555
0.71457
0.714585
0.7146
0.714615
0.71463
0.714643
0.714656
0.714667
0.714677
0.714684
0.71469
0.714695
0.714698
0.7147
0.7147
0.7147
0.7147
0.7147
0.7147
0.714702
0.714704
0.714708
0.714713
0.71472
0.714729
0.71474
0.714753
0.714768
0.714784
0.714802
0.714821
0.71484
0.714861
0.714881
0.714901
0.714921
0.714941
0.714959
0.714976
0.714991
0.715005
0.715017
0.715028
0.715036
0.715042
0.715047
0.715049
0.71505
0.715049
0.715046
0.715043
0.715037
0.715031
0.715024
0.715016
0.715007
0.714998
0.714988
0.714978
0.714968
0.714957
0.714947
0.714937
0.714927
0.714917
0.714907
0.714897
0.714887
0.714877
0.714868
0.714858
0.714849
0.714839
0.71483
0.71482
0.714811
0.714801
0.714791
0.714782
0.714772
0.714762
0.714752
0.714742
0.714732
0.714722
0.714712
0.714702
0.714692
0.714682
0.714672
0.714662
0.714652
0.714642
0.714631
0.714621
0.714611
0.714601
0.714591
0.714581
0.714571
0.714561
0.714551
0.714541
0.714531
0.714521
0.714511
0.714501
0.714491
0.714481
0.714471
0.714461
0.714451
0.714441
0.714431
0.714421
0.714411
0.714401
0.714391
0.714381
0.714371
0.714361
0.714351
0.714341
0.714331
0.714321
0.714311
0.714301
0.714291
0.712508
0.712525
0.712523
0.712527
0.712527
0.71253
0.712532
0.712535
0.712539
0.712542
0.712547
0.712551
0.712557
0.712562
0.712568
0.712575
0.712582
0.71259
0.7126
0.712611
0.712624
0.712639
0.712657
0.712678
0.712702
0.712731
0.712764
0.712802
0.712845
0.712893
0.712946
0.713005
0.713068
0.713136
0.713208
0.713283
0.713362
0.713442
0.713523
0.713605
0.713685
0.713765
0.713841
0.713914
0.713983
0.714046
0.714104
0.714156
0.714202
0.714241
0.714274
0.714301
0.714323
0.714339
0.714351
0.714359
0.714365
0.714368
0.71437
0.714371
0.714373
0.714374
0.714377
0.714381
0.714387
0.714395
0.714405
0.714416
0.71443
0.714446
0.714464
0.714483
0.714503
0.714525
0.714546
0.714568
0.71459
0.714611
0.714631
0.71465
0.714667
0.714682
0.714695
0.714705
0.714714
0.71472
0.714725
0.714728
0.714731
0.714732
0.714733
0.714735
0.714737
0.71474
0.714744
0.71475
0.714758
0.714767
0.714778
0.71479
0.714804
0.71482
0.714836
0.714853
0.714871
0.714889
0.714907
0.714925
0.714941
0.714957
0.714972
0.714986
0.714998
0.715008
0.715017
0.715024
0.71503
0.715034
0.715036
0.715037
0.715037
0.715035
0.715032
0.715028
0.715023
0.715017
0.71501
0.715002
0.714994
0.714985
0.714976
0.714967
0.714957
0.714948
0.714938
0.714928
0.714918
0.714908
0.714898
0.714889
0.714879
0.714869
0.71486
0.71485
0.71484
0.714831
0.714821
0.714811
0.714801
0.714792
0.714782
0.714772
0.714762
0.714752
0.714742
0.714732
0.714722
0.714712
0.714702
0.714692
0.714682
0.714672
0.714662
0.714652
0.714641
0.714631
0.714621
0.714611
0.714601
0.714591
0.714581
0.714571
0.714561
0.714551
0.714541
0.714531
0.714521
0.714511
0.714501
0.714491
0.714481
0.714471
0.714461
0.714451
0.714441
0.714431
0.714421
0.714411
0.714401
0.714391
0.714381
0.714371
0.714361
0.714351
0.714341
0.714331
0.714321
0.714311
0.714301
0.714291
0.712352
0.712491
0.712509
0.71253
0.712534
0.712537
0.712539
0.712541
0.712544
0.712547
0.712551
0.712556
0.712561
0.712567
0.712573
0.71258
0.712588
0.712597
0.712608
0.71262
0.712634
0.71265
0.71267
0.712692
0.712719
0.712749
0.712784
0.712824
0.712869
0.712918
0.712972
0.713031
0.713095
0.713162
0.713233
0.713307
0.713383
0.713459
0.713536
0.713613
0.713688
0.71376
0.713829
0.713894
0.713953
0.714008
0.714056
0.714098
0.714134
0.714164
0.714189
0.714208
0.714223
0.714233
0.714241
0.714246
0.71425
0.714252
0.714254
0.714257
0.71426
0.714264
0.71427
0.714278
0.714287
0.714299
0.714312
0.714328
0.714347
0.714367
0.714389
0.714413
0.714439
0.714466
0.714494
0.714522
0.714551
0.714579
0.714606
0.714632
0.714656
0.714679
0.714699
0.714717
0.714732
0.714745
0.714756
0.714764
0.71477
0.714775
0.714779
0.714782
0.714785
0.714788
0.714791
0.714796
0.714801
0.714808
0.714817
0.714826
0.714837
0.714849
0.714862
0.714876
0.71489
0.714904
0.714918
0.714932
0.714945
0.714958
0.714969
0.71498
0.71499
0.714998
0.715005
0.715011
0.715016
0.715019
0.715021
0.715023
0.715023
0.715022
0.71502
0.715017
0.715013
0.715009
0.715003
0.714997
0.71499
0.714983
0.714975
0.714966
0.714958
0.714948
0.714939
0.71493
0.71492
0.71491
0.7149
0.714891
0.714881
0.714871
0.714861
0.714851
0.714841
0.714831
0.714821
0.714811
0.714802
0.714792
0.714782
0.714772
0.714762
0.714752
0.714742
0.714732
0.714722
0.714712
0.714702
0.714692
0.714682
0.714672
0.714661
0.714651
0.714641
0.714631
0.714621
0.714611
0.714601
0.714591
0.714581
0.714571
0.714561
0.714551
0.714541
0.714531
0.714521
0.714511
0.714501
0.714491
0.714481
0.714471
0.714461
0.714451
0.714441
0.714431
0.714421
0.714411
0.714401
0.714391
0.714381
0.714371
0.714361
0.714351
0.714341
0.714331
0.714321
0.714311
0.714301
0.714291
0.713086
0.71303
0.712967
0.7129
0.712827
0.712749
0.712661
0.712541
0.713093
0.713046
0.712983
0.712914
0.712841
0.712762
0.712671
0.712573
0.713097
0.713058
0.713
0.712934
0.712865
0.712793
0.712722
0.712651
0.713107
0.713073
0.713021
0.712959
0.712895
0.712831
0.712767
0.712709
0.71312
0.713088
0.713039
0.712983
0.712924
0.712867
0.712813
0.712765
0.713135
0.713102
0.713054
0.713
0.712946
0.712895
0.712848
0.712806
0.713151
0.713113
0.713064
0.713011
0.712961
0.712913
0.712869
0.71283
0.713159
0.713111
0.713062
0.713012
0.712964
0.712918
0.712876
0.712838
0.712478
0.712498
0.712518
0.712529
0.712536
0.712539
0.712542
0.712545
0.712548
0.712552
0.712557
0.712562
0.712568
0.712575
0.712583
0.712591
0.712601
0.712612
0.712624
0.712639
0.712656
0.712675
0.712698
0.712724
0.712753
0.712787
0.712825
0.712868
0.712915
0.712967
0.713022
0.713082
0.713146
0.713213
0.713282
0.713354
0.713426
0.713498
0.713569
0.713639
0.713706
0.713769
0.713828
0.713882
0.713931
0.713974
0.714011
0.714043
0.714069
0.714089
0.714106
0.714118
0.714128
0.714135
0.71414
0.714145
0.714149
0.714153
0.714157
0.714163
0.714169
0.714177
0.714186
0.714197
0.71421
0.714225
0.714242
0.714261
0.714282
0.714306
0.714332
0.71436
0.71439
0.714421
0.714453
0.714486
0.71452
0.714554
0.714587
0.714619
0.71465
0.714679
0.714706
0.714731
0.714753
0.714772
0.714789
0.714802
0.714814
0.714823
0.71483
0.714836
0.714841
0.714844
0.714848
0.714852
0.714856
0.714861
0.714866
0.714873
0.71488
0.714888
0.714896
0.714905
0.714915
0.714924
0.714933
0.714943
0.714952
0.71496
0.714968
0.714975
0.714981
0.714987
0.714992
0.714996
0.715
0.715003
0.715005
0.715007
0.715008
0.715008
0.715007
0.715006
0.715004
0.715
0.714997
0.714992
0.714986
0.71498
0.714973
0.714966
0.714958
0.71495
0.714941
0.714932
0.714922
0.714912
0.714903
0.714893
0.714883
0.714873
0.714863
0.714852
0.714842
0.714832
0.714822
0.714812
0.714802
0.714792
0.714782
0.714772
0.714761
0.714751
0.714741
0.714731
0.714721
0.714711
0.714701
0.714691
0.714681
0.714671
0.714661
0.714651
0.714641
0.714631
0.714621
0.714611
0.714601
0.714591
0.714581
0.714571
0.714561
0.714551
0.714541
0.714531
0.714521
0.714511
0.714501
0.714491
0.714481
0.714471
0.714461
0.714451
0.714441
0.714431
0.714421
0.714411
0.714401
0.714391
0.714381
0.714371
0.714361
0.714351
0.714341
0.714331
0.714321
0.714311
0.714301
0.714291
0.7125
0.71251
0.712523
0.712536
0.712544
0.712549
0.712554
0.712557
0.712561
0.712566
0.712571
0.712578
0.712585
0.712593
0.712603
0.712614
0.712626
0.71264
0.712656
0.712675
0.712696
0.71272
0.712747
0.712777
0.712811
0.712849
0.712892
0.712938
0.712988
0.713043
0.7131
0.713161
0.713225
0.71329
0.713357
0.713424
0.713491
0.713556
0.71362
0.71368
0.713737
0.713789
0.713836
0.713878
0.713915
0.713946
0.713972
0.713993
0.71401
0.714024
0.714035
0.714044
0.714052
0.714059
0.714065
0.714072
0.714079
0.714086
0.714094
0.714103
0.714112
0.714123
0.714135
0.714148
0.714163
0.71418
0.714199
0.71422
0.714243
0.714269
0.714297
0.714327
0.714359
0.714393
0.714429
0.714465
0.714502
0.71454
0.714578
0.714614
0.71465
0.714685
0.714717
0.714747
0.714775
0.7148
0.714822
0.714841
0.714857
0.71487
0.714881
0.71489
0.714897
0.714902
0.714906
0.71491
0.714913
0.714916
0.714918
0.714921
0.714925
0.714928
0.714932
0.714937
0.714941
0.714945
0.71495
0.714954
0.714958
0.714962
0.714966
0.714969
0.714973
0.714976
0.714979
0.714982
0.714985
0.714988
0.71499
0.714992
0.714994
0.714995
0.714996
0.714996
0.714995
0.714993
0.714991
0.714988
0.714983
0.714978
0.714973
0.714966
0.714959
0.714951
0.714942
0.714934
0.714924
0.714915
0.714905
0.714895
0.714885
0.714874
0.714864
0.714854
0.714843
0.714833
0.714823
0.714812
0.714802
0.714792
0.714782
0.714771
0.714761
0.714751
0.714741
0.714731
0.714721
0.714711
0.714701
0.714691
0.714681
0.714671
0.714661
0.714651
0.714641
0.714631
0.714621
0.714611
0.714601
0.714591
0.714581
0.714571
0.714561
0.714551
0.714541
0.714531
0.714521
0.714511
0.714501
0.714491
0.714481
0.714471
0.714461
0.714451
0.714441
0.714431
0.714421
0.714411
0.714401
0.714391
0.714381
0.714371
0.714361
0.714351
0.714341
0.714331
0.714321
0.714311
0.714301
0.714291
0.712598
0.712574
0.712568
0.712569
0.712571
0.712573
0.712575
0.712579
0.712582
0.712587
0.712594
0.712601
0.71261
0.712621
0.712633
0.712648
0.712664
0.712682
0.712703
0.712726
0.712752
0.712781
0.712814
0.71285
0.712889
0.712933
0.71298
0.71303
0.713084
0.71314
0.713199
0.71326
0.713322
0.713384
0.713446
0.713508
0.713567
0.713624
0.713677
0.713726
0.71377
0.713809
0.713844
0.713873
0.713898
0.713919
0.713937
0.713952
0.713965
0.713977
0.713987
0.713997
0.714007
0.714016
0.714025
0.714035
0.714045
0.714055
0.714065
0.714076
0.714087
0.714099
0.714112
0.714126
0.714142
0.71416
0.714179
0.714201
0.714225
0.714251
0.71428
0.714312
0.714345
0.714381
0.714418
0.714456
0.714496
0.714536
0.714577
0.714617
0.714656
0.714694
0.71473
0.714765
0.714796
0.714825
0.714851
0.714874
0.714894
0.714911
0.714925
0.714936
0.714945
0.714952
0.714957
0.71496
0.714962
0.714964
0.714964
0.714964
0.714964
0.714964
0.714964
0.714964
0.714963
0.714963
0.714963
0.714963
0.714963
0.714963
0.714963
0.714964
0.714965
0.714967
0.714968
0.71497
0.714973
0.714975
0.714978
0.71498
0.714983
0.714985
0.714987
0.714988
0.714988
0.714988
0.714987
0.714985
0.714982
0.714977
0.714972
0.714967
0.71496
0.714952
0.714944
0.714936
0.714926
0.714917
0.714907
0.714897
0.714886
0.714876
0.714865
0.714855
0.714844
0.714833
0.714823
0.714812
0.714802
0.714792
0.714782
0.714771
0.714761
0.714751
0.714741
0.714731
0.714721
0.714711
0.714701
0.714691
0.714681
0.714671
0.714661
0.714651
0.714641
0.714631
0.714621
0.714611
0.714601
0.714591
0.714581
0.714571
0.714561
0.714551
0.714541
0.714531
0.714521
0.714511
0.714501
0.714491
0.714481
0.714471
0.714461
0.714451
0.714441
0.714431
0.714421
0.714411
0.714401
0.714391
0.714381
0.714371
0.714361
0.714351
0.714341
0.714331
0.714321
0.714311
0.714301
0.714291
0.712663
0.712635
0.712621
0.712614
0.712611
0.712609
0.712609
0.71261
0.712613
0.712618
0.712624
0.712633
0.712643
0.712656
0.712671
0.712688
0.712708
0.71273
0.712756
0.712784
0.712815
0.71285
0.712888
0.71293
0.712974
0.713023
0.713074
0.713128
0.713184
0.713241
0.7133
0.713359
0.713417
0.713474
0.71353
0.713583
0.713633
0.713679
0.71372
0.713757
0.713789
0.713818
0.713843
0.713865
0.713884
0.713901
0.713915
0.713928
0.71394
0.713951
0.713963
0.713975
0.713988
0.714
0.714012
0.714023
0.714034
0.714046
0.714057
0.714068
0.714079
0.714092
0.714105
0.714119
0.714135
0.714153
0.714173
0.714195
0.714219
0.714246
0.714276
0.714308
0.714342
0.714378
0.714416
0.714456
0.714497
0.714539
0.714581
0.714624
0.714665
0.714705
0.714744
0.714781
0.714815
0.714847
0.714876
0.714902
0.714924
0.714943
0.714959
0.714972
0.714982
0.71499
0.714995
0.714998
0.714999
0.714999
0.714998
0.714996
0.714993
0.71499
0.714986
0.714982
0.714979
0.714975
0.714971
0.714968
0.714965
0.714963
0.714961
0.714959
0.714959
0.714959
0.71496
0.714962
0.714964
0.714966
0.714969
0.714972
0.714975
0.714978
0.714981
0.714983
0.714984
0.714985
0.714984
0.714983
0.71498
0.714977
0.714973
0.714967
0.714961
0.714954
0.714946
0.714937
0.714928
0.714918
0.714908
0.714898
0.714887
0.714877
0.714866
0.714855
0.714845
0.714834
0.714823
0.714813
0.714802
0.714792
0.714781
0.714771
0.714761
0.714751
0.714741
0.714731
0.714721
0.714711
0.714701
0.714691
0.714681
0.714671
0.714661
0.714651
0.714641
0.714631
0.714621
0.714611
0.714601
0.714591
0.714581
0.714571
0.714561
0.714551
0.714541
0.714531
0.714521
0.714511
0.714501
0.714491
0.714481
0.714471
0.714461
0.714451
0.714441
0.714431
0.714421
0.714411
0.714401
0.714391
0.714381
0.714371
0.714361
0.714351
0.714341
0.714331
0.714321
0.714311
0.714301
0.714291
0.712726
0.712698
0.712679
0.712666
0.712657
0.712651
0.712647
0.712645
0.712646
0.71265
0.712656
0.712664
0.712676
0.71269
0.712707
0.712727
0.71275
0.712776
0.712806
0.712838
0.712874
0.712913
0.712956
0.713002
0.713051
0.713102
0.713156
0.713211
0.713268
0.713324
0.71338
0.713434
0.713486
0.713536
0.713584
0.713629
0.713671
0.713708
0.713742
0.713771
0.713795
0.713816
0.713834
0.713851
0.713867
0.713882
0.713898
0.713914
0.71393
0.713945
0.713959
0.713973
0.713986
0.713998
0.71401
0.714021
0.714032
0.714043
0.714054
0.714066
0.714078
0.71409
0.714104
0.714119
0.714135
0.714153
0.714173
0.714195
0.71422
0.714248
0.714277
0.71431
0.714344
0.714381
0.71442
0.714461
0.714502
0.714545
0.714588
0.714631
0.714674
0.714716
0.714756
0.714794
0.71483
0.714863
0.714893
0.71492
0.714944
0.714964
0.714981
0.714995
0.715005
0.715013
0.715018
0.715021
0.715022
0.715021
0.715018
0.715014
0.71501
0.715004
0.714999
0.714993
0.714987
0.714981
0.714975
0.71497
0.714965
0.714962
0.714959
0.714956
0.714955
0.714955
0.714955
0.714957
0.714959
0.714962
0.714965
0.714968
0.714971
0.714975
0.714978
0.71498
0.714982
0.714983
0.714983
0.714982
0.71498
0.714977
0.714973
0.714967
0.714961
0.714954
0.714946
0.714938
0.714929
0.714919
0.714909
0.714899
0.714888
0.714877
0.714867
0.714856
0.714845
0.714834
0.714823
0.714813
0.714802
0.714792
0.714781
0.714771
0.714761
0.714751
0.714741
0.714731
0.714721
0.714711
0.714701
0.714691
0.714681
0.714671
0.714661
0.714651
0.714641
0.714631
0.714621
0.714611
0.714601
0.714591
0.714581
0.714571
0.714561
0.714551
0.714541
0.714531
0.714521
0.714511
0.714501
0.714491
0.714481
0.714471
0.714461
0.714451
0.714441
0.714431
0.714421
0.714411
0.714401
0.714391
0.714381
0.714371
0.714361
0.714351
0.714341
0.714331
0.714321
0.714311
0.714301
0.714291
0.71277
0.712742
0.71272
0.712703
0.71269
0.71268
0.712673
0.712669
0.712669
0.712671
0.712677
0.712686
0.712698
0.712714
0.712733
0.712755
0.71278
0.712809
0.712841
0.712876
0.712915
0.712956
0.713001
0.713049
0.713099
0.713152
0.713206
0.71326
0.713315
0.713369
0.713422
0.713472
0.713519
0.713563
0.713604
0.713642
0.713675
0.713704
0.71373
0.713753
0.713776
0.713799
0.713822
0.713844
0.713864
0.713883
0.713899
0.713915
0.71393
0.713943
0.713957
0.71397
0.713983
0.713995
0.714007
0.714019
0.714031
0.714042
0.714054
0.714066
0.714078
0.714091
0.714105
0.71412
0.714137
0.714156
0.714176
0.714199
0.714224
0.714252
0.714282
0.714315
0.71435
0.714387
0.714427
0.714467
0.71451
0.714553
0.714596
0.71464
0.714683
0.714725
0.714765
0.714804
0.71484
0.714874
0.714904
0.714931
0.714955
0.714976
0.714993
0.715007
0.715018
0.715025
0.71503
0.715032
0.715032
0.71503
0.715027
0.715022
0.715017
0.71501
0.715004
0.714997
0.71499
0.714983
0.714976
0.714971
0.714965
0.714961
0.714958
0.714955
0.714954
0.714953
0.714954
0.714955
0.714957
0.71496
0.714963
0.714966
0.71497
0.714973
0.714976
0.714979
0.714981
0.714982
0.714982
0.714981
0.714979
0.714976
0.714972
0.714967
0.714961
0.714954
0.714947
0.714938
0.714929
0.714919
0.714909
0.714899
0.714888
0.714878
0.714867
0.714856
0.714845
0.714834
0.714824
0.714813
0.714802
0.714792
0.714782
0.714771
0.714761
0.714751
0.714741
0.714731
0.714721
0.714711
0.714701
0.714691
0.714681
0.714671
0.714661
0.714651
0.714641
0.714631
0.714621
0.714611
0.714601
0.714591
0.714581
0.714571
0.714561
0.714551
0.714541
0.714531
0.714521
0.714511
0.714501
0.714491
0.714481
0.714471
0.714461
0.714451
0.714441
0.714431
0.714421
0.714411
0.714401
0.714391
0.714381
0.714371
0.714361
0.714351
0.714341
0.714331
0.714321
0.714311
0.714301
0.714291
0.712797
0.712768
0.712744
0.712724
0.712708
0.712695
0.712687
0.712681
0.71268
0.712682
0.712688
0.712697
0.71271
0.712727
0.712746
0.71277
0.712796
0.712826
0.712859
0.712896
0.712935
0.712978
0.713023
0.713071
0.713121
0.713173
0.713225
0.713277
0.713328
0.713377
0.713424
0.713468
0.71351
0.71355
0.713589
0.713627
0.713663
0.713697
0.713727
0.713755
0.71378
0.713803
0.713824
0.713843
0.713861
0.713879
0.713895
0.713911
0.713927
0.713942
0.713956
0.713969
0.713982
0.713995
0.714007
0.714019
0.714031
0.714042
0.714054
0.714066
0.714079
0.714092
0.714106
0.714122
0.714139
0.714158
0.714179
0.714202
0.714228
0.714256
0.714287
0.71432
0.714355
0.714392
0.714432
0.714473
0.714515
0.714558
0.714602
0.714645
0.714688
0.71473
0.71477
0.714809
0.714845
0.714878
0.714909
0.714936
0.71496
0.71498
0.714997
0.715011
0.715021
0.715029
0.715033
0.715035
0.715035
0.715033
0.715029
0.715024
0.715018
0.715012
0.715005
0.714997
0.71499
0.714983
0.714977
0.714971
0.714966
0.714961
0.714958
0.714955
0.714954
0.714953
0.714954
0.714955
0.714957
0.71496
0.714963
0.714966
0.71497
0.714973
0.714976
0.714979
0.71498
0.714982
0.714982
0.714981
0.714979
0.714976
0.714972
0.714967
0.714961
0.714954
0.714946
0.714938
0.714929
0.714919
0.714909
0.714899
0.714888
0.714878
0.714867
0.714856
0.714845
0.714834
0.714824
0.714813
0.714802
0.714792
0.714782
0.714771
0.714761
0.714751
0.714741
0.714731
0.714721
0.714711
0.714701
0.714691
0.714681
0.714671
0.714661
0.714651
0.714641
0.714631
0.714621
0.714611
0.714601
0.714591
0.714581
0.714571
0.714561
0.714551
0.714541
0.714531
0.714521
0.714511
0.714501
0.714491
0.714481
0.714471
0.714461
0.714451
0.714441
0.714431
0.714421
0.714411
0.714401
0.714391
0.714381
0.714371
0.714361
0.714351
0.714341
0.714331
0.714321
0.714311
0.714301
0.714291
0.712803
0.712773
0.712747
0.712725
0.712707
0.712693
0.712683
0.712678
0.712676
0.712678
0.712684
0.712694
0.712707
0.712723
0.712743
0.712766
0.712792
0.712821
0.712854
0.71289
0.712928
0.71297
0.713014
0.71306
0.713108
0.713158
0.713209
0.713261
0.713312
0.713363
0.713411
0.713458
0.713503
0.713546
0.713587
0.713625
0.71366
0.713692
0.713721
0.713748
0.713773
0.713796
0.713819
0.71384
0.713859
0.713878
0.713895
0.713911
0.713926
0.713941
0.713955
0.713968
0.713981
0.713994
0.714006
0.714018
0.714029
0.714041
0.714053
0.714065
0.714078
0.714092
0.714106
0.714123
0.71414
0.71416
0.714181
0.714205
0.714231
0.71426
0.714291
0.714324
0.71436
0.714397
0.714437
0.714478
0.714521
0.714564
0.714608
0.714651
0.714694
0.714736
0.714776
0.714815
0.71485
0.714884
0.714914
0.714941
0.714964
0.714984
0.715001
0.715014
0.715024
0.71503
0.715035
0.715036
0.715036
0.715033
0.715029
0.715024
0.715018
0.715011
0.715004
0.714997
0.714989
0.714983
0.714976
0.71497
0.714965
0.714961
0.714958
0.714956
0.714954
0.714954
0.714955
0.714956
0.714958
0.714961
0.714964
0.714967
0.714971
0.714974
0.714977
0.714979
0.714981
0.714982
0.714982
0.714981
0.714979
0.714976
0.714972
0.714967
0.714961
0.714954
0.714946
0.714938
0.714929
0.714919
0.714909
0.714899
0.714888
0.714878
0.714867
0.714856
0.714845
0.714834
0.714824
0.714813
0.714802
0.714792
0.714782
0.714771
0.714761
0.714751
0.714741
0.714731
0.714721
0.714711
0.714701
0.714691
0.714681
0.714671
0.714661
0.714651
0.714641
0.714631
0.714621
0.714611
0.714601
0.714591
0.714581
0.714571
0.714561
0.714551
0.714541
0.714531
0.714521
0.714511
0.714501
0.714491
0.714481
0.714471
0.714461
0.714451
0.714441
0.714431
0.714421
0.714411
0.714401
0.714391
0.714381
0.714371
0.714361
0.714351
0.714341
0.714331
0.714321
0.714311
0.714301
0.714291
)
;

boundaryField
{
    inlet
    {