/*--------------------------------*- C++ -*----------------------------------*\
| =========                 |                                                 |
| \\      /  F ield         | OpenFOAM: The Open Source CFD Toolbox           |
|  \\    /   O peration     | Version:  4.1                                   |
|   \\  /    A nd           | Web:      www.OpenFOAM.org                      |
|    \\/     M anipulation  |                                                 |
\*---------------------------------------------------------------------------*/
FoamFile
{
    version     2.0;
    format      ascii;
    class       volScalarField;
    location    "210";
    object      p;
}
// * * * * * * * * * * * * * * * * * * * * * * * * * * * * * * * * * * * * * //

dimensions      [1 -1 -2 0 0 0 0];

internalField   nonuniform List<scalar> 
1275
(
0.711813
0.711814
0.711812
0.711809
0.711803
0.711796
0.711787
0.711779
0.71177
0.711764
0.711759
0.711757
0.711757
0.711759
0.711762
0.711765
0.711766
0.711766
0.711764
0.711759
0.711751
0.71174
0.711727
0.711709
0.711683
0.711645
0.711597
0.711546
0.711499
0.711454
0.711404
0.711348
0.7113
0.711277
0.711289
0.711342
0.711436
0.711568
0.711734
0.711927
0.712142
0.712374
0.712616
0.712863
0.713109
0.713346
0.713568
0.713769
0.713945
0.71409
0.714202
0.71428
0.714326
0.714341
0.714329
0.714295
0.714243
0.714179
0.714107
0.714031
0.713955
0.713882
0.713815
0.713754
0.713702
0.713658
0.713622
0.713592
0.713567
0.713539
0.713512
0.71349
0.713486
0.713501
0.713511
0.713515
0.713545
0.713571
0.71358
0.713588
0.713595
0.713606
0.713619
0.71363
0.713639
0.713645
0.713647
0.713644
0.713636
0.713621
0.713599
0.713569
0.71353
0.713481
0.713422
0.713354
0.713276
0.713189
0.713096
0.712998
0.712898
0.712802
0.712713
0.712637
0.712582
0.712552
0.712552
0.712588
0.71266
0.712771
0.71292
0.713106
0.713324
0.713568
0.713829
0.714095
0.714355
0.714594
0.714803
0.714973
0.715102
0.715188
0.71181
0.711811
0.711808
0.711805
0.711799
0.711793
0.711784
0.711776
0.711767
0.711761
0.711757
0.711757
0.711758
0.711761
0.711764
0.711767
0.711768
0.711767
0.711764
0.711758
0.71175
0.711739
0.711727
0.711713
0.711698
0.711679
0.711645
0.711589
0.711516
0.711437
0.711358
0.711283
0.711228
0.711205
0.711222
0.711282
0.711383
0.711521
0.711691
0.711888
0.712105
0.712339
0.712583
0.712831
0.713078
0.713317
0.713541
0.713744
0.713921
0.714068
0.714181
0.714261
0.714307
0.714322
0.714311
0.714276
0.714225
0.71416
0.714088
0.714012
0.713935
0.713862
0.713795
0.713734
0.713681
0.713637
0.7136
0.713571
0.713546
0.713519
0.713494
0.713487
0.713506
0.713547
0.713569
0.713562
0.713565
0.713563
0.713558
0.713578
0.7136
0.713612
0.713621
0.713632
0.713641
0.713648
0.713651
0.713649
0.713642
0.713628
0.713608
0.713579
0.713542
0.713496
0.71344
0.713373
0.713295
0.713207
0.713109
0.713005
0.712897
0.712791
0.712694
0.712611
0.712549
0.712514
0.712512
0.712545
0.712615
0.712725
0.712873
0.713058
0.713277
0.713522
0.713787
0.714059
0.714325
0.714571
0.714787
0.714963
0.715097
0.715186
0.711815
0.711815
0.711812
0.711808
0.7118
0.711793
0.711782
0.711773
0.711762
0.711756
0.711752
0.711753
0.711756
0.711761
0.711766
0.711769
0.71177
0.711768
0.711764
0.711757
0.71175
0.711743
0.711736
0.711727
0.711709
0.711677
0.711628
0.711559
0.711468
0.711364
0.71126
0.711171
0.711113
0.711097
0.711125
0.711197
0.711308
0.711455
0.71163
0.71183
0.71205
0.712285
0.712529
0.712778
0.713025
0.713264
0.713488
0.713692
0.713868
0.714015
0.714127
0.714206
0.714251
0.714266
0.714253
0.714219
0.714167
0.714103
0.714032
0.713957
0.713881
0.713808
0.713739
0.713677
0.713621
0.713574
0.713534
0.713503
0.713479
0.713459
0.713448
0.713446
0.713456
0.713482
0.713498
0.713509
0.713556
0.713596
0.713602
0.713597
0.713589
0.713602
0.713624
0.713637
0.713646
0.713653
0.713657
0.713657
0.713651
0.713639
0.713619
0.713592
0.713556
0.71351
0.713453
0.713383
0.713301
0.713206
0.7131
0.712985
0.712867
0.71275
0.712642
0.712552
0.712485
0.712447
0.712442
0.712473
0.712541
0.712648
0.712793
0.712976
0.713193
0.71344
0.713709
0.713987
0.714261
0.714518
0.714744
0.71493
0.715071
0.715166
0.711812
0.711812
0.711808
0.711805
0.711797
0.71179
0.711779
0.71177
0.711759
0.711752
0.711749
0.71175
0.711754
0.711761
0.711766
0.711771
0.711772
0.711772
0.711769
0.711765
0.711762
0.71176
0.711759
0.711756
0.711746
0.711717
0.711657
0.71156
0.711437
0.711303
0.71118
0.711085
0.711029
0.71102
0.711056
0.711135
0.711253
0.711402
0.711579
0.711778
0.711997
0.712229
0.712471
0.712717
0.712961
0.713196
0.713416
0.713615
0.713786
0.713927
0.714034
0.714106
0.714146
0.714156
0.714141
0.714105
0.714054
0.713992
0.713923
0.713851
0.713778
0.713705
0.713636
0.71357
0.71351
0.713457
0.71341
0.713373
0.713344
0.713325
0.713317
0.713325
0.713351
0.713394
0.713435
0.713468
0.713511
0.713534
0.713549
0.713588
0.713621
0.713627
0.713626
0.713639
0.713655
0.713665
0.71367
0.713671
0.713666
0.713655
0.713637
0.713611
0.713575
0.713529
0.713469
0.713396
0.713306
0.713202
0.713084
0.712956
0.712824
0.712696
0.712579
0.712482
0.71241
0.71237
0.712363
0.712392
0.712458
0.712561
0.712701
0.712878
0.713091
0.713336
0.713606
0.713889
0.714171
0.714437
0.714673
0.714867
0.715016
0.715117
0.711824
0.711822
0.711818
0.711813
0.711804
0.711795
0.711783
0.711772
0.71176
0.711753
0.711748
0.711749
0.711751
0.711756
0.711761
0.711765
0.711767
0.711769
0.711771
0.711775
0.711783
0.711795
0.711806
0.711811
0.711797
0.711755
0.711676
0.711561
0.711422
0.711276
0.711145
0.711047
0.710993
0.710985
0.711024
0.711103
0.71122
0.711367
0.711541
0.711737
0.71195
0.712178
0.712414
0.712654
0.71289
0.713117
0.713327
0.713514
0.713672
0.713799
0.713893
0.713953
0.713983
0.713984
0.713964
0.713926
0.713876
0.713819
0.713756
0.713692
0.713625
0.713556
0.713486
0.713416
0.713348
0.713283
0.713225
0.713177
0.71314
0.713116
0.713109
0.713119
0.713146
0.713192
0.713244
0.713302
0.713377
0.713444
0.713502
0.71355
0.713576
0.713611
0.713648
0.713658
0.713661
0.713672
0.713681
0.713683
0.71368
0.71367
0.713652
0.713625
0.713588
0.713539
0.713476
0.713396
0.7133
0.713186
0.713058
0.712921
0.71278
0.712644
0.712522
0.712422
0.71235
0.712309
0.712302
0.712329
0.712391
0.712488
0.712621
0.712791
0.712997
0.713237
0.713504
0.713787
0.714071
0.71434
0.71458
0.714778
0.714929
0.715032
0.711814
0.711815
0.711809
0.711809
0.711799
0.711793
0.711781
0.711773
0.711763
0.711757
0.711752
0.711751
0.711751
0.711752
0.711754
0.711756
0.71176
0.711766
0.711776
0.711792
0.711813
0.711837
0.711859
0.711871
0.71186
0.711814
0.711727
0.711602
0.711454
0.711302
0.711168
0.711068
0.711011
0.711001
0.711035
0.711109
0.711219
0.71136
0.711527
0.711716
0.711922
0.712142
0.712368
0.712596
0.712819
0.713029
0.713221
0.713387
0.713524
0.713629
0.7137
0.713741
0.713753
0.713742
0.713715
0.713677
0.713632
0.713585
0.713536
0.713483
0.713426
0.713363
0.713294
0.713219
0.71314
0.713061
0.712985
0.712917
0.712864
0.712828
0.712814
0.712824
0.712858
0.712917
0.712991
0.713077
0.713173
0.713264
0.713354
0.713442
0.713519
0.71358
0.713617
0.713653
0.713682
0.713691
0.713696
0.713699
0.713695
0.713684
0.713665
0.713637
0.713598
0.713546
0.713479
0.713395
0.713293
0.713173
0.713039
0.712895
0.71275
0.712611
0.712488
0.712388
0.712316
0.712276
0.712269
0.712294
0.712351
0.712441
0.712566
0.712726
0.712922
0.713153
0.713412
0.713688
0.713966
0.714229
0.714462
0.714654
0.7148
0.7149
0.711828
0.711826
0.711819
0.711814
0.711802
0.711794
0.711781
0.711772
0.711762
0.711757
0.711751
0.711749
0.711746
0.711745
0.711743
0.711742
0.711745
0.711754
0.711771
0.711796
0.711829
0.711866
0.711897
0.711914
0.711905
0.711858
0.711771
0.711649
0.711504
0.711357
0.711227
0.711127
0.711068
0.711052
0.71108
0.711146
0.711248
0.711381
0.71154
0.71172
0.711917
0.712125
0.712337
0.712549
0.71275
0.712937
0.713101
0.713239
0.713345
0.713419
0.713461
0.713476
0.713468
0.713443
0.71341
0.713374
0.713338
0.713307
0.713281
0.713252
0.713215
0.713164
0.713096
0.713012
0.712916
0.712814
0.712712
0.712619
0.712541
0.712485
0.712456
0.712458
0.71249
0.712554
0.712642
0.712752
0.71288
0.713013
0.713148
0.713277
0.713389
0.71349
0.713574
0.713633
0.71367
0.713698
0.713712
0.713711
0.713706
0.713694
0.713673
0.713643
0.713601
0.713547
0.713477
0.713391
0.713286
0.713165
0.713029
0.712886
0.712741
0.712604
0.712484
0.712387
0.712318
0.712279
0.712271
0.712293
0.712345
0.712427
0.712543
0.712692
0.712877
0.713096
0.713341
0.713602
0.713863
0.714107
0.71432
0.714494
0.714624
0.714713
0.71179
0.711804
0.711794
0.711799
0.711788
0.711785
0.711773
0.711768
0.71176
0.711756
0.711752
0.711749
0.711745
0.711741
0.711736
0.711734
0.711736
0.711746
0.711765
0.711795
0.711833
0.711875
0.711911
0.711932
0.711926
0.711884
0.711804
0.711691
0.711558
0.711422
0.7113
0.711206
0.711148
0.711131
0.711155
0.711216
0.711312
0.711438
0.711589
0.711759
0.711944
0.712136
0.71233
0.712517
0.712691
0.712845
0.712974
0.713074
0.713143
0.713182
0.713192
0.713179
0.713151
0.713111
0.713076
0.713049
0.713032
0.71303
0.713035
0.713032
0.713014
0.712977
0.712915
0.712827
0.712714
0.712586
0.712453
0.712327
0.712218
0.712134
0.712083
0.712069
0.712095
0.71216
0.712259
0.712389
0.712542
0.712708
0.712881
0.713053
0.713215
0.713361
0.713482
0.713579
0.713651
0.713694
0.713717
0.713726
0.713719
0.713701
0.713678
0.713646
0.713602
0.713546
0.713476
0.71339
0.713286
0.713168
0.713036
0.712897
0.712758
0.712627
0.712512
0.712419
0.712353
0.712314
0.712304
0.712322
0.712368
0.712443
0.712549
0.712689
0.712862
0.713065
0.713291
0.713527
0.713758
0.713969
0.714148
0.714289
0.714393
0.714464
0.711817
0.711823
0.711811
0.711807
0.711794
0.711786
0.711774
0.711766
0.711757
0.711752
0.711747
0.711744
0.71174
0.711735
0.711729
0.711726
0.711727
0.711736
0.711756
0.711786
0.711825
0.711867
0.711904
0.711924
0.711919
0.711881
0.711809
0.711709
0.711592
0.711473
0.711368
0.711288
0.711241
0.71123
0.711257
0.71132
0.711414
0.711536
0.71168
0.711839
0.712008
0.712181
0.712349
0.712506
0.712645
0.712765
0.712854
0.712916
0.712948
0.712954
0.712934
0.712896
0.712853
0.712803
0.712771
0.712757
0.712754
0.712779
0.71283
0.712876
0.712893
0.71287
0.712805
0.7127
0.712563
0.712406
0.712241
0.712081
0.711939
0.711827
0.711752
0.711719
0.711732
0.711791
0.711892
0.71203
0.7122
0.712391
0.712596
0.712805
0.713008
0.713197
0.713365
0.713504
0.713609
0.713683
0.713724
0.713738
0.713735
0.713718
0.713688
0.71365
0.713605
0.713549
0.713479
0.713394
0.713295
0.713182
0.713059
0.712929
0.7128
0.712678
0.712571
0.712483
0.712419
0.71238
0.712368
0.712382
0.712423
0.712492
0.712592
0.712722
0.712882
0.713066
0.713266
0.713467
0.713656
0.713819
0.71395
0.714048
0.714116
0.714165
0.711705
0.711792
0.711783
0.711804
0.711791
0.711791
0.711779
0.711774
0.711765
0.711761
0.711755
0.711751
0.711746
0.711741
0.711736
0.711734
0.711737
0.711747
0.711766
0.711793
0.711828
0.711864
0.711894
0.711911
0.711907
0.711875
0.711816
0.711734
0.71164
0.711546
0.711464
0.711404
0.711374
0.711376
0.711412
0.711479
0.711573
0.71169
0.711824
0.711968
0.712117
0.712262
0.712399
0.71252
0.712623
0.712699
0.712757
0.712784
0.712785
0.712765
0.712722
0.712668
0.712614
0.712553
0.712524
0.712534
0.712563
0.71263
0.712715
0.712778
0.712809
0.712807
0.712757
0.712651
0.712496
0.712309
0.71211
0.711917
0.711745
0.711604
0.711506
0.711455
0.711456
0.711508
0.711608
0.711752
0.711931
0.712136
0.71236
0.712593
0.712825
0.713048
0.713252
0.71343
0.713574
0.713679
0.713745
0.713776
0.713774
0.713751
0.713716
0.713671
0.713617
0.713556
0.713487
0.713407
0.713315
0.713211
0.713097
0.712979
0.71286
0.712749
0.712649
0.712567
0.712506
0.712468
0.712455
0.712467
0.712506
0.712572
0.712667
0.71279
0.712936
0.713098
0.713263
0.713419
0.713554
0.713659
0.713732
0.713781
0.713812
0.71384
0.712112
0.71207
0.712062
0.71202
0.712006
0.71196
0.711941
0.711884
0.711869
0.711786
0.711795
0.711822
0.711811
0.711812
0.711798
0.711793
0.711781
0.711774
0.711766
0.711761
0.711756
0.711753
0.711748
0.711746
0.711743
0.711744
0.711749
0.711761
0.71178
0.711808
0.71184
0.711874
0.711902
0.711917
0.711915
0.711892
0.711848
0.711788
0.71172
0.711655
0.711601
0.711568
0.711559
0.711578
0.711624
0.711695
0.711787
0.711895
0.712012
0.712135
0.712255
0.712369
0.712471
0.712557
0.712625
)
;

boundaryField
{
    inlet
    {
        type            zeroGradient;
    }
    outlet
    {
        type            fixedValue;
        value           nonuniform 0();
    }
    walls
    {
        type            zeroGradient;
    }
    symwall
    {
        type            empty;
    }
    procBoundary0to1
    {
        type            processor;
        value           nonuniform List<scalar> 10(0.715237 0.715238 0.71522 0.715175 0.715093 0.71496 0.714768 0.714512 0.714204 0.713869);
    }
    procBoundary0to2
    {
        type            processor;
        value           nonuniform List<scalar> 
133
(
0.71267
0.712692
0.712698
0.71268
0.712648
0.712589
0.712524
0.71247
0.71241
0.712392
0.712414
0.712432
0.712506
0.712653
0.712789
0.712857
0.712848
0.712772
0.712637
0.712454
0.712241
0.712014
0.711793
0.711594
0.71143
0.711313
0.711249
0.711243
0.711293
0.711398
0.711549
0.711739
0.711958
0.712197
0.712446
0.712698
0.712944
0.713176
0.713384
0.713561
0.7137
0.713795
0.713845
0.713856
0.713834
0.713788
0.71373
0.713667
0.713596
0.713519
0.713435
0.713345
0.713248
0.713145
0.713039
0.712932
0.712832
0.712742
0.712667
0.712612
0.712578
0.712569
0.712585
0.712627
0.712696
0.71279
0.712906
0.713036
0.713169
0.713292
0.713395
0.713468
0.71351
0.713525
0.713525
0.713521
0.713529
0.712122
0.712074
0.712067
0.712023
0.712009
0.711962
0.711943
0.711887
0.711866
0.71179
0.711754
0.711806
0.711794
0.711813
0.711802
0.711805
0.711794
0.711792
0.711784
0.711782
0.711777
0.711776
0.711773
0.711773
0.711774
0.711779
0.711787
0.711802
0.711823
0.71185
0.71188
0.71191
0.711935
0.711952
0.711955
0.711944
0.711919
0.711884
0.711846
0.711812
0.711788
0.71178
0.711791
0.711824
0.711876
0.711946
0.712029
0.712121
0.712218
0.712314
0.712403
0.712483
0.712549
0.712602
0.71267
0.712639
)
;
    }
}


// ************************************************************************* //
