/*--------------------------------*- C++ -*----------------------------------*\
| =========                 |                                                 |
| \\      /  F ield         | OpenFOAM: The Open Source CFD Toolbox           |
|  \\    /   O peration     | Version:  4.1                                   |
|   \\  /    A nd           | Web:      www.OpenFOAM.org                      |
|    \\/     M anipulation  |                                                 |
\*---------------------------------------------------------------------------*/
FoamFile
{
    version     2.0;
    format      ascii;
    class       volVectorField;
    location    "0.0081";
    object      U;
}
// * * * * * * * * * * * * * * * * * * * * * * * * * * * * * * * * * * * * * //

dimensions      [0 1 -1 0 0 0 0];

internalField   nonuniform List<vector> 
441
(
(-0.000139722 0.000133606 0)
(-0.000596371 0.000290259 0)
(-0.00113524 0.000385162 0)
(-0.00169335 0.000414812 0)
(-0.00222658 0.000400603 0)
(-0.00270785 0.000359589 0)
(-0.00312007 0.000302289 0)
(-0.00345187 0.000234749 0)
(-0.00369529 0.000160604 0)
(-0.00384486 8.23484e-05 0)
(-0.00389722 1.97988e-06 0)
(-0.00385102 -7.86689e-05 0)
(-0.00370695 -0.000157737 0)
(-0.00346776 -0.000233141 0)
(-0.00313847 -0.000302244 0)
(-0.00272675 -0.000361208 0)
(-0.00224398 -0.000403728 0)
(-0.00170751 -0.00041897 0)
(-0.00114501 -0.000389548 0)
(-0.000601463 -0.00029379 0)
(-0.000140828 -0.000135226 0)
(-0.000318184 0.000584607 0)
(-0.0013575 0.00127404 0)
(-0.00256336 0.00161757 0)
(-0.00379743 0.00170461 0)
(-0.004967 0.00162831 0)
(-0.00601687 0.00145327 0)
(-0.00691273 0.00121795 0)
(-0.00763183 0.000944243 0)
(-0.00815828 0.000645436 0)
(-0.00848109 0.000330825 0)
(-0.00859356 8.04714e-06 0)
(-0.00849301 -0.000315814 0)
(-0.00818085 -0.000633566 0)
(-0.00766266 -0.000937249 0)
(-0.0069485 -0.00121702 0)
(-0.00605375 -0.00145883 0)
(-0.00500106 -0.00163978 0)
(-0.00382525 -0.00172026 0)
(-0.0025826 -0.0016344 0)
(-0.00136749 -0.00128795 0)
(-0.000320207 -0.000590938 0)
(-0.000451803 0.00114928 0)
(-0.00185211 0.00248531 0)
(-0.00345608 0.00311563 0)
(-0.00508801 0.00325889 0)
(-0.00662965 0.00309949 0)
(-0.00801045 0.00275902 0)
(-0.00918658 0.00230837 0)
(-0.0101292 0.0017876 0)
(-0.0108185 0.00122096 0)
(-0.0112407 0.000625417 0)
(-0.0113878 1.49279e-05 0)
(-0.0112564 -0.000597571 0)
(-0.0108482 -0.00119894 0)
(-0.0101699 -0.00177466 0)
(-0.0092339 -0.00230673 0)
(-0.00805937 -0.00276952 0)
(-0.00667498 -0.00312111 0)
(-0.00512516 -0.00328839 0)
(-0.0034819 -0.00314743 0)
(-0.00186564 -0.00251163 0)
(-0.000454664 -0.00116117 0)
(-0.000545994 0.00179425 0)
(-0.00219613 0.00385305 0)
(-0.00407053 0.00479818 0)
(-0.00596995 0.00499793 0)
(-0.00775924 0.00474079 0)
(-0.00935805 0.00421229 0)
(-0.0107169 0.00351958 0)
(-0.011804 0.00272291 0)
(-0.0125979 0.00185858 0)
(-0.0130842 0.000951762 0)
(-0.0132541 2.29639e-05 0)
(-0.0131044 -0.000908929 0)
(-0.0126363 -0.00182474 0)
(-0.0118567 -0.00270309 0)
(-0.0107783 -0.0035173 0)
(-0.00942175 -0.00422891 0)
(-0.00781851 -0.00477479 0)
(-0.00601875 -0.00504433 0)
(-0.00410463 -0.00484821 0)
(-0.00221415 -0.00389446 0)
(-0.000549917 -0.00181288 0)
(-0.000624869 0.00250904 0)
(-0.00249096 0.00535752 0)
(-0.00459913 0.00664343 0)
(-0.00672813 0.00689988 0)
(-0.00872729 0.00653088 0)
(-0.010508 0.00579303 0)
(-0.0120169 0.00483378 0)
(-0.0132209 0.00373576 0)
(-0.0140986 0.0025483 0)
(-0.0146363 0.00130509 0)
(-0.0148256 3.29957e-05 0)
(-0.0146632 -0.00124352 0)
(-0.0141498 -0.00249961 0)
(-0.0132913 -0.0037072 0)
(-0.0120994 -0.00483053 0)
(-0.010594 -0.00581722 0)
(-0.00880781 -0.00658048 0)
(-0.00679483 -0.00696774 0)
(-0.00464604 -0.00671675 0)
(-0.00251597 -0.00541829 0)
(-0.000630444 -0.00253637 0)
(-0.000706623 0.00330105 0)
(-0.00280443 0.00701577 0)
(-0.00516429 0.00867168 0)
(-0.00753849 0.0089839 0)
(-0.00975854 0.00848537 0)
(-0.0117272 0.00751259 0)
(-0.0133882 0.00625847 0)
(-0.0147086 0.00483076 0)
(-0.0156689 0.00329292 0)
(-0.0162572 0.00168717 0)
(-0.0164666 4.61857e-05 0)
(-0.0162939 -0.00160089 0)
(-0.0157389 -0.00322442 0)
(-0.0148052 -0.00479022 0)
(-0.0135019 -0.00625333 0)
(-0.0118466 -0.00754612 0)
(-0.00987105 -0.00855511 0)
(-0.00763239 -0.00907999 0)
(-0.00523086 -0.00877603 0)
(-0.00284024 -0.00710257 0)
(-0.000714763 -0.00334021 0)
(-0.000803202 0.00418875 0)
(-0.00317978 0.00886592 0)
(-0.0058418 0.0109267 0)
(-0.00850702 0.0112909 0)
(-0.0109848 0.0106382 0)
(-0.0131683 0.0093968 0)
(-0.0149993 0.00781199 0)
(-0.0164473 0.00602013 0)
(-0.0174967 0.00410004 0)
(-0.0181396 0.00210222 0)
(-0.0183715 6.3964e-05 0)
(-0.0181899 -0.00198251 0)
(-0.017593 -0.00400441 0)
(-0.0165809 -0.00596259 0)
(-0.0151577 -0.00780314 0)
(-0.0133358 -0.00944178 0)
(-0.0111439 -0.0107343 0)
(-0.00864098 -0.0114249 0)
(-0.00593763 -0.0110734 0)
(-0.00323181 -0.00898873 0)
(-0.000815214 -0.00424453 0)
(-0.000923375 0.00519854 0)
(-0.00364889 0.0109603 0)
(-0.00668605 0.013467 0)
(-0.00970689 0.0138741 0)
(-0.0124929 0.013032 0)
(-0.0149268 0.0114767 0)
(-0.0169505 0.00951516 0)
(-0.0185392 0.00731696 0)
(-0.0196848 0.00497744 0)
(-0.0203862 0.00255454 0)
(-0.0206434 8.81116e-05 0)
(-0.020455 -0.00238922 0)
(-0.019817 -0.0048442 0)
(-0.0187237 -0.00723491 0)
(-0.0171709 -0.00949934 0)
(-0.015162 -0.0115352 0)
(-0.0127187 -0.0131625 0)
(-0.00989897 -0.0140593 0)
(-0.00682486 -0.0136722 0)
(-0.00372501 -0.0111337 0)
(-0.000941174 -0.00527808 0)
(-0.00107552 0.00636464 0)
(-0.00424285 0.0133644 0)
(-0.00774869 0.0163635 0)
(-0.0112043 0.0167948 0)
(-0.0143564 0.0157125 0)
(-0.0170773 0.0137822 0)
(-0.0193133 0.0113855 0)
(-0.0210511 0.00873029 0)
(-0.0222955 0.00592953 0)
(-0.0230562 0.00304673 0)
(-0.0233407 0.000120881 0)
(-0.0231496 -0.00281917 0)
(-0.0224754 -0.005744 0)
(-0.0213042 -0.0086126 0)
(-0.0196186 -0.011357 0)
(-0.0174068 -0.0138559 0)
(-0.0146767 -0.0158873 0)
(-0.0114804 -0.0170493 0)
(-0.00795067 -0.0166502 0)
(-0.00435484 -0.0136096 0)
(-0.00110199 -0.00647852 0)
(-0.00126948 0.00773128 0)
(-0.00499915 0.0161603 0)
(-0.00909044 0.0197009 0)
(-0.0130734 0.0201209 0)
(-0.0166518 0.0187244 0)
(-0.0196906 0.0163374 0)
(-0.0221481 0.0134317 0)
(-0.0240317 0.0102604 0)
(-0.0253672 0.00695399 0)
(-0.0261817 0.00357798 0)
(-0.0264935 0.000165101 0)
(-0.0263066 -0.00326587 0)
(-0.0256093 -0.00669584 0)
(-0.0243751 -0.0100907 0)
(-0.0225674 -0.0133806 0)
(-0.0201497 -0.0164256 0)
(-0.0171053 -0.0189551 0)
(-0.0134707 -0.0204683 0)
(-0.00938564 -0.020101 0)
(-0.00516497 -0.0165082 0)
(-0.00130909 -0.00789536 0)
(-0.00151742 0.00935718 0)
(-0.00596518 0.0194528 0)
(-0.0107856 0.0235806 0)
(-0.0153988 0.0239252 0)
(-0.0194585 0.0221066 0)
(-0.0228296 0.0191527 0)
(-0.0254968 0.0156467 0)
(-0.0275023 0.0118929 0)
(-0.0289047 0.00803751 0)
(-0.0297565 0.00414186 0)
(-0.0300919 0.000224191 0)
(-0.0299203 -0.00371585 0)
(-0.0292245 -0.0076789 0)
(-0.0279612 -0.0116468 0)
(-0.0260655 -0.0155556 0)
(-0.0234636 -0.01925 0)
(-0.0200974 -0.0224041 0)
(-0.0159701 -0.0243953 0)
(-0.0112183 -0.0241384 0)
(-0.00621213 -0.0199488 0)
(-0.001577 -0.00959543 0)
(-0.00183218 0.0113219 0)
(-0.00719375 0.0233786 0)
(-0.0129112 0.0281231 0)
(-0.0182567 0.0282801 0)
(-0.0228294 0.0258812 0)
(-0.0265121 0.0222134 0)
(-0.029339 0.0179962 0)
(-0.0314081 0.0135898 0)
(-0.0328267 0.00914988 0)
(-0.0336828 0.00472326 0)
(-0.0340319 0.000301899 0)
(-0.0338914 -0.004146 0)
(-0.0332375 -0.0086536 0)
(-0.0320057 -0.0132321 0)
(-0.0300933 -0.0178363 0)
(-0.0273721 -0.0223041 0)
(-0.0237178 -0.0262517 0)
(-0.0190719 -0.028907 0)
(-0.0135439 -0.028898 0)
(-0.00756202 -0.0240881 0)
(-0.00192201 -0.0116708 0)
(-0.00221954 0.0137334 0)
(-0.00871644 0.0281118 0)
(-0.0154971 0.0334619 0)
(-0.021638 0.0332404 0)
(-0.0266923 0.0300319 0)
(-0.0305943 0.0254582 0)
(-0.0334647 0.0204019 0)
(-0.0354855 0.0152771 0)
(-0.0368301 0.0102358 0)
(-0.0376325 0.00529404 0)
(-0.0379752 0.000401381 0)
(-0.0378854 -0.00452087 0)
(-0.0373335 -0.0095546 0)
(-0.0362303 -0.0147586 0)
(-0.0344267 -0.0201264 0)
(-0.0317219 -0.0255078 0)
(-0.0278936 -0.0304671 0)
(-0.0227767 -0.0340563 0)
(-0.0164087 -0.0345285 0)
(-0.00926075 -0.0291277 0)
(-0.00235402 -0.014248 0)
(-0.00265503 0.0167302 0)
(-0.0104616 0.0338558 0)
(-0.0183788 0.0397125 0)
(-0.0252436 0.0387992 0)
(-0.0306 0.0344589 0)
(-0.0344939 0.0287423 0)
(-0.0371816 0.022714 0)
(-0.0389601 0.016827 0)
(-0.0400847 0.0112043 0)
(-0.0407412 0.00580711 0)
(-0.0410409 0.000522954 0)
(-0.0410227 -0.00479119 0)
(-0.0406526 -0.010284 0)
(-0.0398189 -0.0160842 0)
(-0.0383238 -0.022253 0)
(-0.0358808 -0.0286856 0)
(-0.0321375 -0.0349195 0)
(-0.0267632 -0.0398164 0)
(-0.0196459 -0.0411499 0)
(-0.0112446 -0.0353002 0)
(-0.00285193 -0.0174913 0)
(-0.00302796 0.020463 0)
(-0.0120535 0.0407819 0)
(-0.0208547 0.0468743 0)
(-0.0280277 0.0447839 0)
(-0.0332018 0.0388932 0)
(-0.0366218 0.0317762 0)
(-0.0387313 0.0246734 0)
(-0.0399611 0.0180359 0)
(-0.0406485 0.0119162 0)
(-0.0410241 0.00618942 0)
(-0.0412216 0.000659779 0)
(-0.0412899 -0.00489557 0)
(-0.0411956 -0.0107081 0)
(-0.0408153 -0.0169993 0)
(-0.0399162 -0.0239345 0)
(-0.0381347 -0.031506 0)
(-0.0349751 -0.0392822 0)
(-0.0298859 -0.0459582 0)
(-0.0224959 -0.0487329 0)
(-0.0131201 -0.042792 0)
(-0.00330398 -0.0215818 0)
(-0.00302315 0.0250191 0)
(-0.0123942 0.0488456 0)
(-0.0210089 0.0545988 0)
(-0.0273526 0.0506495 0)
(-0.0313163 0.0427485 0)
(-0.0334327 0.0340372 0)
(-0.0343456 0.0258658 0)
(-0.0345926 0.0186041 0)
(-0.0345548 0.0121757 0)
(-0.0344743 0.00633646 0)
(-0.0344857 0.000791588 0)
(-0.03464 -0.00476832 0)
(-0.0349125 -0.0106636 0)
(-0.0351929 -0.0172233 0)
(-0.0352554 -0.0247517 0)
(-0.0347132 -0.0334052 0)
(-0.0329762 -0.0428844 0)
(-0.0292748 -0.0518199 0)
(-0.022876 -0.0568214 0)
(-0.0137142 -0.0515172 0)
(-0.00338399 -0.0266309 0)
(-0.00188246 0.0302169 0)
(-0.00888664 0.0573535 0)
(-0.0145856 0.0617323 0)
(-0.0177286 0.0551387 0)
(-0.0186787 0.0449256 0)
(-0.0182393 0.0346815 0)
(-0.017138 0.0256955 0)
(-0.0158903 0.0181363 0)
(-0.0148163 0.011738 0)
(-0.0140976 0.00611628 0)
(-0.0138278 0.000879506 0)
(-0.0140446 -0.00435539 0)
(-0.0147413 -0.00998254 0)
(-0.0158595 -0.0164304 0)
(-0.0172578 -0.024155 0)
(-0.0186517 -0.0335355 0)
(-0.0195267 -0.0445412 0)
(-0.0190644 -0.0559618 0)
(-0.0162168 -0.0640249 0)
(-0.0102654 -0.0606108 0)
(-0.00230749 -0.0324499 0)
(0.00212651 0.0351975 0)
(0.00395765 0.0642067 0)
(0.00660922 0.0656658 0)
(0.0105628 0.0559238 0)
(0.0150924 0.0436962 0)
(0.0195141 0.0325597 0)
(0.0233979 0.0234497 0)
(0.0265313 0.0162102 0)
(0.0288346 0.0103609 0)
(0.0302909 0.00539796 0)
(0.0309028 0.00086963 0)
(0.0306679 -0.0036378 0)
(0.0295677 -0.00854556 0)
(0.0275669 -0.0143328 0)
(0.0246252 -0.0215667 0)
(0.0207357 -0.0308484 0)
(0.0160109 -0.0425267 0)
(0.0108393 -0.055884 0)
(0.00607599 -0.0673728 0)
(0.00296637 -0.0675894 0)
(0.00170674 -0.0380912 0)
(0.0135467 0.0373836 0)
(0.0373451 0.0644445 0)
(0.0567161 0.0616171 0)
(0.0721701 0.0495586 0)
(0.0841379 0.0369623 0)
(0.0932041 0.0265315 0)
(0.0999387 0.0185617 0)
(0.104806 0.0125638 0)
(0.108151 0.00792645 0)
(0.110207 0.00411984 0)
(0.111109 0.000715758 0)
(0.110904 -0.00265518 0)
(0.109551 -0.0063631 0)
(0.106907 -0.0108428 0)
(0.102691 -0.0166516 0)
(0.0964476 -0.0244809 0)
(0.0875093 -0.0350003 0)
(0.0750433 -0.0482332 0)
(0.0583415 -0.0618386 0)
(0.0374147 -0.0669603 0)
(0.0132829 -0.0407731 0)
(0.04797 0.0321333 0)
(0.115437 0.0506331 0)
(0.158663 0.0441668 0)
(0.185786 0.0332617 0)
(0.2034 0.0236881 0)
(0.215086 0.0164353 0)
(0.222968 0.0112132 0)
(0.22829 0.00745407 0)
(0.231791 0.00464667 0)
(0.233897 0.00240068 0)
(0.234836 0.000423644 0)
(0.234693 -0.00152442 0)
(0.233418 -0.00367871 0)
(0.230812 -0.00631837 0)
(0.226444 -0.00981748 0)
(0.219508 -0.0146874 0)
(0.208551 -0.0215631 0)
(0.191028 -0.030978 0)
(0.16276 -0.0424987 0)
(0.116966 -0.0510736 0)
(0.0480433 -0.035331 0)
(0.182407 0.00409118 0)
(0.294423 0.00625631 0)
(0.345443 0.00855264 0)
(0.369204 0.00769183 0)
(0.38216 0.00585985 0)
(0.389785 0.00417557 0)
(0.394548 0.00287495 0)
(0.397605 0.0019137 0)
(0.39955 0.00118934 0)
(0.400699 0.000608897 0)
(0.401208 9.86167e-05 0)
(0.401138 -0.000402494 0)
(0.40046 -0.000952168 0)
(0.399052 -0.00161321 0)
(0.396629 -0.00245659 0)
(0.39261 -0.00354762 0)
(0.385771 -0.00488202 0)
(0.373366 -0.0062112 0)
(0.349168 -0.00665792 0)
(0.295643 -0.00511413 0)
(0.180707 -0.00674066 0)
)
;

boundaryField
{
    movingWall
    {
        type            fixedValue;
        value           uniform (0.5 0 0);
    }
    fixedWalls
    {
        type            noSlip;
    }
    frontAndBack
    {
        type            empty;
    }
}


// ************************************************************************* //
