/*--------------------------------*- C++ -*----------------------------------*\
| =========                 |                                                 |
| \\      /  F ield         | OpenFOAM: The Open Source CFD Toolbox           |
|  \\    /   O peration     | Version:  4.1                                   |
|   \\  /    A nd           | Web:      www.OpenFOAM.org                      |
|    \\/     M anipulation  |                                                 |
\*---------------------------------------------------------------------------*/
FoamFile
{
    version     2.0;
    format      ascii;
    class       volVectorField;
    location    "772";
    object      U;
}
// * * * * * * * * * * * * * * * * * * * * * * * * * * * * * * * * * * * * * //

dimensions      [0 1 -1 0 0 0 0];

internalField   nonuniform List<vector> 
3264
(
(-2.66251e-06 -4.78954e-07 0)
(-0.000133192 3.05665e-05 0)
(-0.000389821 4.86678e-05 0)
(-0.000677086 5.10057e-05 0)
(-0.000979016 5.27292e-05 0)
(-0.00128497 5.21311e-05 0)
(-0.00158962 5.34254e-05 0)
(-0.00189431 5.40599e-05 0)
(-0.00219442 5.51514e-05 0)
(-0.00249066 5.57606e-05 0)
(-0.00278042 5.6297e-05 0)
(-0.00306389 5.65156e-05 0)
(-0.00333996 5.65777e-05 0)
(-0.00360869 5.64444e-05 0)
(-0.00386971 5.61878e-05 0)
(-0.00412309 5.5819e-05 0)
(-0.00436878 5.53752e-05 0)
(-0.00460688 5.48735e-05 0)
(-0.00483745 5.43348e-05 0)
(-0.0050606 5.37721e-05 0)
(-0.00527642 5.31974e-05 0)
(-0.00548501 5.26184e-05 0)
(-0.00568644 5.20411e-05 0)
(-0.00588076 5.14687e-05 0)
(-0.006068 5.09024e-05 0)
(-0.00624815 5.03408e-05 0)
(-0.00642114 4.97806e-05 0)
(-0.00658689 4.92157e-05 0)
(-0.00674525 4.86377e-05 0)
(-0.00689599 4.80353e-05 0)
(-0.00703886 4.73946e-05 0)
(-0.00717351 4.66987e-05 0)
(-0.00729953 4.59278e-05 0)
(-0.00741642 4.50591e-05 0)
(-0.00752362 4.40674e-05 0)
(-0.00762048 4.2925e-05 0)
(-0.00770627 4.16024e-05 0)
(-0.0077802 4.00684e-05 0)
(-0.0078414 3.82917e-05 0)
(-0.00788895 3.6241e-05 0)
(-0.00792186 3.38861e-05 0)
(-0.00793912 3.11995e-05 0)
(-0.00793969 2.81567e-05 0)
(-0.00792252 2.47381e-05 0)
(-0.00788659 2.09295e-05 0)
(-0.00783089 1.67234e-05 0)
(-0.00775447 1.21198e-05 0)
(-0.00765647 7.12687e-06 0)
(-0.00753612 1.76143e-06 0)
(-0.00739277 -3.95082e-06 0)
(-0.00722589 -9.9753e-06 0)
(-0.00703513 -1.62688e-05 0)
(-0.0068203 -2.27802e-05 0)
(-0.00658141 -2.94508e-05 0)
(-0.00631866 -3.6216e-05 0)
(-0.00603244 -4.30056e-05 0)
(-0.00572338 -4.97461e-05 0)
(-0.0053923 -5.63616e-05 0)
(-0.00504023 -6.27753e-05 0)
(-0.00466841 -6.89115e-05 0)
(-0.00427826 -7.46968e-05 0)
(-0.00387138 -8.00619e-05 0)
(-0.00344955 -8.49429e-05 0)
(-0.00301468 -8.9283e-05 0)
(-0.00256879 -9.3033e-05 0)
(-0.00211402 -9.61532e-05 0)
(-0.00165258 -9.86134e-05 0)
(-0.00118671 -0.000100394 0)
(-0.000718696 -0.000101486 0)
(-0.000250795 -0.000101892 0)
(0.000214765 -0.000101624 0)
(0.000675814 -0.000100706 0)
(0.00113027 -9.91684e-05 0)
(0.00157617 -9.70538e-05 0)
(0.00201167 -9.44104e-05 0)
(0.00243508 -9.12933e-05 0)
(0.00284489 -8.77622e-05 0)
(0.00323975 -8.38806e-05 0)
(0.00361851 -7.97138e-05 0)
(0.0039802 -7.53279e-05 0)
(0.00432408 -7.07878e-05 0)
(0.00464956 -6.61565e-05 0)
(0.00495629 -6.14936e-05 0)
(0.00524406 -5.68544e-05 0)
(0.00551286 -5.22892e-05 0)
(0.00576285 -4.78425e-05 0)
(0.00599432 -4.35525e-05 0)
(0.00620771 -3.94514e-05 0)
(0.00640356 -3.55648e-05 0)
(0.00658253 -3.19124e-05 0)
(0.00674536 -2.85079e-05 0)
(0.00689284 -2.53594e-05 0)
(0.00702584 -2.24703e-05 0)
(0.00714525 -1.98395e-05 0)
(0.00725198 -1.74623e-05 0)
(0.00734695 -1.53308e-05 0)
(0.00743108 -1.34344e-05 0)
(0.00750527 -1.17609e-05 0)
(0.00757043 -1.02963e-05 0)
(0.00762739 -9.02612e-06 0)
(0.00767698 -7.93494e-06 0)
(0.00771998 -7.00742e-06 0)
(0.00775712 -6.22832e-06 0)
(0.0077891 -5.58279e-06 0)
(0.00781656 -5.05654e-06 0)
(0.0078401 -4.63603e-06 0)
(0.00786026 -4.3085e-06 0)
(0.00787754 -4.06207e-06 0)
(0.0078924 -3.88578e-06 0)
(0.00790525 -3.76955e-06 0)
(0.00791646 -3.70422e-06 0)
(0.00792636 -3.68148e-06 0)
(0.00793523 -3.69386e-06 0)
(0.00794334 -3.7347e-06 0)
(0.0079509 -3.79803e-06 0)
(0.00795811 -3.8786e-06 0)
(0.00796514 -3.9718e-06 0)
(0.00797211 -4.07359e-06 0)
(0.00797915 -4.18045e-06 0)
(0.00798636 -4.28939e-06 0)
(0.0079938 -4.39782e-06 0)
(0.00800154 -4.50357e-06 0)
(0.00800962 -4.60481e-06 0)
(0.00801807 -4.70007e-06 0)
(0.00802691 -4.78813e-06 0)
(0.00803616 -4.86804e-06 0)
(0.00804581 -4.93907e-06 0)
(0.00805585 -5.00072e-06 0)
(0.00806627 -5.05262e-06 0)
(0.00807705 -5.0946e-06 0)
(0.00808817 -5.12659e-06 0)
(0.0080996 -5.14865e-06 0)
(0.00811132 -5.16094e-06 0)
(0.00812328 -5.16371e-06 0)
(0.00813547 -5.15725e-06 0)
(0.00814784 -5.14195e-06 0)
(0.00816036 -5.11822e-06 0)
(0.00817299 -5.08651e-06 0)
(0.00818571 -5.0473e-06 0)
(0.00819848 -5.00109e-06 0)
(0.00821127 -4.94841e-06 0)
(0.00822405 -4.88977e-06 0)
(0.00823679 -4.82569e-06 0)
(0.00824945 -4.7567e-06 0)
(0.00826203 -4.68332e-06 0)
(0.00827448 -4.60603e-06 0)
(0.00828679 -4.52534e-06 0)
(0.00829894 -4.44173e-06 0)
(0.00831091 -4.35563e-06 0)
(0.00832268 -4.26751e-06 0)
(0.00833424 -4.17776e-06 0)
(0.00834557 -4.08679e-06 0)
(0.00835667 -3.99497e-06 0)
(0.00836752 -3.90264e-06 0)
(0.00837812 -3.81014e-06 0)
(0.00838846 -3.71777e-06 0)
(0.00839853 -3.6258e-06 0)
(0.00840835 -3.5345e-06 0)
(0.00841789 -3.4441e-06 0)
(0.00842717 -3.35481e-06 0)
(0.00843618 -3.26682e-06 0)
(0.00844493 -3.1803e-06 0)
(0.00845343 -3.09541e-06 0)
(0.00846167 -3.01226e-06 0)
(0.00846966 -2.93098e-06 0)
(0.00847741 -2.85163e-06 0)
(0.00848494 -2.77431e-06 0)
(0.00849224 -2.69906e-06 0)
(0.00849933 -2.6259e-06 0)
(0.00850621 -2.55487e-06 0)
(0.0085129 -2.48595e-06 0)
(0.0085194 -2.41912e-06 0)
(0.00852574 -2.35433e-06 0)
(0.00853191 -2.29154e-06 0)
(0.00853793 -2.23064e-06 0)
(0.00854381 -2.17154e-06 0)
(0.00854957 -2.1141e-06 0)
(0.0085552 -2.05815e-06 0)
(0.00856073 -2.00348e-06 0)
(0.00856616 -1.94986e-06 0)
(0.0085715 -1.89698e-06 0)
(0.00857675 -1.84446e-06 0)
(0.00858193 -1.79183e-06 0)
(0.00858703 -1.73851e-06 0)
(0.00859207 -1.68373e-06 0)
(0.00859703 -1.6265e-06 0)
(0.00860191 -1.56549e-06 0)
(0.00860671 -1.49897e-06 0)
(0.00861141 -1.42434e-06 0)
(0.00861598 -1.33887e-06 0)
(0.0086204 -1.2363e-06 0)
(0.0086246 -1.11506e-06 0)
(0.00862853 -9.54085e-07 0)
(0.00863203 -7.71646e-07 0)
(0.00863515 -4.86589e-07 0)
(0.00863712 -2.01205e-07 0)
(0.00863919 2.81374e-07 0)
(0.00863745 9.20765e-07 0)
(0.00863889 1.13169e-06 0)
(0.00862928 3.89133e-06 0)
(-8.33627e-05 0.000136414 0)
(-0.000582945 0.000379264 0)
(-0.00131143 0.000518346 0)
(-0.00208611 0.000562447 0)
(-0.00286588 0.000583425 0)
(-0.00363388 0.000585147 0)
(-0.00437677 0.000585096 0)
(-0.00509742 0.000578408 0)
(-0.00578865 0.000569479 0)
(-0.00645263 0.000557296 0)
(-0.00708666 0.00054365 0)
(-0.00769215 0.000528722 0)
(-0.00826874 0.000513235 0)
(-0.00881754 0.000497419 0)
(-0.00933904 0.000481552 0)
(-0.00983417 0.000465761 0)
(-0.0103036 0.000450143 0)
(-0.0107482 0.000434744 0)
(-0.0111684 0.000419581 0)
(-0.011565 0.000404651 0)
(-0.0119382 0.000389932 0)
(-0.0122887 0.000375389 0)
(-0.0126165 0.000360973 0)
(-0.012922 0.000346627 0)
(-0.0132051 0.000332279 0)
(-0.0134658 0.000317851 0)
(-0.0137039 0.000303253 0)
(-0.0139192 0.000288385 0)
(-0.0141113 0.000273138 0)
(-0.0142796 0.000257393 0)
(-0.0144236 0.000241026 0)
(-0.0145424 0.000223902 0)
(-0.0146352 0.000205886 0)
(-0.014701 0.000186837 0)
(-0.0147387 0.000166616 0)
(-0.0147473 0.000145089 0)
(-0.0147254 0.000122125 0)
(-0.0146718 9.76076e-05 0)
(-0.0145852 7.14342e-05 0)
(-0.0144643 4.35209e-05 0)
(-0.0143076 1.38071e-05 0)
(-0.014114 -1.77414e-05 0)
(-0.0138822 -5.11286e-05 0)
(-0.013611 -8.63257e-05 0)
(-0.0132995 -0.000123269 0)
(-0.0129469 -0.000161858 0)
(-0.0125523 -0.000201956 0)
(-0.0121152 -0.000243388 0)
(-0.0116355 -0.000285944 0)
(-0.011113 -0.000329381 0)
(-0.010548 -0.000373424 0)
(-0.00994084 -0.000417771 0)
(-0.00929235 -0.000462095 0)
(-0.00860353 -0.000506052 0)
(-0.00787572 -0.000549284 0)
(-0.00711049 -0.000591424 0)
(-0.00630974 -0.000632106 0)
(-0.00547561 -0.000670963 0)
(-0.00461052 -0.000707641 0)
(-0.0037171 -0.000741799 0)
(-0.00279825 -0.000773119 0)
(-0.00185704 -0.000801307 0)
(-0.000896709 -0.000826102 0)
(7.93271e-05 -0.000847276 0)
(0.00106755 -0.000864642 0)
(0.00206436 -0.000878054 0)
(0.00306608 -0.000887413 0)
(0.00406903 -0.000892664 0)
(0.00506954 -0.000893801 0)
(0.00606399 -0.000890863 0)
(0.00704884 -0.000883939 0)
(0.00802064 -0.00087316 0)
(0.00897612 -0.000858702 0)
(0.00991215 -0.000840778 0)
(0.0108258 -0.000819637 0)
(0.0117145 -0.00079556 0)
(0.0125756 -0.000768851 0)
(0.0134071 -0.000739836 0)
(0.014207 -0.000708855 0)
(0.0149737 -0.000676255 0)
(0.0157058 -0.000642389 0)
(0.0164023 -0.000607604 0)
(0.0170625 -0.000572239 0)
(0.0176859 -0.00053662 0)
(0.0182722 -0.000501057 0)
(0.0188215 -0.000465837 0)
(0.0193342 -0.000431222 0)
(0.0198107 -0.000397449 0)
(0.0202519 -0.000364725 0)
(0.0206585 -0.000333229 0)
(0.0210318 -0.000303109 0)
(0.021373 -0.000274484 0)
(0.0216833 -0.000247447 0)
(0.0219644 -0.00022206 0)
(0.0222176 -0.000198363 0)
(0.0224446 -0.000176372 0)
(0.022647 -0.000156082 0)
(0.0228265 -0.000137469 0)
(0.0229847 -0.000120496 0)
(0.0231231 -0.000105108 0)
(0.0232435 -9.12436e-05 0)
(0.0233473 -7.88297e-05 0)
(0.0234361 -6.77877e-05 0)
(0.0235113 -5.80342e-05 0)
(0.0235743 -4.94829e-05 0)
(0.0236264 -4.20461e-05 0)
(0.0236688 -3.56361e-05 0)
(0.0237027 -3.01664e-05 0)
(0.0237291 -2.55525e-05 0)
(0.0237491 -2.17127e-05 0)
(0.0237635 -1.85687e-05 0)
(0.0237733 -1.60462e-05 0)
(0.0237792 -1.40748e-05 0)
(0.0237818 -1.25888e-05 0)
(0.0237818 -1.15268e-05 0)
(0.0237798 -1.0832e-05 0)
(0.0237762 -1.04521e-05 0)
(0.0237715 -1.03391e-05 0)
(0.023766 -1.04494e-05 0)
(0.0237602 -1.07434e-05 0)
(0.0237542 -1.11855e-05 0)
(0.0237484 -1.17436e-05 0)
(0.0237429 -1.23893e-05 0)
(0.0237378 -1.30974e-05 0)
(0.0237334 -1.38456e-05 0)
(0.0237297 -1.46145e-05 0)
(0.0237268 -1.53874e-05 0)
(0.0237247 -1.61498e-05 0)
(0.0237236 -1.68895e-05 0)
(0.0237233 -1.75963e-05 0)
(0.0237239 -1.82617e-05 0)
(0.0237254 -1.88788e-05 0)
(0.0237278 -1.94424e-05 0)
(0.0237309 -1.99484e-05 0)
(0.0237349 -2.03939e-05 0)
(0.0237396 -2.07772e-05 0)
(0.0237449 -2.10972e-05 0)
(0.0237509 -2.1354e-05 0)
(0.0237575 -2.15481e-05 0)
(0.0237645 -2.16808e-05 0)
(0.0237719 -2.17537e-05 0)
(0.0237798 -2.17691e-05 0)
(0.0237879 -2.17294e-05 0)
(0.0237963 -2.16375e-05 0)
(0.0238049 -2.14965e-05 0)
(0.0238136 -2.13097e-05 0)
(0.0238224 -2.10804e-05 0)
(0.0238312 -2.08122e-05 0)
(0.0238401 -2.05086e-05 0)
(0.0238488 -2.01732e-05 0)
(0.0238575 -1.98096e-05 0)
(0.023866 -1.94214e-05 0)
(0.0238743 -1.90121e-05 0)
(0.0238824 -1.85851e-05 0)
(0.0238904 -1.81437e-05 0)
(0.023898 -1.76912e-05 0)
(0.0239054 -1.72307e-05 0)
(0.0239125 -1.67652e-05 0)
(0.0239194 -1.62975e-05 0)
(0.0239259 -1.58305e-05 0)
(0.0239321 -1.53666e-05 0)
(0.0239381 -1.49083e-05 0)
(0.0239437 -1.44578e-05 0)
(0.023949 -1.40172e-05 0)
(0.023954 -1.35884e-05 0)
(0.0239588 -1.31732e-05 0)
(0.0239633 -1.27732e-05 0)
(0.0239675 -1.23897e-05 0)
(0.0239715 -1.20241e-05 0)
(0.0239753 -1.16774e-05 0)
(0.0239789 -1.13504e-05 0)
(0.0239824 -1.10438e-05 0)
(0.0239857 -1.07582e-05 0)
(0.0239888 -1.04938e-05 0)
(0.0239919 -1.02507e-05 0)
(0.0239948 -1.00287e-05 0)
(0.0239978 -9.82751e-06 0)
(0.0240007 -9.64641e-06 0)
(0.0240036 -9.48449e-06 0)
(0.0240065 -9.34048e-06 0)
(0.0240095 -9.21271e-06 0)
(0.0240126 -9.09907e-06 0)
(0.0240157 -8.99688e-06 0)
(0.024019 -8.90276e-06 0)
(0.0240224 -8.81242e-06 0)
(0.0240259 -8.72036e-06 0)
(0.0240296 -8.61948e-06 0)
(0.0240334 -8.50052e-06 0)
(0.0240373 -8.35104e-06 0)
(0.0240413 -8.15516e-06 0)
(0.0240454 -7.88791e-06 0)
(0.0240495 -7.52756e-06 0)
(0.0240535 -7.00398e-06 0)
(0.0240573 -6.33893e-06 0)
(0.0240607 -5.25183e-06 0)
(0.0240634 -4.08373e-06 0)
(0.0240654 -1.89274e-06 0)
(0.0240646 5.46114e-07 0)
(0.0240652 2.98091e-06 0)
(0.0240548 1.18513e-05 0)
(-0.000178845 0.000645013 0)
(-0.00104301 0.00125407 0)
(-0.00216777 0.00153299 0)
(-0.00330498 0.00157444 0)
(-0.00439323 0.00156961 0)
(-0.00542188 0.00152635 0)
(-0.00637526 0.00148276 0)
(-0.00726445 0.00143043 0)
(-0.00808604 0.00137721 0)
(-0.00884819 0.00132143 0)
(-0.00955224 0.00126561 0)
(-0.0102033 0.00120994 0)
(-0.0108039 0.00115522 0)
(-0.0113573 0.00110166 0)
(-0.0118658 0.00104944 0)
(-0.0123318 0.00099858 0)
(-0.0127571 0.000949047 0)
(-0.0131431 0.000900742 0)
(-0.0134914 0.000853534 0)
(-0.0138029 0.000807271 0)
(-0.0140786 0.000761781 0)
(-0.014319 0.00071688 0)
(-0.0145248 0.000672374 0)
(-0.0146962 0.000628057 0)
(-0.0148333 0.000583716 0)
(-0.0149362 0.000539128 0)
(-0.0150048 0.000494063 0)
(-0.0150387 0.000448282 0)
(-0.0150376 0.000401544 0)
(-0.015001 0.0003536 0)
(-0.0149281 0.000304206 0)
(-0.0148184 0.000253116 0)
(-0.014671 0.000200094 0)
(-0.014485 0.000144915 0)
(-0.0142596 8.73696e-05 0)
(-0.0139939 2.72721e-05 0)
(-0.0136869 -3.55363e-05 0)
(-0.0133376 -0.00010118 0)
(-0.0129453 -0.000169746 0)
(-0.012509 -0.000241273 0)
(-0.0120281 -0.000315755 0)
(-0.0115018 -0.000393129 0)
(-0.0109297 -0.000473279 0)
(-0.0103114 -0.000556028 0)
(-0.00964678 -0.000641141 0)
(-0.00893573 -0.000728323 0)
(-0.00817849 -0.000817222 0)
(-0.00737549 -0.000907429 0)
(-0.00652737 -0.000998484 0)
(-0.00563504 -0.00108988 0)
(-0.00469964 -0.00118107 0)
(-0.00372259 -0.00127147 0)
(-0.00270555 -0.00136047 0)
(-0.00165042 -0.00144744 0)
(-0.000559387 -0.00153174 0)
(0.000565141 -0.00161273 0)
(0.00172052 -0.00168977 0)
(0.00290388 -0.00176224 0)
(0.00411214 -0.00182954 0)
(0.00534206 -0.00189111 0)
(0.0065902 -0.00194643 0)
(0.007853 -0.00199504 0)
(0.00912677 -0.00203651 0)
(0.0104077 -0.0020705 0)
(0.0116921 -0.00209673 0)
(0.0129759 -0.00211499 0)
(0.0142554 -0.00212515 0)
(0.0155266 -0.00212716 0)
(0.0167859 -0.00212106 0)
(0.0180296 -0.00210697 0)
(0.019254 -0.00208506 0)
(0.0204558 -0.00205563 0)
(0.0216318 -0.002019 0)
(0.0227789 -0.00197559 0)
(0.0238944 -0.00192588 0)
(0.0249758 -0.00187038 0)
(0.0260206 -0.00180968 0)
(0.0270271 -0.00174437 0)
(0.0279933 -0.00167509 0)
(0.028918 -0.00160249 0)
(0.0297999 -0.00152722 0)
(0.0306382 -0.00144995 0)
(0.0314324 -0.00137132 0)
(0.0321822 -0.00129195 0)
(0.0328876 -0.00121244 0)
(0.0335487 -0.00113335 0)
(0.0341661 -0.00105521 0)
(0.0347405 -0.000978497 0)
(0.0352727 -0.000903642 0)
(0.0357638 -0.00083103 0)
(0.0362151 -0.000760992 0)
(0.0366279 -0.000693809 0)
(0.0370037 -0.000629708 0)
(0.0373441 -0.000568871 0)
(0.0376507 -0.000511428 0)
(0.0379254 -0.000457469 0)
(0.0381698 -0.000407038 0)
(0.0383857 -0.000360144 0)
(0.0385751 -0.000316762 0)
(0.0387395 -0.000276833 0)
(0.0388809 -0.000240275 0)
(0.0390009 -0.000206983 0)
(0.0391014 -0.000176832 0)
(0.0391838 -0.000149682 0)
(0.0392499 -0.000125381 0)
(0.0393012 -0.000103771 0)
(0.0393391 -8.46834e-05 0)
(0.039365 -6.79504e-05 0)
(0.0393803 -5.34014e-05 0)
(0.0393861 -4.08672e-05 0)
(0.0393837 -3.01814e-05 0)
(0.039374 -2.11817e-05 0)
(0.0393582 -1.37114e-05 0)
(0.0393371 -7.61986e-06 0)
(0.0393116 -2.76373e-06 0)
(0.0392823 9.9277e-07 0)
(0.0392502 3.77743e-06 0)
(0.0392156 5.7098e-06 0)
(0.0391793 6.90113e-06 0)
(0.0391418 7.45437e-06 0)
(0.0391033 7.4643e-06 0)
(0.0390645 7.01771e-06 0)
(0.0390255 6.19365e-06 0)
(0.0389868 5.06376e-06 0)
(0.0389484 3.69257e-06 0)
(0.0389107 2.1379e-06 0)
(0.0388739 4.51203e-07 0)
(0.038838 -1.322e-06 0)
(0.0388031 -3.14176e-06 0)
(0.0387694 -4.97329e-06 0)
(0.0387368 -6.78658e-06 0)
(0.0387056 -8.55603e-06 0)
(0.0386755 -1.02601e-05 0)
(0.0386467 -1.18808e-05 0)
(0.0386192 -1.34037e-05 0)
(0.0385928 -1.48173e-05 0)
(0.0385677 -1.61128e-05 0)
(0.0385436 -1.7284e-05 0)
(0.0385206 -1.83266e-05 0)
(0.0384987 -1.92386e-05 0)
(0.0384777 -2.00195e-05 0)
(0.0384576 -2.06703e-05 0)
(0.0384384 -2.11934e-05 0)
(0.0384199 -2.15923e-05 0)
(0.0384021 -2.18715e-05 0)
(0.0383849 -2.20362e-05 0)
(0.0383683 -2.20923e-05 0)
(0.0383522 -2.20465e-05 0)
(0.0383365 -2.19055e-05 0)
(0.0383212 -2.16768e-05 0)
(0.0383062 -2.13678e-05 0)
(0.0382915 -2.09862e-05 0)
(0.0382771 -2.05399e-05 0)
(0.0382628 -2.00367e-05 0)
(0.0382487 -1.94843e-05 0)
(0.0382347 -1.88905e-05 0)
(0.0382207 -1.82628e-05 0)
(0.0382068 -1.76088e-05 0)
(0.0381929 -1.69355e-05 0)
(0.0381791 -1.62501e-05 0)
(0.0381652 -1.55592e-05 0)
(0.0381514 -1.48693e-05 0)
(0.0381375 -1.41865e-05 0)
(0.0381235 -1.35168e-05 0)
(0.0381096 -1.28655e-05 0)
(0.0380956 -1.22378e-05 0)
(0.0380817 -1.16385e-05 0)
(0.0380677 -1.10719e-05 0)
(0.0380537 -1.05422e-05 0)
(0.0380398 -1.00528e-05 0)
(0.0380259 -9.60687e-06 0)
(0.0380121 -9.20723e-06 0)
(0.0379985 -8.85612e-06 0)
(0.0379849 -8.55535e-06 0)
(0.0379715 -8.30623e-06 0)
(0.0379583 -8.10956e-06 0)
(0.0379453 -7.96556e-06 0)
(0.0379325 -7.87389e-06 0)
(0.03792 -7.83353e-06 0)
(0.0379079 -7.84276e-06 0)
(0.037896 -7.89902e-06 0)
(0.0378846 -7.99883e-06 0)
(0.0378736 -8.13761e-06 0)
(0.037863 -8.30943e-06 0)
(0.0378528 -8.5067e-06 0)
(0.0378432 -8.71969e-06 0)
(0.037834 -8.93598e-06 0)
(0.0378253 -9.13933e-06 0)
(0.0378172 -9.3088e-06 0)
(0.0378096 -9.41597e-06 0)
(0.0378025 -9.42388e-06 0)
(0.0377958 -9.28173e-06 0)
(0.0377895 -8.91328e-06 0)
(0.0377836 -8.25331e-06 0)
(0.0377779 -7.05752e-06 0)
(0.0377723 -5.45518e-06 0)
(0.0377663 -2.50381e-06 0)
(0.0377595 1.14438e-06 0)
(0.037753 5.47139e-06 0)
(0.0377384 1.94106e-05 0)
(-0.000305544 0.00126152 0)
(-0.00151624 0.00231494 0)
(-0.00286997 0.002723 0)
(-0.00413687 0.0027329 0)
(-0.00523562 0.00266069 0)
(-0.00621535 0.00253123 0)
(-0.00706223 0.00240206 0)
(-0.00780987 0.00226675 0)
(-0.0084598 0.00213625 0)
(-0.00902875 0.0020091 0)
(-0.00952198 0.00188758 0)
(-0.00994848 0.00177127 0)
(-0.0103131 0.00166028 0)
(-0.0106211 0.00155414 0)
(-0.0108763 0.00145246 0)
(-0.0110818 0.00135474 0)
(-0.0112403 0.00126049 0)
(-0.0113539 0.00116923 0)
(-0.0114244 0.00108051 0)
(-0.011453 0.000993876 0)
(-0.011441 0.000908913 0)
(-0.011389 0.000825205 0)
(-0.0112977 0.000742357 0)
(-0.0111675 0.000659982 0)
(-0.0109985 0.000577701 0)
(-0.010791 0.000495144 0)
(-0.0105447 0.000411947 0)
(-0.0102596 0.000327753 0)
(-0.00993533 0.000242216 0)
(-0.00957155 0.000155 0)
(-0.00916784 6.57827e-05 0)
(-0.00872373 -2.57381e-05 0)
(-0.00823871 -0.000119842 0)
(-0.00771228 -0.000216782 0)
(-0.00714392 -0.000316774 0)
(-0.00653316 -0.000419995 0)
(-0.00587955 -0.000526576 0)
(-0.00518272 -0.000636595 0)
(-0.00444238 -0.000750074 0)
(-0.00365832 -0.000866968 0)
(-0.00283046 -0.000987169 0)
(-0.00195887 -0.00111049 0)
(-0.00104374 -0.00123669 0)
(-8.54546e-05 -0.00136543 0)
(0.000915451 -0.0014963 0)
(0.00195824 -0.00162884 0)
(0.00304196 -0.00176249 0)
(0.00416548 -0.00189664 0)
(0.00532744 -0.00203062 0)
(0.00652625 -0.0021637 0)
(0.00776012 -0.0022951 0)
(0.00902702 -0.00242401 0)
(0.0103247 -0.00254958 0)
(0.0116508 -0.00267097 0)
(0.0130025 -0.00278729 0)
(0.014377 -0.00289769 0)
(0.0157714 -0.00300131 0)
(0.0171823 -0.00309735 0)
(0.0186064 -0.003185 0)
(0.0200402 -0.00326355 0)
(0.0214801 -0.00333231 0)
(0.0229223 -0.0033907 0)
(0.0243631 -0.00343819 0)
(0.0257988 -0.00347435 0)
(0.0272254 -0.00349886 0)
(0.0286391 -0.00351149 0)
(0.0300363 -0.00351212 0)
(0.0314133 -0.00350075 0)
(0.0327664 -0.00347749 0)
(0.0340924 -0.00344256 0)
(0.0353879 -0.0033963 0)
(0.03665 -0.00333914 0)
(0.0378759 -0.00327164 0)
(0.0390629 -0.00319441 0)
(0.0402088 -0.00310819 0)
(0.0413115 -0.00301376 0)
(0.0423694 -0.00291198 0)
(0.0433809 -0.00280374 0)
(0.044345 -0.00268998 0)
(0.0452609 -0.00257165 0)
(0.046128 -0.00244971 0)
(0.046946 -0.00232512 0)
(0.047715 -0.00219881 0)
(0.0484353 -0.00207169 0)
(0.0491073 -0.00194461 0)
(0.0497319 -0.00181838 0)
(0.0503101 -0.00169377 0)
(0.0508429 -0.00157147 0)
(0.0513316 -0.00145208 0)
(0.0517778 -0.00133617 0)
(0.052183 -0.00122422 0)
(0.0525488 -0.00111662 0)
(0.052877 -0.00101372 0)
(0.0531694 -0.000915772 0)
(0.0534278 -0.000822979 0)
(0.0536541 -0.000735475 0)
(0.0538502 -0.000653337 0)
(0.0540179 -0.000576588 0)
(0.0541591 -0.000505202 0)
(0.0542756 -0.000439111 0)
(0.0543692 -0.000378208 0)
(0.0544417 -0.000322353 0)
(0.0544946 -0.00027138 0)
(0.0545298 -0.000225097 0)
(0.0545486 -0.000183295 0)
(0.0545527 -0.000145751 0)
(0.0545434 -0.000112232 0)
(0.0545221 -8.24977e-05 0)
(0.0544901 -5.6303e-05 0)
(0.0544486 -3.34035e-05 0)
(0.0543987 -1.35559e-05 0)
(0.0543415 3.47897e-06 0)
(0.054278 1.7935e-05 0)
(0.054209 3.00387e-05 0)
(0.0541355 4.00081e-05 0)
(0.0540582 4.8052e-05 0)
(0.0539778 5.4369e-05 0)
(0.0538949 5.91468e-05 0)
(0.0538102 6.25621e-05 0)
(0.0537242 6.47806e-05 0)
(0.0536373 6.59562e-05 0)
(0.0535499 6.62319e-05 0)
(0.0534625 6.57395e-05 0)
(0.0533754 6.46e-05 0)
(0.0532888 6.29238e-05 0)
(0.053203 6.08115e-05 0)
(0.0531182 5.83537e-05 0)
(0.0530345 5.5632e-05 0)
(0.0529522 5.27194e-05 0)
(0.0528713 4.96803e-05 0)
(0.0527919 4.65719e-05 0)
(0.0527141 4.34439e-05 0)
(0.0526379 4.03395e-05 0)
(0.0525633 3.72956e-05 0)
(0.0524905 3.43437e-05 0)
(0.0524193 3.15097e-05 0)
(0.0523497 2.8815e-05 0)
(0.0522818 2.62767e-05 0)
(0.0522154 2.39077e-05 0)
(0.0521506 2.17177e-05 0)
(0.0520873 1.9713e-05 0)
(0.0520255 1.78971e-05 0)
(0.051965 1.62711e-05 0)
(0.0519058 1.48338e-05 0)
(0.0518479 1.3582e-05 0)
(0.0517912 1.2511e-05 0)
(0.0517356 1.16144e-05 0)
(0.0516811 1.08847e-05 0)
(0.0516276 1.03135e-05 0)
(0.0515751 9.89117e-06 0)
(0.0515234 9.60772e-06 0)
(0.0514726 9.45245e-06 0)
(0.0514226 9.41425e-06 0)
(0.0513733 9.48175e-06 0)
(0.0513246 9.64336e-06 0)
(0.0512767 9.88741e-06 0)
(0.0512293 1.02022e-05 0)
(0.0511825 1.05762e-05 0)
(0.0511362 1.09979e-05 0)
(0.0510904 1.1456e-05 0)
(0.0510451 1.19395e-05 0)
(0.0510003 1.24379e-05 0)
(0.0509559 1.29406e-05 0)
(0.0509119 1.34379e-05 0)
(0.0508684 1.39202e-05 0)
(0.0508253 1.43786e-05 0)
(0.0507826 1.48044e-05 0)
(0.0507403 1.51897e-05 0)
(0.0506985 1.55271e-05 0)
(0.0506571 1.58097e-05 0)
(0.0506161 1.60313e-05 0)
(0.0505756 1.61864e-05 0)
(0.0505356 1.627e-05 0)
(0.0504961 1.62779e-05 0)
(0.0504572 1.62069e-05 0)
(0.0504187 1.60541e-05 0)
(0.0503809 1.58178e-05 0)
(0.0503437 1.54971e-05 0)
(0.0503071 1.50922e-05 0)
(0.0502711 1.46041e-05 0)
(0.0502359 1.40353e-05 0)
(0.0502014 1.33894e-05 0)
(0.0501676 1.26717e-05 0)
(0.0501347 1.18893e-05 0)
(0.0501025 1.10515e-05 0)
(0.0500712 1.01702e-05 0)
(0.0500408 9.26107e-06 0)
(0.0500113 8.34399e-06 0)
(0.0499826 7.44506e-06 0)
(0.0499549 6.59816e-06 0)
(0.0499281 5.84907e-06 0)
(0.0499023 5.25801e-06 0)
(0.0498774 4.91032e-06 0)
(0.0498533 4.91433e-06 0)
(0.0498301 5.46126e-06 0)
(0.0498078 6.66524e-06 0)
(0.049786 9.19211e-06 0)
(0.0497648 1.28243e-05 0)
(0.0497443 1.80879e-05 0)
(0.0497186 3.40061e-05 0)
(-0.000404983 0.00246874 0)
(-0.00171884 0.0037952 0)
(-0.00298684 0.00413992 0)
(-0.00404971 0.00388852 0)
(-0.00482668 0.00361522 0)
(-0.00542862 0.0033125 0)
(-0.00585248 0.00304832 0)
(-0.00615783 0.00280156 0)
(-0.00635394 0.0025773 0)
(-0.00646697 0.00236927 0)
(-0.00650542 0.00217631 0)
(-0.00648128 0.00199591 0)
(-0.0064004 0.00182646 0)
(-0.00626889 0.00166636 0)
(-0.0060905 0.00151428 0)
(-0.00586862 0.00136901 0)
(-0.00560563 0.0012295 0)
(-0.0053035 0.00109481 0)
(-0.00496369 0.000964112 0)
(-0.00458733 0.000836634 0)
(-0.00417526 0.000711687 0)
(-0.00372807 0.000588636 0)
(-0.00324617 0.000466889 0)
(-0.00272977 0.000345891 0)
(-0.00217898 0.000225123 0)
(-0.00159375 0.00010409 0)
(-0.000973974 -1.76725e-05 0)
(-0.000319448 -0.000140606 0)
(0.000370081 -0.000265125 0)
(0.00109491 -0.000391616 0)
(0.00185535 -0.000520434 0)
(0.00265172 -0.000651903 0)
(0.00348434 -0.000786303 0)
(0.00435348 -0.000923875 0)
(0.00525937 -0.00106481 0)
(0.0062022 -0.00120923 0)
(0.00718207 -0.00135722 0)
(0.00819898 -0.00150877 0)
(0.00925283 -0.00166383 0)
(0.0103434 -0.00182225 0)
(0.0114704 -0.0019838 0)
(0.0126332 -0.00214817 0)
(0.0138312 -0.00231497 0)
(0.0150637 -0.00248373 0)
(0.0163296 -0.00265387 0)
(0.0176277 -0.00282475 0)
(0.0189566 -0.00299565 0)
(0.0203149 -0.00316577 0)
(0.0217007 -0.00333424 0)
(0.0231121 -0.00350013 0)
(0.024547 -0.00366248 0)
(0.0260029 -0.00382027 0)
(0.0274774 -0.00397246 0)
(0.0289677 -0.00411798 0)
(0.0304709 -0.00425578 0)
(0.0319839 -0.0043848 0)
(0.0335036 -0.00450402 0)
(0.0350266 -0.00461244 0)
(0.0365494 -0.00470914 0)
(0.0380685 -0.00479323 0)
(0.0395801 -0.00486393 0)
(0.0410807 -0.00492055 0)
(0.0425664 -0.00496249 0)
(0.0440337 -0.00498929 0)
(0.0454789 -0.0050006 0)
(0.0468984 -0.0049962 0)
(0.0482886 -0.00497604 0)
(0.0496463 -0.00494019 0)
(0.0509683 -0.00488887 0)
(0.0522516 -0.00482244 0)
(0.0534935 -0.00474144 0)
(0.0546914 -0.00464649 0)
(0.0558432 -0.00453838 0)
(0.0569469 -0.00441801 0)
(0.0580008 -0.00428637 0)
(0.0590037 -0.00414455 0)
(0.0599545 -0.00399371 0)
(0.0608526 -0.00383507 0)
(0.0616976 -0.00366988 0)
(0.0624895 -0.00349942 0)
(0.0632283 -0.00332496 0)
(0.0639148 -0.00314775 0)
(0.0645495 -0.00296902 0)
(0.0651336 -0.00278995 0)
(0.0656682 -0.00261166 0)
(0.0661548 -0.00243518 0)
(0.0665948 -0.00226149 0)
(0.06699 -0.00209146 0)
(0.0673422 -0.00192586 0)
(0.0676532 -0.0017654 0)
(0.0679252 -0.00161066 0)
(0.0681599 -0.00146214 0)
(0.0683596 -0.00132023 0)
(0.0685262 -0.00118526 0)
(0.0686618 -0.00105744 0)
(0.0687684 -0.000936926 0)
(0.068848 -0.00082379 0)
(0.0689024 -0.000718034 0)
(0.0689337 -0.000619605 0)
(0.0689436 -0.000528392 0)
(0.0689339 -0.00044424 0)
(0.0689062 -0.000366951 0)
(0.0688623 -0.000296294 0)
(0.0688035 -0.000232012 0)
(0.0687315 -0.000173821 0)
(0.0686474 -0.000121425 0)
(0.0685528 -7.45124e-05 0)
(0.0684487 -3.27648e-05 0)
(0.0683364 4.14047e-06 0)
(0.0682169 3.65266e-05 0)
(0.0680911 6.47145e-05 0)
(0.0679601 8.90201e-05 0)
(0.0678247 0.000109752 0)
(0.0676856 0.00012721 0)
(0.0675436 0.000141682 0)
(0.0673993 0.000153447 0)
(0.0672534 0.000162769 0)
(0.0671064 0.000169897 0)
(0.0669587 0.000175071 0)
(0.0668109 0.000178511 0)
(0.0666633 0.000180427 0)
(0.0665162 0.000181014 0)
(0.0663701 0.00018045 0)
(0.066225 0.000178903 0)
(0.0660814 0.000176524 0)
(0.0659394 0.000173455 0)
(0.0657991 0.000169821 0)
(0.0656607 0.000165739 0)
(0.0655243 0.000161311 0)
(0.06539 0.000156632 0)
(0.0652579 0.000151783 0)
(0.065128 0.000146838 0)
(0.0650004 0.00014186 0)
(0.0648751 0.000136907 0)
(0.064752 0.000132026 0)
(0.0646312 0.000127258 0)
(0.0645127 0.000122637 0)
(0.0643964 0.000118192 0)
(0.0642823 0.000113945 0)
(0.0641703 0.000109915 0)
(0.0640605 0.000106115 0)
(0.0639527 0.000102553 0)
(0.0638469 9.92364e-05 0)
(0.063743 9.61662e-05 0)
(0.063641 9.33421e-05 0)
(0.0635408 9.07611e-05 0)
(0.0634423 8.84177e-05 0)
(0.0633456 8.63045e-05 0)
(0.0632504 8.44125e-05 0)
(0.0631568 8.27313e-05 0)
(0.0630647 8.12493e-05 0)
(0.0629741 7.99538e-05 0)
(0.0628848 7.88315e-05 0)
(0.0627969 7.78682e-05 0)
(0.0627103 7.70495e-05 0)
(0.0626249 7.63605e-05 0)
(0.0625407 7.57863e-05 0)
(0.0624576 7.53116e-05 0)
(0.0623756 7.49214e-05 0)
(0.0622948 7.46007e-05 0)
(0.0622149 7.43347e-05 0)
(0.0621361 7.4109e-05 0)
(0.0620582 7.39092e-05 0)
(0.0619814 7.37218e-05 0)
(0.0619054 7.35333e-05 0)
(0.0618304 7.3331e-05 0)
(0.0617564 7.31028e-05 0)
(0.0616832 7.28369e-05 0)
(0.061611 7.25226e-05 0)
(0.0615396 7.21496e-05 0)
(0.0614692 7.17084e-05 0)
(0.0613997 7.11905e-05 0)
(0.0613311 7.05878e-05 0)
(0.0612634 6.98937e-05 0)
(0.0611966 6.9102e-05 0)
(0.0611308 6.82078e-05 0)
(0.061066 6.72072e-05 0)
(0.0610022 6.60974e-05 0)
(0.0609394 6.4877e-05 0)
(0.0608775 6.35458e-05 0)
(0.0608168 6.21051e-05 0)
(0.0607571 6.05578e-05 0)
(0.0606985 5.89088e-05 0)
(0.060641 5.7165e-05 0)
(0.0605847 5.5336e-05 0)
(0.0605295 5.34342e-05 0)
(0.0604755 5.1476e-05 0)
(0.0604227 4.94822e-05 0)
(0.0603711 4.74801e-05 0)
(0.0603208 4.55046e-05 0)
(0.0602718 4.36022e-05 0)
(0.0602241 4.18333e-05 0)
(0.0601777 4.0283e-05 0)
(0.0601326 3.90603e-05 0)
(0.0600889 3.83363e-05 0)
(0.0600467 3.83055e-05 0)
(0.0600059 3.94357e-05 0)
(0.0599668 4.17866e-05 0)
(0.0599291 4.66988e-05 0)
(0.0598906 6.02455e-05 0)
(-0.000693487 0.00309361 0)
(-0.00209165 0.0047216 0)
(-0.00255517 0.00495054 0)
(-0.00279413 0.00450348 0)
(-0.00263052 0.00403103 0)
(-0.00238346 0.00356432 0)
(-0.00199113 0.00316032 0)
(-0.00153796 0.00280231 0)
(-0.00101519 0.00248585 0)
(-0.000448362 0.00220234 0)
(0.000160613 0.00194523 0)
(0.000802443 0.00170971 0)
(0.00147455 0.00149152 0)
(0.00217308 0.00128763 0)
(0.00289632 0.00109538 0)
(0.00364258 0.000912757 0)
(0.00441096 0.000737993 0)
(0.00520076 0.000569662 0)
(0.00601162 0.000406514 0)
(0.00684338 0.00024748 0)
(0.00769605 9.16131e-05 0)
(0.00856974 -6.19269e-05 0)
(0.00946469 -0.000213899 0)
(0.0103812 -0.000364991 0)
(0.0113197 -0.000515832 0)
(0.0122805 -0.000667002 0)
(0.0132642 -0.000819033 0)
(0.0142711 -0.000972413 0)
(0.0153017 -0.00112759 0)
(0.0163564 -0.00128496 0)
(0.0174358 -0.00144488 0)
(0.0185401 -0.00160767 0)
(0.0196696 -0.00177358 0)
(0.0208247 -0.0019428 0)
(0.0220055 -0.00211548 0)
(0.023212 -0.00229169 0)
(0.0244444 -0.00247142 0)
(0.0257023 -0.00265459 0)
(0.0269856 -0.00284104 0)
(0.0282939 -0.00303053 0)
(0.0296265 -0.0032227 0)
(0.0309829 -0.00341713 0)
(0.0323622 -0.0036133 0)
(0.0337632 -0.00381058 0)
(0.0351849 -0.00400826 0)
(0.0366258 -0.00420553 0)
(0.0380842 -0.00440152 0)
(0.0395586 -0.00459526 0)
(0.0410468 -0.0047857 0)
(0.0425468 -0.00497175 0)
(0.0440562 -0.00515225 0)
(0.0455726 -0.00532601 0)
(0.0470932 -0.00549181 0)
(0.0486152 -0.0056484 0)
(0.0501356 -0.00579456 0)
(0.0516512 -0.00592906 0)
(0.0531589 -0.00605073 0)
(0.0546553 -0.00615842 0)
(0.0561369 -0.00625107 0)
(0.0576003 -0.00632771 0)
(0.059042 -0.00638745 0)
(0.0604585 -0.00642954 0)
(0.0618462 -0.00645335 0)
(0.063202 -0.00645841 0)
(0.0645223 -0.00644439 0)
(0.0658042 -0.00641115 0)
(0.0670447 -0.00635871 0)
(0.068241 -0.00628728 0)
(0.0693906 -0.00619726 0)
(0.0704912 -0.00608919 0)
(0.071541 -0.00596384 0)
(0.0725382 -0.00582211 0)
(0.0734817 -0.00566504 0)
(0.0743703 -0.00549385 0)
(0.0752034 -0.00530985 0)
(0.0759809 -0.00511446 0)
(0.0767027 -0.00490916 0)
(0.0773691 -0.00469552 0)
(0.0779809 -0.00447511 0)
(0.078539 -0.00424953 0)
(0.0790446 -0.00402034 0)
(0.0794991 -0.00378911 0)
(0.0799042 -0.0035573 0)
(0.0802616 -0.00332634 0)
(0.0805733 -0.00309756 0)
(0.0808413 -0.00287219 0)
(0.0810678 -0.00265134 0)