/*--------------------------------*- C++ -*----------------------------------*\
| =========                 |                                                 |
| \\      /  F ield         | OpenFOAM: The Open Source CFD Toolbox           |
|  \\    /   O peration     | Version:  4.1                                   |
|   \\  /    A nd           | Web:      www.OpenFOAM.org                      |
|    \\/     M anipulation  |                                                 |
\*---------------------------------------------------------------------------*/
FoamFile
{
    version     2.0;
    format      ascii;
    class       volVectorField;
    location    "0.0396";
    object      U;
}
// * * * * * * * * * * * * * * * * * * * * * * * * * * * * * * * * * * * * * //

dimensions      [0 1 -1 0 0 0 0];

internalField   nonuniform List<vector> 
441
(
(-9.59361e-05 7.45464e-05 0)
(-0.000488803 0.000287329 0)
(-0.00111079 0.000512564 0)
(-0.00191593 0.000677515 0)
(-0.00282834 0.000762909 0)
(-0.00376439 0.000769084 0)
(-0.00464565 0.000704839 0)
(-0.00540506 0.000582639 0)
(-0.00598946 0.00041627 0)
(-0.00636027 0.000219789 0)
(-0.00649347 7.25273e-06 0)
(-0.00637957 -0.000207127 0)
(-0.00602395 -0.000408671 0)
(-0.00544755 -0.00058203 0)
(-0.00468771 -0.000711329 0)
(-0.00379856 -0.000780901 0)
(-0.00285011 -0.00077687 0)
(-0.00192489 -0.000689997 0)
(-0.00111047 -0.000520751 0)
(-0.00048504 -0.000290392 0)
(-9.42126e-05 -7.40627e-05 0)
(-0.00035828 0.000439001 0)
(-0.00159549 0.00139556 0)
(-0.00336219 0.00227888 0)
(-0.00553515 0.00290596 0)
(-0.00793299 0.00321615 0)
(-0.0103573 0.00321183 0)
(-0.0126207 0.00292726 0)
(-0.0145612 0.00241152 0)
(-0.0160496 0.00171938 0)
(-0.0169919 0.000906893 0)
(-0.0173295 3.02279e-05 0)
(-0.0170393 -0.000853808 0)
(-0.016135 -0.00168656 0)
(-0.0146679 -0.00240672 0)
(-0.0127289 -0.00295102 0)
(-0.0104491 -0.0032572 0)
(-0.00799662 -0.00327051 0)
(-0.00556813 -0.00295484 0)
(-0.00337108 -0.00231093 0)
(-0.00159266 -0.00140729 0)
(-0.000356089 -0.000437496 0)
(-0.000656025 0.00107242 0)
(-0.00275252 0.00311894 0)
(-0.00558584 0.00485991 0)
(-0.0089574 0.00605009 0)
(-0.0126048 0.00660712 0)
(-0.0162478 0.00654625 0)
(-0.0196226 0.00593705 0)
(-0.0225019 0.00487591 0)
(-0.0247039 0.00346981 0)
(-0.0260961 0.00182833 0)
(-0.0265961 6.12487e-05 0)
(-0.0261713 -0.00172042 0)
(-0.0248402 -0.00340207 0)
(-0.0226747 -0.00486398 0)
(-0.0198021 -0.00598254 0)
(-0.0164059 -0.00663601 0)
(-0.012722 -0.0067166 0)
(-0.00902705 -0.00615053 0)
(-0.00561494 -0.00492794 0)
(-0.00275765 -0.00314616 0)
(-0.000655306 -0.00107142 0)
(-0.000947693 0.001979 0)
(-0.00388069 0.00546669 0)
(-0.00772674 0.008261 0)
(-0.0122051 0.0101002 0)
(-0.0169754 0.0109079 0)
(-0.0216878 0.0107305 0)
(-0.0260196 0.00968645 0)
(-0.0296959 0.00793114 0)
(-0.0324989 0.00563406 0)
(-0.0342705 0.00296756 0)
(-0.034912 0.000103597 0)
(-0.0343836 -0.00278424 0)
(-0.0327058 -0.00551673 0)
(-0.029962 -0.00790618 0)
(-0.0263023 -0.00975778 0)
(-0.0219457 -0.010878 0)
(-0.0171774 -0.0110925 0)
(-0.012337 -0.0102742 0)
(-0.00779371 -0.00838398 0)
(-0.00390315 -0.00552106 0)
(-0.000950772 -0.00198159 0)
(-0.00123159 0.0031566 0)
(-0.00498496 0.00844174 0)
(-0.00981939 0.0124899 0)
(-0.0153647 0.015059 0)
(-0.0211987 0.0161101 0)
(-0.026905 0.0157446 0)
(-0.032111 0.0141487 0)
(-0.0365057 0.0115505 0)
(-0.0398467 0.00819243 0)
(-0.0419597 0.00431716 0)
(-0.0427358 0.000164575 0)
(-0.0421296 -0.00402417 0)
(-0.0401599 -0.00799984 0)
(-0.0369142 -0.0114998 0)
(-0.0325541 -0.0142483 0)
(-0.0273214 -0.0159673 0)
(-0.0215391 -0.0163983 0)
(-0.0156022 -0.0153401 0)
(-0.00995403 -0.0126983 0)
(-0.00504047 -0.0085434 0)
(-0.00124235 -0.00316902 0)
(-0.00151645 0.00460828 0)
(-0.00609861 0.0120558 0)
(-0.011928 0.0175634 0)
(-0.0185365 0.02094 0)
(-0.0254143 0.0222171 0)
(-0.0320792 0.0215811 0)
(-0.0381137 0.0193086 0)
(-0.0431798 0.0157174 0)
(-0.0470206 0.0111334 0)
(-0.0494539 0.00587566 0)
(-0.0503659 0.000255018 0)
(-0.0497064 -0.0054183 0)
(-0.0474895 -0.010823 0)
(-0.0437986 -0.0156169 0)
(-0.0387968 -0.0194351 0)
(-0.0327372 -0.0218999 0)
(-0.0259708 -0.0226484 0)
(-0.0189436 -0.0213772 0)
(-0.0121752 -0.0179042 0)
(-0.00621137 -0.012238 0)
(-0.00154092 -0.00464218 0)
(-0.00181195 0.00634685 0)
(-0.00725696 0.0163363 0)
(-0.0141122 0.0235114 0)
(-0.0218001 0.0277647 0)
(-0.0297169 0.0292369 0)
(-0.0373151 0.0282338 0)
(-0.044139 0.0251509 0)
(-0.0498339 0.0204144 0)
(-0.0541389 0.0144451 0)
(-0.0568734 0.00764264 0)
(-0.0579245 0.000388566 0)
(-0.0572389 -0.00694018 0)
(-0.0548218 -0.0139521 0)
(-0.0507448 -0.0202244 0)
(-0.0451601 -0.0252952 0)
(-0.0383192 -0.0286721 0)
(-0.0305896 -0.0298623 0)
(-0.0224616 -0.0284262 0)
(-0.0145332 -0.0240535 0)
(-0.00746078 -0.0166506 0)
(-0.00185869 -0.00642204 0)
(-0.00212486 0.00839415 0)
(-0.00848381 0.0213229 0)
(-0.0164058 0.0303696 0)
(-0.025188 0.0355515 0)
(-0.0341272 0.0371651 0)
(-0.0426137 0.0356791 0)
(-0.0501644 0.0316407 0)
(-0.056422 0.0256065 0)
(-0.0611359 0.0181026 0)
(-0.0641395 0.00961127 0)
(-0.0653286 0.000580392 0)
(-0.0646488 -0.00855367 0)
(-0.0620931 -0.0173362 0)
(-0.0577112 -0.0252666 0)
(-0.0516301 -0.0317817 0)
(-0.0440817 -0.0362589 0)
(-0.0354332 -0.0380462 0)
(-0.026207 -0.0365259 0)
(-0.0170773 -0.0312079 0)
(-0.00882233 -0.0218444 0)
(-0.00220508 -0.00854154 0)
(-0.00245673 0.0107777 0)
(-0.00978259 0.0270584 0)
(-0.0188004 0.0381644 0)
(-0.0286631 0.0442943 0)
(-0.0385632 0.0459614 0)
(-0.0478389 0.0438503 0)
(-0.0559971 0.0386996 0)
(-0.0626985 0.03122 0)
(-0.0677233 0.0220521 0)
(-0.0709348 0.0117589 0)
(-0.0722483 0.000845039 0)
(-0.0716125 -0.0102074 0)
(-0.0690047 -0.020894 0)
(-0.0644416 -0.0306457 0)
(-0.0580063 -0.0387985 0)
(-0.0498874 -0.0445855 0)
(-0.0404254 -0.0471646 0)
(-0.0301535 -0.0456887 0)
(-0.0198115 -0.0394217 0)
(-0.0103083 -0.02789 0)
(-0.0025842 -0.0110422 0)
(-0.00280179 0.0135259 0)
(-0.0111283 0.0335746 0)
(-0.0212299 0.0468907 0)
(-0.0320935 0.0539343 0)
(-0.0428087 0.0555166 0)
(-0.0526798 0.0526054 0)
(-0.0612321 0.0461762 0)
(-0.0681742 0.037118 0)
(-0.073344 0.0261925 0)
(-0.076656 0.014036 0)
(-0.0780592 0.00119301 0)
(-0.0775115 -0.0118296 0)
(-0.0749719 -0.0245 0)
(-0.0704124 -0.0361987 0)
(-0.0638501 -0.0461689 0)
(-0.0553987 -0.0534916 0)
(-0.0453351 -0.0571026 0)
(-0.0341664 -0.055866 0)
(-0.0226744 -0.0487141 0)
(-0.0118997 -0.0348482 0)
(-0.00299234 -0.013969 0)
(-0.00314426 0.0166617 0)
(-0.0124574 0.0408734 0)
(-0.0235505 0.0564812 0)
(-0.0352232 0.0643219 0)
(-0.0464732 0.0656131 0)
(-0.0566048 0.0616884 0)
(-0.0652034 0.0538116 0)
(-0.0720663 0.043073 0)
(-0.0771234 0.0303553 0)
(-0.0803655 0.0163529 0)
(-0.0817926 0.00162588 0)
(-0.0813804 -0.0133249 0)
(-0.0790691 -0.0279718 0)
(-0.0747749 -0.0416742 0)
(-0.0684251 -0.0536025 0)
(-0.060021 -0.062688 0)
(-0.0497249 -0.0676176 0)
(-0.0379629 -0.0669011 0)
(-0.025513 -0.0590318 0)
(-0.0135332 -0.0427471 0)
(-0.0034146 -0.0173627 0)
(-0.00345405 0.0201949 0)
(-0.0136527 0.0489025 0)
(-0.0255121 0.0667681 0)
(-0.0376292 0.0751696 0)
(-0.0489405 0.0758758 0)
(-0.0588054 0.0706858 0)
(-0.0669286 0.0612051 0)
(-0.0732476 0.0487402 0)
(-0.0778225 0.0342856 0)
(-0.0807485 0.0185684 0)
(-0.0820939 0.00213003 0)
(-0.0818627 -0.0145736 0)
(-0.0799792 -0.0310611 0)
(-0.0762966 -0.0467126 0)
(-0.0706317 -0.0606618 0)
(-0.0628325 -0.0717095 0)
(-0.0528855 -0.0782815 0)
(-0.0410573 -0.0784691 0)
(-0.028045 -0.0701969 0)
(-0.0150811 -0.0515497 0)
(-0.00381967 -0.0212499 0)
(-0.00367916 0.0241124 0)
(-0.0145166 0.0575241 0)
(-0.02671 0.0774318 0)
(-0.0386567 0.0859934 0)
(-0.0492947 0.0857178 0)
(-0.0581238 0.0789832 0)
(-0.0650456 0.067782 0)
(-0.070195 0.0536374 0)
(-0.0738007 0.0376292 0)
(-0.0760849 0.0204801 0)
(-0.0771987 0.00266971 0)
(-0.0771844 -0.0154368 0)
(-0.0759578 -0.0334543 0)
(-0.0733107 -0.0508373 0)
(-0.0689383 -0.0667379 0)
(-0.0625024 -0.0798716 0)
(-0.0537474 -0.0884181 0)
(-0.0426803 -0.0900029 0)
(-0.0297992 -0.0818392 0)
(-0.0163187 -0.0611091 0)
(-0.00415074 -0.0256295 0)
(-0.00373058 0.0283639 0)
(-0.0147189 0.0664695 0)
(-0.0264982 0.087933 0)
(-0.0373091 0.0960413 0)
(-0.0462072 0.0942829 0)
(-0.052954 0.0857282 0)
(-0.0577379 0.0727776 0)
(-0.0609449 0.0571409 0)
(-0.0629963 0.0399346 0)
(-0.0642496 0.0218248 0)
(-0.0649424 0.00318129 0)
(-0.0651616 -0.015769 0)
(-0.0648268 -0.0347882 0)
(-0.0636844 -0.0534666 0)
(-0.0613181 -0.0710482 0)
(-0.0571929 -0.0862423 0)
(-0.0507599 -0.0970432 0)
(-0.0416557 -0.100608 0)
(-0.0300141 -0.0933071 0)
(-0.0168641 -0.0711062 0)
(-0.0043089 -0.0304522 0)
(-0.00345108 0.032838 0)
(-0.013691 0.0752697 0)
(-0.0238231 0.0974176 0)
(-0.032057 0.104209 0)
(-0.0377589 0.100396 0)
(-0.0411039 0.0898189 0)
(-0.0426504 0.0752525 0)
(-0.04306 0.0585149 0)
(-0.0429375 0.0406804 0)
(-0.0427547 0.0222952 0)
(-0.042819 0.00357214 0)
(-0.0432595 -0.0154387 0)
(-0.0440161 -0.0346887 0)
(-0.0448239 -0.0539615 0)
(-0.0452 -0.0726774 0)
(-0.0444488 -0.0896545 0)
(-0.0417229 -0.102829 0)
(-0.0362023 -0.108974 0)
(-0.0274592 -0.10355 0)
(-0.0160632 -0.0809557 0)
(-0.00412012 -0.0355878 0)
(-0.00254574 0.0373154 0)
(-0.0103965 0.0831375 0)
(-0.0168961 0.10458 0)
(-0.0204986 0.108951 0)
(-0.021158 0.102542 0)
(-0.0196066 0.0899451 0)
(-0.0167973 0.0741683 0)
(-0.0136224 0.0569941 0)
(-0.0108007 0.0393457 0)
(-0.00885237 0.0215836 0)
(-0.00810872 0.00372953 0)
(-0.00872432 -0.0143593 0)
(-0.010676 -0.0328395 0)
(-0.0137417 -0.0517241 0)
(-0.0174598 -0.0706873 0)
(-0.021082 -0.088795 0)
(-0.0235557 -0.104129 0)
(-0.0236132 -0.113304 0)
(-0.020102 -0.110969 0)
(-0.012753 -0.0896593 0)
(-0.003265 -0.0407671 0)
(-0.000408956 0.0413556 0)
(-0.00281416 0.0887385 0)
(-0.00253974 0.10746 0)
(0.00123206 0.108209 0)
(0.00768155 0.0989357 0)
(0.0155122 0.0847358 0)
(0.0235078 0.0685617 0)
(0.0307148 0.0519455 0)
(0.0364553 0.0355372 0)
(0.0402788 0.0194613 0)
(0.0419067 0.00354617 0)
(0.041193 -0.0125221 0)
(0.0381122 -0.0290787 0)
(0.0327798 -0.0463572 0)
(0.0255106 -0.0643247 0)
(0.0169118 -0.0824221 0)
(0.00799651 -0.0991384 0)
(0.000254889 -0.111329 0)
(-0.00448101 -0.113247 0)
(-0.00474406 -0.0955529 0)
(-0.00110681 -0.0454544 0)
(0.00436994 0.0440583 0)
(0.0132998 0.0898007 0)
(0.0251234 0.103234 0)
(0.0394447 0.099487 0)
(0.0547011 0.0877868 0)
(0.0694461 0.0730995 0)
(0.0826245 0.0578671 0)
(0.093556 0.0431307 0)
(0.101837 0.0291777 0)
(0.10724 0.0158958 0)
(0.109628 0.00296654 0)
(0.108908 -0.0100244 0)
(0.105008 -0.0235118 0)
(0.097888 -0.0378775 0)
(0.0875872 -0.0533434 0)
(0.0743262 -0.0697756 0)
(0.0586701 -0.086301 0)
(0.0417545 -0.100552 0)
(0.0254939 -0.107256 0)
(0.012384 -0.0959267 0)
(0.00380351 -0.0485868 0)
(0.015923 0.0432053 0)
(0.0475222 0.0820668 0)
(0.0771722 0.0879641 0)
(0.104284 0.0802554 0)
(0.128204 0.0679515 0)
(0.148578 0.0548432 0)
(0.165287 0.0424013 0)
(0.178357 0.0310468 0)
(0.187887 0.0207289 0)
(0.193985 0.011183 0)
(0.196716 0.00204851 0)
(0.196075 -0.00707619 0)
(0.191963 -0.0166037 0)
(0.184184 -0.0269314 0)
(0.172453 -0.0383982 0)
(0.156428 -0.0511875 0)
(0.135789 -0.0650945 0)
(0.110407 -0.0789427 0)
(0.0807196 -0.0891476 0)
(0.0482549 -0.0861475 0)
(0.0156445 -0.0477284 0)
(0.0496209 0.0349232 0)
(0.122996 0.0597643 0)
(0.174446 0.05827 0)
(0.211174 0.0498774 0)
(0.238713 0.040478 0)
(0.259732 0.0317103 0)
(0.275737 0.0239853 0)
(0.287634 0.0172689 0)
(0.296014 0.0113688 0)
(0.301264 0.00603715 0)
(0.303606 0.00100928 0)
(0.30311 -0.00398343 0)
(0.299689 -0.00920952 0)
(0.293081 -0.0149353 0)
(0.282812 -0.0214186 0)
(0.268104 -0.0288894 0)
(0.247724 -0.0374925 0)
(0.21966 -0.0470915 0)
(0.180701 -0.0565859 0)
(0.125422 -0.0606499 0)
(0.0497427 -0.0386036 0)
(0.182897 0.00469902 0)
(0.296931 0.00843666 0)
(0.351124 0.0120859 0)
(0.378855 0.0119219 0)
(0.396024 0.0101527 0)
(0.407629 0.00807703 0)
(0.415827 0.00612322 0)
(0.421625 0.0043915 0)
(0.425568 0.00286471 0)
(0.427972 0.00148742 0)
(0.429011 0.000192975 0)
(0.428752 -0.00108687 0)
(0.427157 -0.0024174 0)
(0.424078 -0.00385565 0)
(0.419209 -0.00543845 0)
(0.411972 -0.00715306 0)
(0.40123 -0.00886363 0)
(0.384468 -0.0101484 0)
(0.355888 -0.00997096 0)
(0.298575 -0.00720214 0)
(0.181172 -0.00734137 0)
)
;

boundaryField
{
    movingWall
    {
        type            fixedValue;
        value           uniform (0.5 0 0);
    }
    fixedWalls
    {
        type            noSlip;
    }
    frontAndBack
    {
        type            empty;
    }
}


// ************************************************************************* //
