/*--------------------------------*- C++ -*----------------------------------*\
| =========                 |                                                 |
| \\      /  F ield         | OpenFOAM: The Open Source CFD Toolbox           |
|  \\    /   O peration     | Version:  4.1                                   |
|   \\  /    A nd           | Web:      www.OpenFOAM.org                      |
|    \\/     M anipulation  |                                                 |
\*---------------------------------------------------------------------------*/
FoamFile
{
    version     2.0;
    format      ascii;
    class       volScalarField;
    location    "480";
    object      p;
}
// * * * * * * * * * * * * * * * * * * * * * * * * * * * * * * * * * * * * * //

dimensions      [1 -1 -2 0 0 0 0];

internalField   nonuniform List<scalar> 
1275
(
0.712003
0.712003
0.712003
0.712003
0.712002
0.712002
0.712002
0.712002
0.712002
0.712002
0.712002
0.712002
0.712002
0.712003
0.712003
0.712004
0.712004
0.712005
0.712005
0.712006
0.712007
0.712008
0.712008
0.712009
0.71201
0.712011
0.712012
0.712013
0.712014
0.712015
0.712015
0.712015
0.712015
0.712015
0.712014
0.712012
0.712009
0.712006
0.712002
0.711998
0.711993
0.711989
0.711986
0.711984
0.711985
0.71199
0.711998
0.712013
0.712034
0.712063
0.712101
0.712151
0.712212
0.712286
0.712373
0.712472
0.712584
0.712705
0.712834
0.71297
0.713108
0.713247
0.713382
0.713512
0.713632
0.713741
0.713837
0.713918
0.713983
0.714032
0.714065
0.714083
0.714087
0.714079
0.714059
0.714031
0.713996
0.713956
0.713911
0.713865
0.713817
0.71377
0.713724
0.713679
0.713637
0.713598
0.713562
0.713529
0.7135
0.713475
0.713453
0.713434
0.713419
0.713407
0.713399
0.713393
0.713391
0.713391
0.713393
0.713398
0.713405
0.713414
0.713424
0.713436
0.713448
0.71346
0.713472
0.713485
0.713496
0.713508
0.713518
0.713529
0.713538
0.713546
0.713554
0.71356
0.713566
0.71357
0.713574
0.713578
0.713581
0.713584
0.712002
0.712002
0.712002
0.712002
0.712002
0.712003
0.712002
0.712003
0.712002
0.712003
0.712003
0.712003
0.712003
0.712004
0.712004
0.712004
0.712005
0.712005
0.712006
0.712007
0.712008
0.712008
0.712009
0.71201
0.712011
0.712012
0.712013
0.712014
0.712015
0.712016
0.712016
0.712017
0.712017
0.712017
0.712017
0.712016
0.712014
0.712012
0.712009
0.712006
0.712002
0.711998
0.711994
0.711991
0.711989
0.711991
0.711997
0.712007
0.712025
0.712051
0.712087
0.712135
0.712195
0.712268
0.712354
0.712453
0.712565
0.712686
0.712816
0.712952
0.713091
0.71323
0.713366
0.713496
0.713618
0.713727
0.713824
0.713905
0.71397
0.71402
0.714053
0.714071
0.714075
0.714067
0.714048
0.71402
0.713985
0.713945
0.7139
0.713854
0.713807
0.71376
0.713715
0.713671
0.71363
0.713591
0.713556
0.713524
0.713496
0.713471
0.71345
0.713432
0.713418
0.713408
0.7134
0.713396
0.713394
0.713396
0.713399
0.713405
0.713413
0.713422
0.713433
0.713445
0.713457
0.713469
0.713481
0.713492
0.713503
0.713513
0.713522
0.713531
0.713539
0.713548
0.713555
0.713562
0.713568
0.713573
0.713578
0.713581
0.713584
0.713586
0.712005
0.712005
0.712004
0.712004
0.712003
0.712004
0.712003
0.712003
0.712002
0.712003
0.712002
0.712003
0.712003
0.712003
0.712003
0.712004
0.712004
0.712005
0.712006
0.712007
0.712007
0.712008
0.712009
0.71201
0.712011
0.712012
0.712013
0.712014
0.712015
0.712016
0.712017
0.712018
0.712018
0.712018
0.712018
0.712017
0.712015
0.712013
0.71201
0.712006
0.712001
0.711996
0.711991
0.711987
0.711984
0.711983
0.711986
0.711994
0.712009
0.712033
0.712067
0.712113
0.712172
0.712244
0.71233
0.712429
0.712541
0.712662
0.712792
0.712928
0.713067
0.713206
0.713342
0.713472
0.713593
0.713702
0.713798
0.713879
0.713943
0.713992
0.714024
0.714042
0.714046
0.714037
0.714018
0.71399
0.713956
0.713916
0.713872
0.713827
0.713781
0.713736
0.713691
0.713649
0.713609
0.713571
0.713538
0.713507
0.71348
0.713456
0.713436
0.713419
0.713406
0.713395
0.713388
0.713384
0.713383
0.713384
0.713388
0.713394
0.713401
0.713411
0.713422
0.713434
0.713447
0.713461
0.713474
0.713487
0.7135
0.713513
0.713524
0.713535
0.713544
0.713553
0.71356
0.713565
0.713569
0.713573
0.713576
0.71358
0.713583
0.713586
0.712001
0.712001
0.712
0.712002
0.712001
0.712002
0.712001
0.712003
0.712002
0.712003
0.712003
0.712003
0.712003
0.712004
0.712004
0.712005
0.712005
0.712006
0.712006
0.712007
0.712008
0.712009
0.712009
0.71201
0.712011
0.712013
0.712014
0.712015
0.712016
0.712017
0.712018
0.712019
0.71202
0.712021
0.712021
0.71202
0.712019
0.712018
0.712015
0.712011
0.712005
0.711999
0.711992
0.711985
0.711979
0.711975
0.711975
0.71198
0.711993
0.712015
0.712048
0.712093
0.712151
0.712223
0.712309
0.712407
0.712518
0.712638
0.712767
0.712902
0.713039
0.713176
0.713309
0.713437
0.713554
0.71366
0.713753
0.71383
0.713892
0.713937
0.713967
0.713982
0.713984
0.713975
0.713955
0.713927
0.713893
0.713854
0.713812
0.713769
0.713725
0.713682
0.71364
0.7136
0.713563
0.713528
0.713497
0.713469
0.713444
0.713423
0.713405
0.71339
0.713379
0.71337
0.713365
0.713362
0.713362
0.713364
0.713369
0.713375
0.713384
0.713394
0.713406
0.713418
0.713432
0.713445
0.713459
0.713473
0.713487
0.7135
0.713513
0.713524
0.713536
0.713546
0.713556
0.713565
0.713572
0.713577
0.713582
0.713585
0.713586
0.713587
0.712007
0.712007
0.712005
0.712005
0.712003
0.712004
0.712002
0.712003
0.712002
0.712002
0.712001
0.712002
0.712002
0.712002
0.712002
0.712003
0.712003
0.712004
0.712005
0.712006
0.712007
0.712008
0.712008
0.71201
0.712011
0.712012
0.712013
0.712014
0.712016
0.712017
0.712018
0.712019
0.71202
0.712021
0.712021
0.712021
0.71202
0.712018
0.712015
0.71201
0.712004
0.711997
0.711989
0.711981
0.711975
0.71197
0.711969
0.711974
0.711987
0.712008
0.712041
0.712086
0.712143
0.712214
0.712298
0.712395
0.712504
0.712622
0.712748
0.712879
0.713012
0.713144
0.713272
0.713393
0.713504
0.713604
0.713689
0.71376
0.713815
0.713855
0.71388
0.713891
0.713889
0.713877
0.713856
0.713828
0.713795
0.713758
0.713718
0.713678
0.713638
0.713598
0.713561
0.713525
0.713492
0.713462
0.713434
0.71341
0.713389
0.71337
0.713355
0.713343
0.713334
0.713327
0.713323
0.713321
0.713322
0.713325
0.713329
0.713336
0.713344
0.713353
0.713365
0.713377
0.71339
0.713405
0.71342
0.713435
0.713451
0.713467
0.713483
0.713499
0.713513
0.713527
0.71354
0.71355
0.71356
0.713568
0.713574
0.71358
0.713585
0.713589
0.711995
0.711998
0.711995
0.711999
0.711997
0.712001
0.711999
0.712001
0.712
0.712001
0.712001
0.712002
0.712002
0.712002
0.712002
0.712003
0.712003
0.712004
0.712005
0.712006
0.712006
0.712007
0.712008
0.712009
0.71201
0.712012
0.712013
0.712014
0.712016
0.712017
0.712019
0.71202
0.712021
0.712022
0.712023
0.712023
0.712022
0.71202
0.712017
0.712012
0.712006
0.711999
0.711991
0.711982
0.711975
0.71197
0.71197
0.711975
0.711987
0.712009
0.712042
0.712087
0.712144
0.712214
0.712297
0.712392
0.712497
0.712612
0.712733
0.712857
0.712983
0.713107
0.713226
0.713337
0.713438
0.713527
0.713601
0.713661
0.713707
0.713738
0.713755
0.71376
0.713754
0.71374
0.713718
0.71369
0.713658
0.713624
0.713589
0.713553
0.713518
0.713484
0.713452
0.713422
0.713395
0.71337
0.713348
0.713329
0.713312
0.713298
0.713287
0.713279
0.713273
0.713269
0.713267
0.713267
0.713269
0.713273
0.713278
0.713284
0.713292
0.713301
0.713311
0.713323
0.713335
0.713349
0.713364
0.713379
0.713396
0.713413
0.713431
0.713449
0.713468
0.713486
0.713504
0.71352
0.713536
0.713549
0.713561
0.713571
0.713578
0.713584
0.712007
0.712007
0.712003
0.712004
0.712
0.712001
0.711999
0.712
0.711998
0.711999
0.711998
0.711999
0.711999
0.712
0.712
0.712001
0.712001
0.712002
0.712003
0.712004
0.712005
0.712006
0.712007
0.712008
0.712009
0.712011
0.712012
0.712013
0.712015
0.712016
0.712018
0.712019
0.712021
0.712022
0.712022
0.712022
0.712021
0.71202
0.712016
0.712012
0.712006
0.711999
0.711992
0.711985
0.711979
0.711976
0.711977
0.711984
0.711999
0.712023
0.712057
0.712102
0.712159
0.712229
0.71231
0.712402
0.712503
0.712612
0.712726
0.712842
0.712957
0.713069
0.713175
0.713272
0.713358
0.713432
0.713492
0.713538
0.713572
0.713592
0.7136
0.713599
0.713588
0.713571
0.713548
0.713522
0.713493
0.713464
0.713434
0.713404
0.713376
0.713349
0.713325
0.713302
0.713282
0.713264
0.713248
0.713235
0.713224
0.713215
0.713208
0.713203
0.7132
0.713199
0.7132
0.713201
0.713204
0.713208
0.713213
0.713218
0.713225
0.713232
0.71324
0.713249
0.713259
0.713271
0.713285
0.7133
0.713317
0.713335
0.713355
0.713377
0.7134
0.713423
0.713446
0.713468
0.71349
0.713511
0.713529
0.713546
0.713561
0.713574
0.711975
0.711989
0.711983
0.711994
0.711991
0.711997
0.711995
0.711999
0.711997
0.711999
0.711999
0.712
0.712
0.712001
0.712001
0.712002
0.712002
0.712003
0.712003
0.712004
0.712005
0.712006
0.712007
0.712008
0.712009
0.712011
0.712012
0.712013
0.712015
0.712016
0.712018
0.712019
0.712021
0.712022
0.712023
0.712023
0.712022
0.712021
0.712018
0.712014
0.71201
0.712004
0.711998
0.711993
0.71199
0.711989
0.711994
0.712004
0.712021
0.712048
0.712084
0.712132
0.71219
0.712259
0.712338
0.712427
0.712522
0.712623
0.712727
0.71283
0.712932
0.713028
0.713116
0.713196
0.713264
0.71332
0.713363
0.713395
0.713414
0.713424
0.713424
0.713417
0.713404
0.713386
0.713365
0.713342
0.713319
0.713295
0.713272
0.713251
0.71323
0.713212
0.713195
0.71318
0.713167
0.713156
0.713147
0.71314
0.713134
0.71313
0.713128
0.713127
0.713127
0.713129
0.713131
0.713135
0.713138
0.713143
0.713147
0.713151
0.713156
0.71316
0.713165
0.713171
0.713178
0.713186
0.713197
0.71321
0.713225
0.713243
0.713263
0.713287
0.713312
0.71334
0.713369
0.713398
0.713428
0.713457
0.713485
0.713511
0.713535
0.713555
0.712
0.712006
0.711999
0.712
0.711996
0.711997
0.711995
0.711996
0.711995
0.711996
0.711996
0.711997
0.711997
0.711998
0.711999
0.712
0.712
0.712001
0.712002
0.712003
0.712004
0.712005
0.712007
0.712008
0.712009
0.71201
0.712012
0.712013
0.712015
0.712017
0.712018
0.71202
0.712022
0.712023
0.712025
0.712025
0.712025
0.712025
0.712024
0.712022
0.712019
0.712016
0.712014
0.712013
0.712014
0.712019
0.712028
0.712043
0.712065
0.712096
0.712136
0.712186
0.712245
0.712313
0.712389
0.712471
0.712559
0.712649
0.71274
0.712828
0.712912
0.712989
0.713058
0.713117
0.713166
0.713203
0.713231
0.713248
0.713256
0.713257
0.713252
0.713241
0.713227
0.713211
0.713194
0.713176
0.713159
0.713144
0.713129
0.713116
0.713104
0.713093
0.713085
0.713077
0.713071
0.713066
0.713063
0.71306
0.713059
0.713059
0.71306
0.713062
0.713065
0.713069
0.713073
0.713077
0.713081
0.713085
0.713088
0.71309
0.713092
0.713093
0.713094
0.713095
0.713097
0.713101
0.713107
0.713115
0.713127
0.713143
0.713162
0.713186
0.713213
0.713244
0.713278
0.713314
0.713351
0.713389
0.713427
0.713464
0.713499
0.713531
0.711894
0.711977
0.711971
0.711996
0.711991
0.712
0.711997
0.712001
0.712
0.712002
0.712001
0.712002
0.712001
0.712002
0.712002
0.712003
0.712003
0.712004
0.712005
0.712006
0.712007
0.712008
0.712009
0.71201
0.712012
0.712013
0.712015
0.712017
0.712019
0.712021
0.712024
0.712026
0.712029
0.712031
0.712034
0.712036
0.712038
0.71204
0.712041
0.712043
0.712044
0.712045
0.712048
0.712052
0.712059
0.712069
0.712085
0.712107
0.712135
0.712171
0.712214
0.712266
0.712324
0.71239
0.71246
0.712535
0.712611
0.712688
0.712762
0.712832
0.712896
0.712953
0.713002
0.713041
0.713072
0.713094
0.713107
0.713113
0.713114
0.71311
0.713102
0.713093
0.713083
0.713072
0.713061
0.713051
0.713041
0.713033
0.713025
0.713019
0.713014
0.71301
0.713008
0.713006
0.713005
0.713004
0.713005
0.713006
0.713008
0.71301
0.713014
0.713017
0.713022
0.713027
0.713032
0.713037
0.713041
0.713044
0.713046
0.713047
0.713046
0.713043
0.71304
0.713037
0.713033
0.713031
0.713031
0.713035
0.713042
0.713053
0.71307
0.713092
0.713119
0.713151
0.713188
0.713228
0.713272
0.713318
0.713366
0.713413
0.713459
0.713503
0.712266
0.712224
0.712217
0.712176
0.712162
0.712118
0.712102
0.712049
0.712038
0.711962
0.711977
0.712004
0.711997
0.712002
0.711997
0.712
0.711997
0.711999
0.711997
0.711999
0.711999
0.712
0.712
0.712001
0.712002
0.712003
0.712004
0.712005
0.712007
0.712008
0.71201
0.712012
0.712014
0.712016
0.712018
0.712021
0.712024
0.712027
0.71203
0.712034
0.712038
0.712043
0.712047
0.712052
0.712058
0.712063
0.712068
0.712074
0.71208
0.712086
0.712093
0.7121
0.71211
0.712121
0.712136
)
;

boundaryField
{
    inlet
    {
        type            zeroGradient;
    }
    outlet
    {
        type            fixedValue;
        value           nonuniform 0();
    }
    walls
    {
        type            zeroGradient;
    }
    symwall
    {
        type            empty;
    }
    procBoundary0to1
    {
        type            processor;
        value           nonuniform List<scalar> 10(0.713587 0.713588 0.713589 0.713588 0.713592 0.713588 0.713583 0.713573 0.71356 0.713546);
    }
    procBoundary0to2
    {
        type            processor;
        value           nonuniform List<scalar> 
133
(
0.712155
0.712177
0.712205
0.712239
0.712278
0.712324
0.712375
0.71243
0.71249
0.712551
0.712614
0.712677
0.712737
0.712794
0.712845
0.71289
0.712927
0.712957
0.71298
0.712996
0.713006
0.713012
0.713013
0.713011
0.713007
0.713001
0.712994
0.712987
0.712981
0.712976
0.712973
0.71297
0.712968
0.712967
0.712967
0.712967
0.712967
0.712968
0.71297
0.712971
0.712973
0.712976
0.712978
0.712982
0.712985
0.71299
0.712994
0.713
0.713005
0.71301
0.713015
0.71302
0.713022
0.713023
0.713022
0.713019
0.713013
0.713006
0.712998
0.712989
0.712982
0.712976
0.712974
0.712976
0.712982
0.712995
0.713013
0.713038
0.71307
0.713108
0.713151
0.713199
0.713251
0.713307
0.713364
0.713421
0.713478
0.712276
0.712228
0.712221
0.712178
0.712165
0.71212
0.712103
0.712051
0.712034
0.711963
0.711936
0.711988
0.71198
0.712003
0.711998
0.712007
0.712004
0.712008
0.712006
0.712008
0.712007
0.712009
0.712009
0.71201
0.712011
0.712012
0.712013
0.712015
0.712017
0.712019
0.712022
0.712025
0.712028
0.712031
0.712035
0.71204
0.712044
0.71205
0.712056
0.712062
0.712069
0.712077
0.712085
0.712094
0.712103
0.712113
0.712123
0.712134
0.712146
0.712159
0.712172
0.712187
0.712203
0.712223
0.712155
0.712243
)
;
    }
}


// ************************************************************************* //
