/*--------------------------------*- C++ -*----------------------------------*\
| =========                 |                                                 |
| \\      /  F ield         | OpenFOAM: The Open Source CFD Toolbox           |
|  \\    /   O peration     | Version:  4.1                                   |
|   \\  /    A nd           | Web:      www.OpenFOAM.org                      |
|    \\/     M anipulation  |                                                 |
\*---------------------------------------------------------------------------*/
FoamFile
{
    version     2.0;
    format      ascii;
    class       volVectorField;
    location    "480";
    object      U;
}
// * * * * * * * * * * * * * * * * * * * * * * * * * * * * * * * * * * * * * //

dimensions      [0 1 -1 0 0 0 0];

internalField   nonuniform List<vector> 
1275
(
(-3.82959e-06 3.42355e-05 0)
(5.86884e-06 4.33655e-05 0)
(-4.87976e-05 5.06111e-05 0)
(-0.000102895 4.17772e-05 0)
(-0.00018692 4.09098e-05 0)
(-0.000273445 2.85804e-05 0)
(-0.000363576 2.52207e-05 0)
(-0.000459283 1.53055e-05 0)
(-0.000546777 1.26375e-05 0)
(-0.000642833 6.70898e-06 0)
(-0.000729261 5.61118e-06 0)
(-0.000825585 2.76678e-06 0)
(-0.000913817 2.66721e-06 0)
(-0.00101058 1.49623e-06 0)
(-0.00110068 1.78926e-06 0)
(-0.00119699 1.42467e-06 0)
(-0.00128808 1.84327e-06 0)
(-0.00138349 1.84381e-06 0)
(-0.00147513 2.2382e-06 0)
(-0.00156978 2.32008e-06 0)
(-0.00166186 2.5507e-06 0)
(-0.00175601 2.49628e-06 0)
(-0.00184841 2.4157e-06 0)
(-0.00194217 2.0172e-06 0)
(-0.00203472 1.42667e-06 0)
(-0.00212818 4.11128e-07 0)
(-0.00222091 -1.01045e-06 0)
(-0.0023146 -3.075e-06 0)
(-0.0024086 -5.87718e-06 0)
(-0.0025048 -9.71841e-06 0)
(-0.00260391 -1.48306e-05 0)
(-0.00270898 -2.1605e-05 0)
(-0.0028229 -3.03441e-05 0)
(-0.0029512 -4.13274e-05 0)
(-0.00310057 -5.44537e-05 0)
(-0.00328113 -6.90578e-05 0)
(-0.00350585 -8.33507e-05 0)
(-0.0037921 -9.41274e-05 0)
(-0.00416137 -9.63228e-05 0)
(-0.00463915 -8.34377e-05 0)
(-0.00525327 -4.81994e-05 0)
(-0.00603056 1.52363e-05 0)
(-0.00699246 0.000109311 0)
(-0.00814892 0.000230576 0)
(-0.00949364 0.000369438 0)
(-0.0110004 0.000511493 0)
(-0.0126241 0.000640776 0)
(-0.0143041 0.000743557 0)
(-0.0159717 0.000810512 0)
(-0.0175562 0.000837754 0)
(-0.0189918 0.000825863 0)
(-0.020221 0.000778672 0)
(-0.0211971 0.000701665 0)
(-0.0218845 0.000600943 0)
(-0.0222582 0.000482455 0)
(-0.0223028 0.000351684 0)
(-0.0220117 0.000213542 0)
(-0.0213856 7.24065e-05 0)
(-0.0204323 -6.77751e-05 0)
(-0.019166 -0.000203424 0)
(-0.0176064 -0.000331259 0)
(-0.0157791 -0.000448316 0)
(-0.0137143 -0.000551959 0)
(-0.0114466 -0.000639956 0)
(-0.00901406 -0.000710537 0)
(-0.00645729 -0.000762469 0)
(-0.00381847 -0.000795093 0)
(-0.00114023 -0.000808365 0)
(0.00153557 -0.000802833 0)
(0.00416885 -0.000779608 0)
(0.00672227 -0.000740287 0)
(0.00916211 -0.000686864 0)
(0.0114588 -0.00062162 0)
(0.0135876 -0.000547009 0)
(0.0155285 -0.000465549 0)
(0.0172663 -0.000379729 0)
(0.0187909 -0.000291923 0)
(0.0200965 -0.000204335 0)
(0.0211815 -0.000118946 0)
(0.022048 -3.74916e-05 0)
(0.0227015 3.85546e-05 0)
(0.02315 0.000107982 0)
(0.0234039 0.000169836 0)
(0.0234753 0.000223406 0)
(0.0233777 0.000268205 0)
(0.0231256 0.000303951 0)
(0.0227341 0.000330549 0)
(0.0222188 0.000348071 0)
(0.0215952 0.000356738 0)
(0.0208788 0.000356913 0)
(0.0200847 0.000349087 0)
(0.0192277 0.00033387 0)
(0.0183216 0.000311983 0)
(0.0173796 0.000284242 0)
(0.0164141 0.000251543 0)
(0.0154362 0.000214839 0)
(0.0144561 0.000175118 0)
(0.0134828 0.000133393 0)
(0.0125243 9.0698e-05 0)
(0.0115876 4.81295e-05 0)
(0.0106787 6.90592e-06 0)
(0.00980263 -3.14986e-05 0)
(0.00896369 -6.52303e-05 0)
(0.00816509 -9.19275e-05 0)
(0.00740897 -0.000108867 0)
(0.00669624 -0.000113366 0)
(0.00602688 -0.000103793 0)
(0.00540041 -8.04918e-05 0)
(0.00481749 -4.68011e-05 0)
(0.00428033 -8.78783e-06 0)
(0.00379282 2.55381e-05 0)
(0.00336127 4.88696e-05 0)
(0.00299176 5.67068e-05 0)
(0.00268063 4.88582e-05 0)
(0.00241293 2.82609e-05 0)
(0.00217006 1.46416e-06 0)
(0.0019443 -2.55241e-05 0)
(0.00174142 -4.62886e-05 0)
(0.00157089 -5.4728e-05 0)
(0.00143053 -4.62437e-05 0)
(0.00130997 -2.56171e-05 0)
(0.00120217 -2.37881e-06 0)
(-1.73375e-05 -3.90591e-05 0)
(-7.68685e-05 -1.76842e-06 0)
(-0.000254626 5.79342e-05 0)
(-0.000440616 9.29761e-05 0)
(-0.000673496 0.000131655 0)
(-0.000918054 0.000145533 0)
(-0.00116634 0.00016382 0)
(-0.00142711 0.000166407 0)
(-0.00167305 0.000174476 0)
(-0.00193276 0.000175267 0)
(-0.00217649 0.000180629 0)
(-0.00243478 0.000182064 0)
(-0.00268053 0.000185549 0)
(-0.00293856 0.000186198 0)
(-0.00318697 0.000187526 0)
(-0.00344442 0.000187152 0)
(-0.00369501 0.000187254 0)
(-0.00395245 0.000186592 0)
(-0.00420591 0.000186403 0)
(-0.0044653 0.000185923 0)
(-0.00472361 0.000185833 0)
(-0.00498803 0.000185646 0)
(-0.0052544 0.000185776 0)
(-0.00552827 0.000185949 0)
(-0.00580782 0.000186523 0)
(-0.00609806 0.000187487 0)
(-0.0063995 0.000189364 0)
(-0.00671783 0.000192575 0)
(-0.00705646 0.000198102 0)
(-0.00742323 0.000207094 0)
(-0.00782542 0.000221367 0)
(-0.00827444 0.000243221 0)
(-0.0087823 0.000275763 0)
(-0.00936465 0.000322911 0)
(-0.0100377 0.000389385 0)
(-0.0108197 0.000480729 0)
(-0.0117271 0.00060254 0)
(-0.0127742 0.00076007 0)
(-0.0139694 0.000956267 0)
(-0.0153123 0.00119074 0)
(-0.0167912 0.00145726 0)
(-0.0183809 0.00174326 0)
(-0.0200432 0.00202918 0)
(-0.0217279 0.00229057 0)
(-0.0233773 0.00250097 0)
(-0.0249309 0.00263606 0)
(-0.0263294 0.00267781 0)
(-0.0275192 0.00261623 0)
(-0.0284539 0.0024509 0)
(-0.0290959 0.00218859 0)
(-0.0294165 0.00184209 0)
(-0.0293948 0.00142668 0)
(-0.029018 0.000958855 0)
(-0.0282795 0.000454195 0)
(-0.0271788 -7.28451e-05 0)
(-0.0257201 -0.000609584 0)
(-0.0239123 -0.00114463 0)
(-0.0217687 -0.00166787 0)
(-0.0193066 -0.00216997 0)
(-0.0165475 -0.00264234 0)
(-0.0135169 -0.00307692 0)
(-0.0102445 -0.00346636 0)
(-0.00676373 -0.00380407 0)
(-0.00311121 -0.0040845 0)
(0.000673614 -0.00430334 0)
(0.00454942 -0.00445773 0)
(0.0084739 -0.00454639 0)
(0.0124048 -0.00456969 0)
(0.0163008 -0.0045296 0)
(0.0201228 -0.00442962 0)
(0.0238343 -0.00427452 0)
(0.0274025 -0.00407014 0)
(0.0307988 -0.0038231 0)
(0.0339988 -0.00354051 0)
(0.0369827 -0.00322969 0)
(0.0397351 -0.00289787 0)
(0.0422449 -0.00255202 0)
(0.044505 -0.00219864 0)
(0.0465116 -0.00184361 0)
(0.0482642 -0.00149214 0)
(0.049765 -0.00114874 0)
(0.0510179 -0.000817182 0)
(0.052029 -0.000500541 0)
(0.0528054 -0.000201264 0)
(0.0533553 7.87879e-05 0)
(0.0536874 0.000338267 0)
(0.0538109 0.000576269 0)
(0.0537351 0.000792276 0)
(0.0534695 0.000986095 0)
(0.0530233 0.00115782 0)
(0.0524056 0.00130777 0)
(0.0516256 0.00143652 0)
(0.0506916 0.0015448 0)
(0.0496123 0.00163351 0)
(0.0483957 0.0017037 0)
(0.0470494 0.0017565 0)
(0.0455812 0.00179309 0)
(0.0439982 0.00181461 0)
(0.0423075 0.00182209 0)
(0.0405162 0.00181638 0)
(0.0386317 0.00179808 0)
(0.036662 0.00176745 0)
(0.0346163 0.00172444 0)
(0.0325054 0.00166872 0)
(0.0303434 0.00159977 0)
(0.0281474 0.0015169 0)
(0.0259386 0.00141972 0)
(0.0237419 0.00130784 0)
(0.0215851 0.0011819 0)
(0.0194972 0.00104492 0)
(0.0175058 0.000901256 0)
(0.0156357 0.000756546 0)
(0.0139083 0.000625526 0)
(0.0123389 0.000530079 0)
(0.0109377 0.00048249 0)
(0.00970468 0.00046889 0)
(0.0086334 0.000457919 0)
(0.0077168 0.000425116 0)
(0.00694438 0.000371575 0)
(0.00628702 0.000312654 0)
(0.00571011 0.000258169 0)
(0.0051955 0.000206834 0)
(-3.16136e-05 0.000137411 0)
(-0.000175703 0.000287021 0)
(-0.000476713 0.000424486 0)
(-0.000798171 0.000462942 0)
(-0.00117636 0.000526267 0)
(-0.00157111 0.000520537 0)
(-0.00197057 0.000539201 0)
(-0.00238264 0.000519278 0)
(-0.00277643 0.000520675 0)
(-0.00318127 0.000506666 0)
(-0.00356527 0.00050824 0)
(-0.00396017 0.000503224 0)
(-0.004338 0.000505974 0)
(-0.004725 0.000504591 0)
(-0.00509927 0.000506589 0)
(-0.0054809 0.00050649 0)
(-0.00585429 0.000508526 0)
(-0.00623439 0.000510146 0)
(-0.00661087 0.000513647 0)
(-0.00699478 0.000517757 0)
(-0.00737979 0.000523815 0)
(-0.00777428 0.000531289 0)
(-0.00817497 0.00054121 0)
(-0.00858863 0.00055365 0)
(-0.00901444 0.000569795 0)
(-0.00945853 0.000590433 0)
(-0.00992223 0.000617344 0)
(-0.0104118 0.000652294 0)
(-0.0109306 0.000698036 0)
(-0.0114855 0.000757525 0)
(-0.0120813 0.000834567 0)
(-0.0127253 0.00093306 0)
(-0.0134225 0.00105719 0)
(-0.0141785 0.00121057 0)
(-0.0149954 0.00139586 0)
(-0.0158732 0.00161388 0)
(-0.0168062 0.00186275 0)
(-0.0177835 0.00213728 0)
(-0.0187865 0.00242828 0)
(-0.0197897 0.00272252 0)
(-0.0207605 0.00300298 0)
(-0.0216612 0.00324923 0)
(-0.0224516 0.00343924 0)
(-0.0230913 0.00355017 0)
(-0.0235434 0.0035615 0)
(-0.0237758 0.00345689 0)
(-0.0237639 0.0032267 0)
(-0.0234892 0.00286967 0)
(-0.0229406 0.00239238 0)
(-0.0221113 0.00180814 0)
(-0.0209992 0.00113467 0)
(-0.0196046 0.000391535 0)
(-0.0179303 -0.000401446 0)
(-0.0159799 -0.00122585 0)
(-0.0137589 -0.00206475 0)
(-0.0112739 -0.00290309 0)
(-0.00853341 -0.00372698 0)
(-0.00554836 -0.0045236 0)
(-0.00233269 -0.00528057 0)
(0.00109627 -0.00598604 0)
(0.00471731 -0.00662849 0)
(0.00850535 -0.00719717 0)
(0.0124315 -0.00768226 0)
(0.0164636 -0.00807547 0)
(0.0205667 -0.00837035 0)
(0.0247042 -0.00856274 0)
(0.0288386 -0.008651 0)
(0.0329329 -0.00863614 0)
(0.0369513 -0.00852174 0)
(0.0408604 -0.00831379 0)
(0.0446299 -0.00802036 0)
(0.0482332 -0.00765111 0)
(0.051648 -0.00721683 0)
(0.0548561 -0.00672893 0)
(0.057844 -0.00619894 0)
(0.0606021 -0.00563809 0)
(0.0631247 -0.00505699 0)
(0.0654096 -0.00446532 0)
(0.0674575 -0.00387172 0)
(0.0692716 -0.00328364 0)
(0.0708568 -0.00270733 0)
(0.0722197 -0.00214789 0)
(0.0733675 -0.00160928 0)
(0.0743082 -0.00109449 0)
(0.0750498 -0.000605607 0)
(0.0756005 -0.000143955 0)
(0.0759678 0.000289781 0)
(0.0761591 0.000695442 0)
(0.0761811 0.0010733 0)
(0.0760398 0.00142396 0)
(0.0757406 0.00174831 0)
(0.0752881 0.00204745 0)
(0.0746863 0.00232267 0)
(0.0739383 0.00257539 0)
(0.0730467 0.00280714 0)
(0.0720133 0.0030195 0)
(0.0708391 0.00321405 0)
(0.0695244 0.00339225 0)
(0.0680689 0.00355538 0)
(0.0664715 0.00370435 0)
(0.0647306 0.0038396 0)
(0.0628441 0.00396087 0)
(0.0608099 0.00406711 0)
(0.058626 0.00415623 0)
(0.0562912 0.004225 0)
(0.0538056 0.00426889 0)
(0.0511715 0.00428207 0)
(0.0483944 0.00425773 0)
(0.0454839 0.0041883 0)
(0.0424548 0.00406738 0)
(0.0393297 0.00389007 0)
(0.0361386 0.00365464 0)
(0.0329202 0.00336505 0)
(0.0297279 0.00303153 0)
(0.0266299 0.00267135 0)
(0.0236972 0.00230895 0)
(0.020987 0.00195893 0)
(0.0185332 0.0016343 0)
(0.0163564 0.0013637 0)
(0.0144669 0.00117732 0)
(0.0128596 0.00105836 0)
(0.0115126 0.000957842 0)
(-8.40629e-05 0.000152408 0)
(-0.000380008 0.00042907 0)
(-0.000877049 0.000669319 0)
(-0.00136516 0.000781066 0)
(-0.00187561 0.000899585 0)
(-0.00239602 0.000932324 0)
(-0.00288993 0.00097503 0)
(-0.00340153 0.000968521 0)
(-0.00387563 0.000975491 0)
(-0.00436548 0.000962969 0)
(-0.00482208 0.000963084 0)
(-0.00529022 0.000955224 0)
(-0.0057325 0.000954163 0)
(-0.00618227 0.000948731 0)
(-0.00661322 0.000946962 0)
(-0.00704914 0.000943767 0)
(-0.0074724 0.000943866 0)
(-0.00789961 0.000944866 0)
(-0.00831938 0.000949478 0)
(-0.00874326 0.000956501 0)
(-0.00916413 0.000967634 0)
(-0.00959002 0.000982394 0)
(-0.0100166 0.00100212 0)
(-0.0104493 0.00102691 0)
(-0.0108854 0.00105819 0)
(-0.0113285 0.00109669 0)
(-0.0117766 0.00114425 0)
(-0.0122316 0.00120232 0)
(-0.0126914 0.0012733 0)
(-0.0131559 0.00135928 0)
(-0.0136219 0.00146288 0)
(-0.0140871 0.00158621 0)
(-0.0145458 0.00173117 0)
(-0.014992 0.00189855 0)
(-0.0154161 0.00208774 0)
(-0.0158072 0.00229632 0)
(-0.0161507 0.002519 0)
(-0.0164299 0.00274803 0)
(-0.0166252 0.00297156 0)
(-0.0167153 0.00317504 0)
(-0.0166775 0.00333973 0)
(-0.0164889 0.00344517 0)
(-0.0161279 0.00346894 0)
(-0.0155757 0.00339024 0)
(-0.0148176 0.00319125 0)
(-0.0138444 0.0028601 0)
(-0.0126515 0.00239302 0)
(-0.0112387 0.00179326 0)
(-0.00960961 0.00107244 0)
(-0.00776803 0.000246198 0)
(-0.00571886 -0.000665643 0)
(-0.00346485 -0.00164336 0)
(-0.00100837 -0.00266691 0)
(0.00165 -0.00371821 0)
(0.00450932 -0.00477995 0)
(0.00756826 -0.00583629 0)
(0.0108232 -0.00687147 0)
(0.0142678 -0.00787014 0)
(0.0178914 -0.00881643 0)
(0.0216788 -0.00969454 0)
(0.0256102 -0.0104886 0)
(0.0296608 -0.0111837 0)
(0.0338017 -0.0117659 0)
(0.0380002 -0.0122237 0)
(0.0422216 -0.0125484 0)
(0.0464294 -0.0127346 0)
(0.0505874 -0.0127805 0)
(0.0546602 -0.0126881 0)
(0.058615 -0.0124632 0)
(0.0624219 -0.0121146 0)
(0.0660549 -0.011654 0)
(0.0694927 -0.0110951 0)
(0.0727182 -0.010453 0)
(0.0757193 -0.00974355 0)
(0.0784882 -0.00898259 0)
(0.081021 -0.00818542 0)
(0.0833176 -0.0073663 0)
(0.0853808 -0.0065381 0)
(0.087216 -0.00571208 0)
(0.0888303 -0.00489777 0)
(0.0902324 -0.00410294 0)
(0.0914316 -0.00333369 0)
(0.0924378 -0.00259457 0)
(0.0932611 -0.00188875 0)
(0.0939111 -0.00121818 0)
(0.0943971 -0.00058384 0)
(0.0947278 1.41487e-05 0)
(0.0949109 0.000576306 0)
(0.0949536 0.00110367 0)
(0.0948619 0.00159766 0)
(0.094641 0.00206003 0)
(0.0942953 0.00249273 0)
(0.0938282 0.00289794 0)
(0.093242 0.00327797 0)
(0.0925385 0.00363527 0)
(0.0917182 0.00397241 0)
(0.0907808 0.00429195 0)
(0.0897248 0.00459644 0)
(0.088548 0.00488823 0)
(0.0872468 0.00516935 0)
(0.0858165 0.00544129 0)
(0.0842515 0.00570481 0)
(0.0825452 0.00595966 0)
(0.0806903 0.0062044 0)
(0.0786789 0.00643621 0)
(0.0765032 0.00665069 0)
(0.0741551 0.00684195 0)
(0.0716273 0.00700247 0)
(0.0689131 0.00712355 0)
(0.0660072 0.00719569 0)
(0.0629072 0.00720919 0)
(0.0596137 0.00715411 0)
(0.0561332 0.0070228 0)
(0.0524803 0.00680863 0)
(0.0486806 0.0065069 0)
(0.044774 0.00611388 0)
(0.0408181 0.00563277 0)
(0.0368769 0.00507315 0)
(0.0330265 0.00445761 0)
(0.0293604 0.00382591 0)
(0.0259785 0.0032219 0)
(0.0229451 0.0026668 0)
(-0.000109334 0.000624475 0)
(-0.000525431 0.00109664 0)
(-0.00116221 0.00143438 0)
(-0.00178099 0.00146912 0)
(-0.00240275 0.00157448 0)
(-0.00301582 0.00153581 0)
(-0.00358252 0.00155429 0)
(-0.00414937 0.0015021 0)
(-0.00466316 0.00148861 0)
(-0.00517694 0.00144855 0)
(-0.00564397 0.0014336 0)
(-0.00610844 0.00140871 0)
(-0.00653535 0.0013969 0)
(-0.00695798 0.00138068 0)
(-0.0073518 0.00137159 0)
(-0.00774039 0.00136161 0)
(-0.00810681 0.00135692 0)
(-0.00846709 0.00135369 0)
(-0.00880957 0.00135528 0)
(-0.00914474 0.00135964 0)
(-0.00946441 0.00136868 0)
(-0.00977499 0.00138129 0)
(-0.0100703 0.00139871 0)
(-0.0103534 0.00142039 0)
(-0.0106191 0.00144742 0)
(-0.0108677 0.0014798 0)
(-0.0110937 0.00151885 0)
(-0.011295 0.00156521 0)
(-0.0114654 0.00162061 0)
(-0.0116003 0.0016862 0)
(-0.0116918 0.00176388 0)
(-0.0117333 0.00185465 0)
(-0.0117149 0.00195945 0)
(-0.0116274 0.00207761 0)
(-0.011459 0.00220713 0)
(-0.0111983 0.00234352 0)
(-0.0108313 0.00247948 0)
(-0.0103449 0.00260475 0)
(-0.00972417 0.00270571 0)
(-0.00895562 0.00276612 0)
(-0.00802592 0.00276784 0)
(-0.00692413 0.00269154 0)
(-0.00564233 0.00251954 0)
(-0.00417551 0.00223541 0)
(-0.00252394 0.00182805 0)
(-0.000689278 0.00129107 0)
(0.0013222 0.000623481 0)
(0.00350474 -0.000168002 0)
(0.00585245 -0.00107285 0)
(0.00836211 -0.00207648 0)
(0.0110324 -0.0031621 0)
(0.0138651 -0.00431265 0)
(0.016863 -0.0055103 0)
(0.0200297 -0.00673802 0)
(0.0233672 -0.00797801 0)
(0.0268751 -0.00921255 0)
(0.030549 -0.0104225 0)
(0.0343793 -0.0115881 0)
(0.0383511 -0.0126882 0)
(0.0424437 -0.0137016 0)
(0.0466313 -0.0146072 0)
(0.0508833 -0.0153853 0)
(0.0551656 -0.0160182 0)
(0.059442 -0.0164918 0)
(0.0636754 -0.0167959 0)
(0.067829 -0.0169248 0)
(0.0718684 -0.016878 0)
(0.0757618 -0.0166599 0)
(0.0794816 -0.0162795 0)
(0.0830049 -0.0157499 0)
(0.0863135 -0.0150874 0)
(0.0893946 -0.0143108 0)
(0.0922398 -0.0134401 0)
(0.0948459 -0.0124958 0)
(0.0972132 -0.0114978 0)
(0.099346 -0.010465 0)
(0.101251 -0.00941456 0)
(0.102937 -0.00836163 0)
(0.104416 -0.00731922 0)
(0.105698 -0.00629804 0)
(0.106795 -0.0053066 0)
(0.10772 -0.00435133 0)
(0.108484 -0.00343675 0)
(0.109098 -0.0025657 0)
(0.109573 -0.00173962 0)
(0.109917 -0.000958735 0)
(0.110139 -0.000222349 0)
(0.110246 0.000470983 0)
(0.110244 0.00112326 0)
(0.110139 0.00173688 0)
(0.109935 0.00231454 0)
(0.109636 0.00285917 0)
(0.109243 0.00337386 0)
(0.108759 0.00386188 0)
(0.108186 0.00432661 0)
(0.107522 0.00477159 0)
(0.106767 0.00520039 0)
(0.105919 0.00561663 0)
(0.104977 0.00602377 0)
(0.103935 0.00642497 0)
(0.102788 0.00682286 0)
(0.10153 0.00721924 0)
(0.100152 0.00761478 0)
(0.0986467 0.00800878 0)
(0.0970026 0.00839878 0)
(0.0952091 0.00878055 0)
(0.0932547 0.00914775 0)
(0.0911277 0.00949233 0)
(0.0888165 0.00980434 0)
(0.0863102 0.0100731 0)
(0.0835992 0.0102867 0)
(0.0806759 0.0104342 0)
(0.0775353 0.0105043 0)
(0.0741766 0.0104883 0)
(0.0706036 0.0103768 0)
(0.0668242 0.0101641 0)
(0.0628524 0.00984196 0)
(0.0587076 0.00940832 0)
(0.0544208 0.00886243 0)
(0.0500342 0.00821361 0)
(0.0456166 0.00747056 0)
(0.0412501 0.00665364 0)
(-0.000264276 0.000748601 0)
(-0.000921525 0.00145095 0)
(-0.00175533 0.00189929 0)
(-0.0024855 0.00199933 0)
(-0.00308435 0.00212306 0)
(-0.00367197 0.00209974 0)
(-0.0041337 0.00210681 0)
(-0.00461258 0.00204413 0)
(-0.00499842 0.00200628 0)
(-0.00539501 0.00194315 0)
(-0.00572274 0.00189974 0)
(-0.00604991 0.00184822 0)
(-0.00632506 0.00180916 0)
(-0.00659238 0.0017677 0)
(-0.00681938 0.00173434 0)
(-0.00703411 0.00170147 0)
(-0.0072156 0.00167479 0)
(-0.0073813 0.00165014 0)
(-0.00751717 0.00163059 0)
(-0.00763371 0.00161357 0)
(-0.007721 0.00160069 0)
(-0.00778476 0.00159017 0)
(-0.00781732 0.00158285 0)
(-0.00782084 0.0015774 0)
(-0.00778855 0.00157435 0)
(-0.00771966 0.00157281 0)
(-0.00760731 0.00157334 0)
(-0.00744805 0.00157553 0)
(-0.00723407 0.00158021 0)
(-0.00695937 0.00158735 0)
(-0.00661464 0.00159776 0)
(-0.00619149 0.00161125 0)
(-0.00567884 0.0016277 0)
(-0.00506641 0.00164553 0)
(-0.00434173 0.00166206 0)
(-0.00349369 0.00167275 0)
(-0.00250971 0.00167047 0)
(-0.00137946 0.00164652 0)
(-9.25004e-05 0.0015884 0)
(0.00135878 0.00148328 0)
(0.00298035 0.00131455 0)
(0.00477517 0.00106742 0)
(0.00674387 0.000725133 0)
(0.0088836 0.000275342 0)
(0.0111913 -0.000292946 0)
(0.0136602 -0.000985742 0)
(0.0162848 -0.00180201 0)
(0.019062 -0.00273938 0)
(0.0219879 -0.00378818 0)
(0.025063 -0.00493788 0)
(0.0282875 -0.00617317 0)
(0.0316637 -0.00747878 0)
(0.0351925 -0.00883628 0)
(0.0388732 -0.0102271 0)
(0.0427012 -0.0116298 0)
(0.0466672 -0.0130221 0)
(0.0507564 -0.0143792 0)
(0.0549483 -0.0156754 0)
(0.0592168 -0.0168837 0)
(0.0635307 -0.0179773 0)
(0.0678554 -0.0189305 0)
(0.0721534 -0.0197203 0)
(0.0763867 -0.020327 0)
(0.0805176 -0.0207359 0)
(0.0845109 -0.0209381 0)
(0.0883344 -0.0209306 0)
(0.0919606 -0.0207167 0)
(0.0953669 -0.0203054 0)
(0.0985366 -0.0197108 0)
(0.101459 -0.0189515 0)
(0.104128 -0.018049 0)
(0.106544 -0.0170269 0)
(0.108711 -0.0159099 0)
(0.11064 -0.0147225 0)
(0.11234 -0.0134881 0)
(0.113827 -0.0122284 0)
(0.115116 -0.0109627 0)
(0.116223 -0.00970773 0)
(0.117165 -0.00847716 0)
(0.117957 -0.00728188 0)
(0.118613 -0.00613008 0)
(0.119149 -0.00502747 0)
(0.119575 -0.0039776 0)
(0.119904 -0.00298219 0)
(0.120144 -0.00204145 0)
(0.120303 -0.00115438 0)
(0.120388 -0.000319105 0)
(0.120404 0.000466958 0)
(0.120355 0.00120683 0)
(0.120244 0.00190386 0)
(0.120074 0.00256158 0)
(0.119845 0.00318367 0)
(0.119559 0.00377393 0)
(0.119215 0.00433631 0)
(0.118813 0.0048749 0)
(0.118351 0.00539398 0)
(0.117829 0.00589801 0)
(0.117242 0.0063916 0)
(0.116589 0.00687936 0)
(0.115863 0.00736574 0)
(0.115059 0.00785476 0)
(0.11417 0.00834967 0)
(0.113187 0.00885264 0)
(0.1121 0.00936435 0)
(0.110897 0.00988375 0)
(0.109567 0.0104077 0)
(0.108096 0.0109311 0)
(0.10647 0.0114464 0)
(0.104676 0.0119442 0)
(0.102698 0.0124133 0)
(0.100524 0.0128411 0)
(0.0981396 0.0132136 0)
(0.0955357 0.0135171 0)
(0.0927028 0.0137364 0)
(0.0896367 0.0138584 0)
(0.0863355 0.0138684 0)
(0.0828036 0.0137569 0)
(0.0790477 0.0135144 0)
(0.0750815 0.0131399 0)
(0.0709256 0.0126343 0)
(0.066604 0.0120036 0)
(0.0621585 0.0112576 0)
(-0.000269522 0.00186637 0)
(-0.00094574 0.00261782 0)
(-0.0017639 0.00305207 0)
(-0.00246366 0.00280889 0)
(-0.00298868 0.00279249 0)
(-0.0034509 0.00258424 0)
(-0.00375764 0.00250912 0)
(-0.00403942 0.00236052 0)
(-0.00421316 0.00227512 0)
(-0.00437157 0.00216482 0)
(-0.00445231 0.00208755 0)
(-0.00451684 0.0020031 0)
(-0.00452254 0.00193634 0)
(-0.00450993 0.00186799 0)
(-0.00445044 0.00180975 0)
(-0.0043702 0.001752 0)
(-0.00424963 0.0017007 0)
(-0.00410504 0.00165058 0)
(-0.00392259 0.00160471 0)
(-0.00371198 0.00155977 0)
(-0.003463 0.00151725 0)
(-0.00318073 0.00147473 0)
(-0.00285708 0.00143274 0)
(-0.00249374 0.00138933 0)
(-0.00208363 0.00134453 0)
(-0.00162568 0.0012967 0)
(-0.00111287 0.00124573 0)
(-0.00054162 0.00119032 0)
(9.58273e-05 0.00113047 0)
(0.000805506 0.00106512 0)
(0.00159657 0.000994343 0)
(0.0024773 0.000916881 0)
(0.00345855 0.00083218 0)
(0.00455021 0.000737851 0)
(0.00576453 0.000631334 0)
(0.00711159 0.000507801 0)
(0.00860397 0.000361063 0)
(0.01025 0.000182759 0)
(0.0120606 -3.75623e-05 0)
(0.0140406 -0.000312026 0)
(0.0161969 -0.000653488 0)
(0.0185301 -0.00107665 0)
(0.0210409 -0.0015926 0)
(0.0237271 -0.00221484 0)
(0.026583 -0.00295029 0)
(0.0296059 -0.00380292 0)
(0.0327887 -0.00477795 0)
(0.0361258 -0.00586987 0)
(0.0396119 -0.007072 0)
(0.0432419 -0.00837374 0)
(0.0470102 -0.00976014 0)
(0.0509094 -0.0112148 0)
(0.0549294 -0.0127166 0)
(0.0590563 -0.0142433 0)
(0.0632714 -0.0157683 0)
(0.0675509 -0.017264 0)
(0.0718663 -0.0186997 0)
(0.0761842 -0.0200444 0)
(0.0804684 -0.0212664 0)
(0.0846801 -0.022336 0)
(0.0887802 -0.0232257 0)
(0.0927303 -0.0239126 0)
(0.0964947 -0.0243788 0)
(0.100041 -0.0246128 0)
(0.103344 -0.0246099 0)
(0.106381 -0.0243722 0)
(0.10914 -0.0239086 0)
(0.111613 -0.0232343 0)
(0.1138 -0.0223697 0)
(0.115707 -0.0213396 0)
(0.117345 -0.0201715 0)
(0.118731 -0.018894 0)
(0.119883 -0.0175362 0)
(0.120825 -0.0161253 0)
(0.121579 -0.0146866 0)
(0.12217 -0.0132427 0)
(0.12262 -0.0118125 0)
(0.122953 -0.0104122 0)
(0.123189 -0.00905411 0)
(0.123347 -0.00774777 0)
(0.123443 -0.0064997 0)
(0.123492 -0.00531384 0)
(0.123506 -0.00419196 0)
(0.123492 -0.00313398 0)
(0.12346 -0.00213838 0)
(0.123413 -0.00120255 0)
(0.123355 -0.000323091 0)
(0.123289 0.000503915 0)
(0.123214 0.00128268 0)
(0.123131 0.00201755 0)
(0.123039 0.00271292 0)
(0.122936 0.00337316 0)
(0.12282 0.00400267 0)
(0.122689 0.00460589 0)
(0.12254 0.00518742 0)
(0.12237 0.00575209 0)
(0.122177 0.00630499 0)
(0.121955 0.00685151 0)
(0.121701 0.0073972 0)
(0.121408 0.00794763 0)
(0.121071 0.00850805 0)
(0.12068 0.00908306 0)
(0.120226 0.00967612 0)
(0.119697 0.0102892 0)
(0.11908 0.0109223 0)
(0.118362 0.0115731 0)
(0.117525 0.0122369 0)
(0.116555 0.0129065 0)
(0.115433 0.0135724 0)
(0.114144 0.014223 0)
(0.11267 0.0148446 0)
(0.110998 0.0154232 0)
(0.109111 0.0159427 0)
(0.107 0.0163884 0)
(0.104651 0.0167431 0)
(0.102062 0.0169939 0)
(0.0992244 0.0171233 0)
(0.0961405 0.0171229 0)
(0.0928105 0.0169768 0)
(0.0892458 0.0166868 0)
(0.0854588 0.0162378 0)
(0.0814757 0.0156476 0)
(-0.000778939 0.00187094 0)
(-0.00172891 0.00288039 0)
(-0.00219317 0.00336849 0)
(-0.00252148 0.00318726 0)
(-0.00241757 0.00309433 0)
(-0.00239742 0.00285349 0)
(-0.00213703 0.00269593 0)
(-0.00194378 0.00249663 0)
(-0.00161897 0.00234582 0)
(-0.00132697 0.00218505 0)
(-0.000954552 0.00205421 0)
(-0.000590663 0.00192335 0)
(-0.000170514 0.00181103 0)
(0.000255564 0.00170088 0)
(0.000726073 0.00160213 0)
(0.00121179 0.00150547 0)
(0.00173695 0.00141571 0)
(0.00228468 0.00132718 0)
(0.00287121 0.00124231 0)
(0.00348722 0.00115728 0)
(0.00414436 0.00107309 0)
(0.00483819 0.000986851 0)
(0.0055777 0.000898634 0)
(0.00636185 0.000805988 0)
(0.0071982 0.000708402 0)
(0.0080883 0.000603651 0)
(0.00903922 0.000490931 0)
(0.0100548 0.000368164 0)
(0.0111422 0.000234481 0)
(0.0123076 8.78498e-05 0)
(0.0135591 -7.2661e-05 0)
(0.0149048 -0.00024934 0)
(0.0163543 -0.00044361 0)
(0.0179174 -0.000658617 0)
(0.0196047 -0.000897253 0)
(0.0214263 -0.00116426 0)
(0.0233938 -0.00146533 0)
(0.025515 -0.00180719 0)
(0.027801 -0.00219942 0)
(0.0302551 -0.00265013 0)
(0.0328863 -0.0031727 0)
(0.0356913 -0.00377465 0)
(0.0386757 -0.00447115 0)
(0.0418297 -0.00526684 0)
(0.0451548 -0.00617295 0)
(0.0486373 -0.00719408 0)
(0.0522678 -0.00832483 0)
(0.0560387 -0.00956632 0)
(0.0599341 -0.0109079 0)
(0.0639402 -0.0123399 0)
(0.068038 -0.013844 0)
(0.0722065 -0.0154011 0)
(0.0764205 -0.0169857 0)
(0.0806509 -0.0185711 0)
(0.0848652 -0.0201258 0)
(0.0890265 -0.0216179 0)
(0.0930963 -0.0230132 0)
(0.0970337 -0.0242782 0)
(0.100798 -0.0253804 0)
(0.104351 -0.0262903 0)
(0.107655 -0.0269825 0)
(0.110679 -0.0274371 0)
(0.113397 -0.027641 0)
(0.115792 -0.0275885 0)
(0.117853 -0.0272819 0)
(0.119575 -0.0267312 0)
(0.120966 -0.0259534 0)
(0.122037 -0.0249711 0)
(0.122806 -0.0238113 0)
(0.123298 -0.0225039 0)
(0.123543 -0.0210802 0)
(0.123571 -0.0195721 0)
(0.123418 -0.01801 0)
(0.123118 -0.0164228 0)
(0.122706 -0.0148361 0)
(0.122214 -0.0132718 0)
(0.121671 -0.011748 0)
(0.121104 -0.0102785 0)
(0.120535 -0.00887319 0)
(0.119983 -0.0075386 0)
(0.119463 -0.00627804 0)
(0.118987 -0.0050923 0)
(0.118564 -0.00398015 0)
(0.118199 -0.00293881 0)
(0.117895 -0.00196438 0)
(0.117654 -0.00105222 0)
(0.117475 -0.000197238 0)
(0.117354 0.000605829 0)
(0.11729 0.00136223 0)
(0.117277 0.00207709 0)
(0.117311 0.00275529 0)
(0.117387 0.00340152 0)
(0.1175 0.00402033 0)
(0.117646 0.00461624 0)
(0.117819 0.00519389 0)
(0.118015 0.00575826 0)
(0.11823 0.00631476 0)
(0.118459 0.00686931 0)
(0.118697 0.00742832 0)
(0.118938 0.00799849 0)
(0.119174 0.00858648 0)
(0.119398 0.00919856 0)
(0.119599 0.00983997 0)
(0.119764 0.0105145 0)
(0.119881 0.0112239 0)
(0.119932 0.0119675 0)
(0.119902 0.012742 0)
(0.11977 0.0135414 0)
(0.119519 0.0143567 0)
(0.119127 0.0151763 0)
(0.118574 0.0159866 0)
(0.117838 0.0167714 0)
(0.116903 0.0175139 0)
(0.115747 0.0181946 0)
(0.114361 0.0187958 0)
(0.112722 0.0192967 0)
(0.110832 0.0196823 0)
(0.108672 0.0199327 0)
(0.106254 0.0200396 0)
(0.103568 0.0199882 0)
(0.100631 0.0197753 0)
(0.0974543 0.0194 0)
(-0.000313414 0.00453602 0)
(-0.000257143 0.00407496 0)
(0.00022269 0.00395598 0)
(0.000781196 0.00303528 0)
(0.00156777 0.00271484 0)
(0.00232479 0.00229168 0)
(0.00320106 0.00206906 0)
(0.00403754 0.00182695 0)
(0.00494094 0.00165762 0)
(0.00581365 0.00148535 0)
(0.00672916 0.00134528 0)
(0.00762749 0.00120598 0)
(0.00855801 0.00108292 0)
(0.00948369 0.000960691 0)
(0.0104377 0.000846782 0)
(0.0113974 0.00073266 0)
(0.0123855 0.000622086 0)
(0.0133891 0.000509801 0)
(0.0144242 0.000397542 0)
(0.0154841 0.000281662 0)
(0.0165808 0.00016265 0)
(0.0177118 3.76345e-05 0)
(0.0188866 -9.37429e-05 0)
(0.0201056 -0.000234025 0)
(0.0213771 -0.00038415 0)
(0.0227034 -0.000546557 0)
(0.0240919 -0.000722534 0)
(0.0255472 -0.000914536 0)
(0.027076 -0.00112399 0)
(0.0286846 -0.00135351 0)
(0.0303801 -0.00160459 0)
(0.0321703 -0.00188029 0)
(0.0340624 -0.00218233 0)
(0.0360655 -0.0025148 0)
(0.0381873 -0.00288015 0)
(0.0404367 -0.00328419 0)
(0.0428219 -0.00373078 0)
(0.0453485 -0.00422792 0)
(0.048026 -0.00478122 0)
(0.0508523 -0.00540076 0)
(0.0538394 -0.00609286 0)
(0.0569724 -0.00686877 0)
(0.0602658 -0.00773295 0)
(0.0636923 -0.00869498 0)
(0.0672589 -0.00975735 0)
(0.0709457 -0.0109134 0)
(0.0747357 -0.012177 0)
(0.0786072 -0.0135327 0)
(0.0825377 -0.0149694 0)
(0.0864991 -0.0164729 0)
(0.0904617 -0.0180212 0)
(0.0943907 -0.0195918 0)
(0.0982498 -0.0211555 0)
(0.101999 -0.0226824 0)
(0.105596 -0.0241386 0)
(0.109 -0.0254902 0)
(0.112169 -0.0267023 0)
(0.115063 -0.0277421 0)
(0.117646 -0.0285794 0)
(0.119887 -0.0291888 0)
(0.121762 -0.0295507 0)
(0.123254 -0.0296529 0)
(0.124354 -0.0294907 0)
(0.125062 -0.0290672 0)
(0.125386 -0.0283932 0)
(0.125344 -0.0274861 0)
(0.124962 -0.0263698 0)
(0.124271 -0.0250733 0)
(0.123312 -0.0236297 0)
(0.122127 -0.0220741 0)
(0.12076 -0.0204422 0)
(0.119258 -0.0187683 0)
(0.117666 -0.0170835 0)
(0.116027 -0.0154147 0)
(0.11438 -0.0137842 0)
(0.112763 -0.0122097 0)
(0.111206 -0.0107042 0)
(0.109737 -0.00927699 0)
(0.108377 -0.00793335 0)
(0.107143 -0.00667553 0)
(0.106045 -0.00550306 0)
(0.105091 -0.00441327 0)
(0.104284 -0.00340184 0)
(0.103624 -0.00246328 0)
(0.103108 -0.00159132 0)
(0.102731 -0.00077937 0)
(0.102488 -2.07468e-05 0)
(0.102369 0.000691035 0)
(0.102367 0.0013621 0)
(0.102474 0.00199809 0)
(0.102682 0.00260415 0)
(0.102981 0.00318495 0)
(0.103364 0.00374478 0)
(0.103824 0.00428781 0)
(0.104356 0.00481829 0)
(0.104953 0.00534082 0)
(0.105611 0.00586066 0)
(0.106326 0.00638385 0)
(0.107092 0.00691724 0)
(0.107904 0.00746839 0)
(0.108757 0.00804522 0)
(0.109643 0.0086555 0)
(0.110552 0.00930626 0)
(0.111472 0.0100032 0)
(0.112391 0.0107498 0)
(0.113292 0.0115473 0)
(0.114158 0.0123938 0)
(0.114971 0.0132847 0)
(0.115707 0.0142119 0)
(0.116347 0.0151649 0)
(0.116866 0.0161298 0)
(0.117242 0.0170911 0)
(0.117447 0.0180306 0)
(0.117464 0.0189292 0)
(0.117263 0.0197653 0)
(0.116834 0.0205198 0)
(0.116141 0.0211679 0)
(0.115198 0.0216961 0)
(0.113951 0.0220745 0)
(0.112453 0.0223068 0)
(0.110631 0.0223502 0)
(0.108564 0.0222408 0)
(0.00236127 0.0021816 0)
(0.00452363 0.00221253 0)
(0.00804068 0.00225369 0)
(0.0101254 0.0017978 0)
(0.012436 0.00153779 0)
(0.0142018 0.00121314 0)
(0.0160158 0.000992736 0)
(0.0175913 0.00076334 0)
(0.0191748 0.000585317 0)
(0.0206382 0.000407422 0)
(0.0221016 0.000255771 0)
(0.0235006 0.000105187 0)
(0.0249011 -3.20667e-05 0)
(0.0262686 -0.000169476 0)
(0.0276424 -0.00030115 0)
(0.0290037 -0.000434933 0)
(0.0303777 -0.000568138 0)
(0.0317546 -0.000705764 0)
(0.0331516 -0.000846891 0)
(0.0345645 -0.000995077 0)
(0.036006 -0.00115049 0)
(0.0374752 -0.00131599 0)
(0.0389822 -0.00149248 0)
(0.0405285 -0.00168252 0)
(0.0421222 -0.00188754 0)
(0.0437667 -0.00211003 0)
(0.0454689 -0.00235174 0)
(0.0472334 -0.00261519 0)
(0.0490663 -0.00290235 0)
(0.0509734 -0.00321586 0)
(0.0529596 -0.00355779 0)
(0.0550324 -0.00393122 0)
(0.0571949 -0.00433827 0)
(0.0594565 -0.00478296 0)
(0.0618176 -0.00526756 0)
(0.0642894 -0.00579767 0)