/*--------------------------------*- C++ -*----------------------------------*\
| =========                 |                                                 |
| \\      /  F ield         | OpenFOAM: The Open Source CFD Toolbox           |
|  \\    /   O peration     | Version:  4.1                                   |
|   \\  /    A nd           | Web:      www.OpenFOAM.org                      |
|    \\/     M anipulation  |                                                 |
\*---------------------------------------------------------------------------*/
FoamFile
{
    version     2.0;
    format      ascii;
    class       volVectorField;
    location    "3720";
    object      U;
}
// * * * * * * * * * * * * * * * * * * * * * * * * * * * * * * * * * * * * * //

dimensions      [0 1 -1 0 0 0 0];

internalField   nonuniform List<vector> 
1275
(
(0.0903247 -0.000685141 0)
(0.0902286 -0.000690287 0)
(0.0900974 -0.000684252 0)
(0.090022 -0.00069131 0)
(0.0898642 -0.000681009 0)
(0.0864692 -0.00181503 0)
(0.0859564 -0.00139893 0)
(0.0855287 -0.00101103 0)
(0.0851804 -0.000643134 0)
(0.0849085 -0.00029778 0)
(0.0847077 2.89149e-05 0)
(0.0845743 0.000336795 0)
(0.0845033 0.000628278 0)
(0.0844907 0.000903924 0)
(0.0845318 0.00116548 0)
(0.0846229 0.0014137 0)
(0.0847595 0.00164995 0)
(0.084938 0.00187498 0)
(0.0851545 0.00208987 0)
(0.0854057 0.00229531 0)
(0.0856881 0.00249217 0)
(0.0859986 0.00268104 0)
(0.0863342 0.00286261 0)
(0.086692 0.00303735 0)
(0.0870694 0.0032058 0)
(0.0874639 0.00336833 0)
(0.0878731 0.00352534 0)
(0.0882947 0.00367709 0)
(0.0887266 0.00382385 0)
(0.0891669 0.00396579 0)
(0.0896135 0.00410306 0)
(0.0900647 0.00423575 0)
(0.0905188 0.00436389 0)
(0.090974 0.00448749 0)
(0.0914289 0.0046065 0)
(0.0918819 0.00472083 0)
(0.0923315 0.00483038 0)
(0.0927765 0.00493498 0)
(0.0932155 0.00503446 0)
(0.0936471 0.0051286 0)
(0.0940704 0.00521718 0)
(0.094484 0.00529994 0)
(0.0948869 0.00537663 0)
(0.0952782 0.00544696 0)
(0.0956568 0.00551066 0)
(0.0960218 0.00556745 0)
(0.0963725 0.00561705 0)
(0.096708 0.0056592 0)
(0.0970278 0.00569363 0)
(0.0973311 0.00572011 0)
(0.0976175 0.00573843 0)
(0.0978864 0.00574838 0)
(0.0981376 0.00574982 0)
(0.0983707 0.00574262 0)
(0.0985856 0.00572668 0)
(0.098782 0.00570195 0)
(0.0989599 0.00566844 0)
(0.0991195 0.00562617 0)
(0.0992607 0.00557521 0)
(0.0993837 0.00551571 0)
(0.0994889 0.00544781 0)
(0.0995765 0.00537175 0)
(0.0996469 0.00528776 0)
(0.0997007 0.00519615 0)
(0.0997382 0.00509725 0)
(0.09976 0.00499144 0)
(0.0997668 0.00487911 0)
(0.0997591 0.0047607 0)
(0.0997377 0.00463666 0)
(0.0997032 0.00450748 0)
(0.0996563 0.00437365 0)
(0.0995978 0.00423567 0)
(0.0995283 0.00409407 0)
(0.0994486 0.00394937 0)
(0.0993594 0.00380209 0)
(0.0992615 0.00365275 0)
(0.0991555 0.00350186 0)
(0.099042 0.00334993 0)
(0.0989219 0.00319745 0)
(0.0987956 0.00304489 0)
(0.0986639 0.00289271 0)
(0.0985272 0.00274134 0)
(0.0983862 0.00259119 0)
(0.0982413 0.00244266 0)
(0.098093 0.00229611 0)
(0.0979418 0.00215188 0)
(0.0977882 0.00201028 0)
(0.0976324 0.0018716 0)
(0.0974748 0.0017361 0)
(0.0973158 0.001604 0)
(0.0971557 0.00147553 0)
(0.0969947 0.00135085 0)
(0.096833 0.00123013 0)
(0.0966709 0.00111349 0)
(0.0965085 0.00100105 0)
(0.096346 0.000892886 0)
(0.0961836 0.00078907 0)
(0.0960214 0.000689644 0)
(0.0958594 0.000594632 0)
(0.0956979 0.000504043 0)
(0.0955367 0.000417867 0)
(0.0953761 0.00033608 0)
(0.0952161 0.000258638 0)
(0.0950567 0.000185496 0)
(0.0948979 0.000116577 0)
(0.0947398 5.18214e-05 0)
(0.0945825 -8.88055e-06 0)
(0.0944258 -6.55907e-05 0)
(0.0942699 -0.000118463 0)
(0.0941148 -0.000167533 0)
(0.0939604 -0.000213028 0)
(0.0938069 -0.000254911 0)
(0.0936538 -0.000293538 0)
(0.0935021 -0.000328713 0)
(0.0933504 -0.000361036 0)
(0.0932005 -0.000389981 0)
(0.0930498 -0.000416621 0)
(0.0929025 -0.000439789 0)
(0.092752 -0.000461434 0)
(0.0926085 -0.000479213 0)
(0.092456 -0.000496637 0)
(0.0923198 -0.000509325 0)
(0.0921601 -0.000523375 0)
(0.0920396 -0.000531206 0)
(0.0918597 -0.000542679 0)
(0.091775 -0.000546091 0)
(0.0915445 -0.000554995 0)
(0.091448 -0.00055507 0)
(0.0913324 -0.000562126 0)
(0.0911629 -0.000558036 0)
(0.0910708 -0.00056372 0)
(0.0908671 -0.000557371 0)
(0.0651335 -0.0012416 0)
(0.064677 -0.000925276 0)
(0.064318 -0.000629871 0)
(0.0640545 -0.000350783 0)
(0.063879 -8.84985e-05 0)
(0.0637859 0.000159991 0)
(0.0637693 0.000394966 0)
(0.0638236 0.000618512 0)
(0.0639435 0.000831186 0)
(0.0641239 0.00103449 0)
(0.0643601 0.00122904 0)
(0.0646475 0.00141594 0)
(0.0649819 0.00159577 0)
(0.0653593 0.00176937 0)
(0.0657761 0.00193724 0)
(0.0662287 0.0021 0)
(0.066714 0.00225807 0)
(0.0672289 0.00241191 0)
(0.0677706 0.00256186 0)
(0.0683364 0.00270825 0)
(0.0689239 0.00285131 0)
(0.0695308 0.00299128 0)
(0.0701548 0.00312831 0)
(0.0707938 0.00326252 0)
(0.071446 0.00339399 0)
(0.0721094 0.00352277 0)
(0.0727821 0.00364884 0)
(0.0734626 0.00377217 0)
(0.0741491 0.00389268 0)
(0.07484 0.00401026 0)
(0.0755338 0.00412476 0)
(0.0762291 0.004236 0)
(0.0769242 0.00434377 0)
(0.0776179 0.00444785 0)
(0.0783086 0.00454796 0)
(0.0789952 0.00464382 0)
(0.0796762 0.00473514 0)
(0.0803504 0.0048216 0)
(0.0810166 0.00490287 0)
(0.0816735 0.00497861 0)
(0.0823199 0.00504849 0)
(0.0829548 0.00511217 0)
(0.0835771 0.00516931 0)
(0.0841857 0.0052196 0)
(0.0847797 0.00526272 0)
(0.0853582 0.00529839 0)
(0.0859203 0.00532634 0)
(0.0864653 0.00534633 0)
(0.0869923 0.00535815 0)
(0.0875009 0.00536165 0)
(0.0879903 0.00535668 0)
(0.0884602 0.00534315 0)
(0.08891 0.00532102 0)
(0.0893395 0.00529028 0)
(0.0897485 0.00525098 0)
(0.0901366 0.00520322 0)
(0.0905038 0.00514712 0)
(0.0908501 0.00508287 0)
(0.0911755 0.00501071 0)
(0.0914802 0.00493091 0)
(0.0917643 0.00484377 0)
(0.092028 0.00474965 0)
(0.0922718 0.00464893 0)
(0.0924958 0.00454203 0)
(0.0927006 0.0044294 0)
(0.0928866 0.00431149 0)
(0.0930542 0.00418881 0)
(0.093204 0.00406183 0)
(0.0933366 0.00393108 0)
(0.0934525 0.00379707 0)
(0.0935523 0.00366032 0)
(0.0936367 0.00352134 0)
(0.0937061 0.00338064 0)
(0.0937614 0.00323873 0)
(0.093803 0.00309609 0)
(0.0938316 0.00295319 0)
(0.0938478 0.00281049 0)
(0.0938522 0.00266843 0)
(0.0938454 0.00252741 0)
(0.093828 0.00238783 0)
(0.0938005 0.00225006 0)
(0.0937636 0.00211442 0)
(0.0937176 0.00198123 0)
(0.0936632 0.00185079 0)
(0.0936008 0.00172334 0)
(0.0935309 0.00159912 0)
(0.093454 0.00147833 0)
(0.0933704 0.00136116 0)
(0.0932807 0.00124777 0)
(0.0931851 0.00113827 0)
(0.0930841 0.00103278 0)
(0.0929781 0.00093138 0)
(0.0928673 0.000834135 0)
(0.0927522 0.000741087 0)
(0.0926329 0.000652258 0)
(0.09251 0.000567653 0)
(0.0923835 0.000487261 0)
(0.0922538 0.000411054 0)
(0.0921211 0.00033899 0)
(0.0919857 0.000271014 0)
(0.0918478 0.000207061 0)
(0.0917077 0.000147048 0)
(0.0915655 9.08953e-05 0)
(0.0914216 3.84937e-05 0)
(0.0912759 -1.02416e-05 0)
(0.0911289 -5.54537e-05 0)
(0.0909805 -9.72085e-05 0)
(0.0908311 -0.00013571 0)
(0.0906806 -0.000170956 0)
(0.0905296 -0.000203275 0)
(0.0903775 -0.000232496 0)
(0.0902256 -0.000259215 0)
(0.0900723 -0.000282868 0)
(0.0899203 -0.000304654 0)
(0.089766 -0.0003231 0)
(0.0896148 -0.000340777 0)
(0.0894593 -0.000354146 0)
(0.0893101 -0.000368875 0)
(0.0891529 -0.000376814 0)
(0.0890072 -0.00039032 0)
(0.0888477 -0.000392035 0)
(0.0887061 -0.000405434 0)
(0.0885429 -0.000404328 0)
(0.0884139 -0.000411673 0)
(0.0882337 -0.000410815 0)
(0.0881354 -0.000414982 0)
(0.0879154 -0.000413228 0)
(0.0432548 -0.00078855 0)
(0.0429785 -0.000582181 0)
(0.0427954 -0.000387699 0)
(0.0426996 -0.000203233 0)
(0.0426838 -2.82372e-05 0)
(0.0427423 0.000139385 0)
(0.0428693 0.00029987 0)
(0.0430596 0.000454747 0)
(0.0433084 0.000604286 0)
(0.0436112 0.000749541 0)
(0.0439641 0.000890794 0)
(0.0443632 0.00102878 0)
(0.0448051 0.00116375 0)
(0.0452867 0.00129623 0)
(0.045805 0.00142643 0)
(0.0463572 0.00155473 0)
(0.0469409 0.00168129 0)
(0.0475537 0.00180639 0)
(0.0481935 0.00193013 0)
(0.0488581 0.0020527 0)
(0.0495457 0.00217417 0)
(0.0502544 0.00229464 0)
(0.0509825 0.00241414 0)
(0.0517285 0.0025327 0)
(0.0524906 0.0026503 0)
(0.0532675 0.00276691 0)
(0.0540576 0.00288244 0)
(0.0548595 0.00299681 0)
(0.0556718 0.00310989 0)
(0.0564932 0.00322153 0)
(0.0573222 0.00333155 0)
(0.0581577 0.00343974 0)
(0.0589982 0.00354586 0)
(0.0598424 0.00364966 0)
(0.0606891 0.00375087 0)
(0.0615368 0.00384917 0)
(0.0623843 0.00394426 0)
(0.0632304 0.00403579 0)
(0.0640736 0.00412342 0)
(0.0649127 0.00420679 0)
(0.0657464 0.00428553 0)
(0.0665735 0.00435928 0)
(0.0673926 0.00442767 0)
(0.0682026 0.00449034 0)
(0.0690022 0.00454694 0)
(0.0697903 0.00459714 0)
(0.0705658 0.00464061 0)
(0.0713274 0.00467707 0)
(0.0720742 0.00470625 0)
(0.0728052 0.00472791 0)
(0.0735194 0.00474185 0)
(0.0742159 0.00474791 0)
(0.074894 0.00474598 0)
(0.0755527 0.00473596 0)
(0.0761915 0.00471784 0)
(0.0768098 0.00469161 0)
(0.0774069 0.00465735 0)
(0.0779825 0.00461516 0)
(0.0785362 0.00456518 0)
(0.0790676 0.00450763 0)
(0.0795765 0.00444273 0)
(0.0800627 0.00437077 0)
(0.0805263 0.00429208 0)
(0.0809671 0.00420699 0)
(0.0813851 0.0041159 0)
(0.0817806 0.00401923 0)
(0.0821537 0.0039174 0)
(0.0825047 0.00381087 0)
(0.0828337 0.00370012 0)
(0.0831412 0.00358562 0)
(0.0834276 0.00346787 0)
(0.0836932 0.00334735 0)
(0.0839384 0.00322455 0)
(0.0841639 0.00309996 0)
(0.0843701 0.00297405 0)
(0.0845575 0.00284729 0)
(0.0847267 0.00272012 0)
(0.0848783 0.00259299 0)
(0.0850127 0.0024663 0)
(0.0851308 0.00234046 0)
(0.0852329 0.00221581 0)
(0.0853197 0.00209273 0)
(0.0853919 0.00197152 0)
(0.0854499 0.00185248 0)
(0.0854945 0.00173589 0)
(0.0855261 0.00162199 0)
(0.0855454 0.001511 0)
(0.085553 0.00140311 0)
(0.0855493 0.0012985 0)
(0.085535 0.0011973 0)
(0.0855106 0.00109965 0)
(0.0854766 0.00100563 0)
(0.0854336 0.000915326 0)
(0.0853821 0.000828796 0)
(0.0853224 0.000746076 0)
(0.0852553 0.000667186 0)
(0.085181 0.000592127 0)
(0.0851 0.000520884 0)
(0.0850129 0.000453432 0)
(0.0849199 0.000389725 0)
(0.0848216 0.000329714 0)
(0.0847183 0.000273324 0)
(0.0846104 0.000220493 0)
(0.0844982 0.000171117 0)
(0.0843823 0.000125131 0)
(0.0842627 8.23955e-05 0)
(0.0841401 4.28609e-05 0)
(0.0840144 6.33719e-06 0)
(0.0838863 -2.71826e-05 0)
(0.0837558 -5.79644e-05 0)
(0.0836234 -8.59358e-05 0)
(0.083489 -0.000111472 0)
(0.0833534 -0.000134384 0)
(0.0832163 -0.000155181 0)
(0.0830782 -0.000173545 0)
(0.0829395 -0.000190089 0)
(0.0827995 -0.000204457 0)
(0.0826604 -0.00021718 0)
(0.0825184 -0.00022815 0)
(0.0823813 -0.000237439 0)
(0.0822353 -0.000245519 0)
(0.0821049 -0.000251972 0)
(0.0819502 -0.000256966 0)
(0.0818328 -0.000262097 0)
(0.0816623 -0.000265357 0)
(0.0815726 -0.000267384 0)
(0.0813657 -0.000270464 0)
(0.024838 -0.000585852 0)
(0.0247366 -0.000465818 0)
(0.0247021 -0.000350637 0)
(0.0247321 -0.000239065 0)
(0.0248205 -0.000131018 0)
(0.0249644 -2.53877e-05 0)
(0.0251593 7.78417e-05 0)
(0.0254027 0.000179493 0)
(0.025691 0.000279613 0)
(0.0260219 0.000378779 0)
(0.0263927 0.000477062 0)
(0.0268011 0.000574862 0)
(0.0272451 0.000672257 0)
(0.0277228 0.000769523 0)
(0.0282322 0.000866731 0)
(0.0287718 0.000964068 0)
(0.0293401 0.00106159 0)
(0.0299354 0.00115942 0)
(0.0305566 0.00125759 0)
(0.0312022 0.00135617 0)
(0.0318711 0.00145516 0)
(0.032562 0.0015546 0)
(0.0332739 0.00165446 0)
(0.0340056 0.00175471 0)
(0.0347561 0.00185531 0)
(0.0355244 0.00195618 0)
(0.0363093 0.00205724 0)
(0.0371099 0.00215837 0)
(0.0379251 0.00225944 0)
(0.0387539 0.00236029 0)
(0.0395952 0.00246074 0)
(0.040448 0.0025606 0)
(0.0413112 0.00265963 0)
(0.0421836 0.00275759 0)
(0.0430642 0.00285421 0)
(0.0439519 0.0029492 0)
(0.0448453 0.00304226 0)
(0.0457434 0.00313306 0)
(0.0466449 0.00322126 0)
(0.0475485 0.00330651 0)
(0.048453 0.00338845 0)
(0.0493571 0.00346671 0)
(0.0502595 0.00354092 0)
(0.0511589 0.00361072 0)
(0.0520539 0.00367574 0)
(0.0529434 0.00373562 0)
(0.0538259 0.00379002 0)
(0.0547001 0.00383862 0)
(0.0555649 0.00388112 0)
(0.0564189 0.00391724 0)
(0.057261 0.00394673 0)
(0.0580899 0.00396937 0)
(0.0589045 0.00398499 0)
(0.0597038 0.00399345 0)
(0.0604866 0.00399465 0)
(0.0612521 0.00398853 0)
(0.0619993 0.00397508 0)
(0.0627273 0.00395433 0)
(0.0634355 0.00392635 0)
(0.064123 0.00389127 0)
(0.0647893 0.00384926 0)
(0.0654338 0.0038005 0)
(0.066056 0.00374524 0)
(0.0666555 0.00368377 0)
(0.0672321 0.0036164 0)
(0.0677855 0.00354346 0)
(0.0683154 0.00346532 0)
(0.0688219 0.00338238 0)
(0.0693048 0.00329504 0)
(0.0697642 0.00320372 0)
(0.0702003 0.00310887 0)
(0.0706131 0.00301091 0)
(0.071003 0.00291031 0)
(0.0713701 0.00280749 0)
(0.0717148 0.00270289 0)
(0.0720375 0.00259696 0)
(0.0723386 0.0024901 0)
(0.0726185 0.00238273 0)
(0.0728777 0.00227525 0)
(0.0731167 0.00216801 0)
(0.0733361 0.00206138 0)
(0.0735364 0.00195571 0)
(0.0737182 0.00185129 0)
(0.0738821 0.00174842 0)
(0.0740287 0.00164736 0)
(0.0741587 0.00154837 0)
(0.0742726 0.00145167 0)
(0.074371 0.00135744 0)
(0.0744547 0.00126587 0)
(0.0745242 0.0011771 0)
(0.0745802 0.00109127 0)
(0.0746233 0.00100848 0)
(0.0746542 0.000928819 0)
(0.0746734 0.000852356 0)
(0.0746815 0.00077914 0)
(0.0746792 0.000709202 0)
(0.074667 0.000642557 0)
(0.0746456 0.000579205 0)
(0.0746154 0.000519134 0)
(0.074577 0.000462312 0)
(0.074531 0.000408706 0)
(0.0744779 0.000358257 0)
(0.0744182 0.000310916 0)
(0.0743523 0.000266599 0)
(0.0742808 0.000225253 0)
(0.074204 0.000186754 0)
(0.0741225 0.000151076 0)
(0.0740367 0.000118028 0)
(0.0739469 8.7652e-05 0)
(0.0738536 5.96379e-05 0)
(0.073757 3.41823e-05 0)
(0.0736577 1.07371e-05 0)
(0.0735557 -1.01738e-05 0)
(0.0734518 -2.95678e-05 0)
(0.0733455 -4.62751e-05 0)
(0.0732385 -6.22016e-05 0)
(0.0731287 -7.49902e-05 0)
(0.07302 -8.80897e-05 0)
(0.0729069 -9.72431e-05 0)
(0.0727986 -0.000108048 0)
(0.0726816 -0.000114234 0)
(0.0725771 -0.000122467 0)
(0.0724529 -0.000127825 0)
(0.0723591 -0.000131737 0)
(0.0722202 -0.000138106 0)
(0.0721487 -0.000138072 0)
(0.0719813 -0.0001456 0)
(0.011332 -0.000509999 0)
(0.0112901 -0.000446286 0)
(0.0112931 -0.0003835 0)
(0.0113391 -0.000321838 0)
(0.0114254 -0.000260723 0)
(0.0115505 -0.000199691 0)
(0.0117121 -0.000138641 0)
(0.011909 -7.71026e-05 0)
(0.0121395 -1.50722e-05 0)
(0.0124023 4.77965e-05 0)
(0.0126962 0.000111498 0)
(0.0130202 0.000176264 0)
(0.0133731 0.000242091 0)
(0.013754 0.000309125 0)
(0.0141621 0.000377366 0)
(0.0145966 0.000446901 0)
(0.0150567 0.000517724 0)
(0.0155417 0.000589884 0)
(0.0160509 0.000663365 0)
(0.0165836 0.000738186 0)
(0.0171393 0.000814318 0)
(0.0177174 0.000891753 0)
(0.0183172 0.000970445 0)
(0.0189381 0.00105036 0)
(0.0195796 0.00113143 0)
(0.020241 0.00121359 0)
(0.0209217 0.00129675 0)
(0.0216212 0.00138082 0)
(0.0223386 0.00146566 0)
(0.0230735 0.00155115 0)
(0.023825 0.00163713 0)
(0.0245923 0.00172342 0)
(0.0253748 0.00180984 0)
(0.0261715 0.00189618 0)
(0.0269817 0.00198219 0)
(0.0278043 0.00206764 0)
(0.0286385 0.00215224 0)
(0.0294832 0.00223572 0)
(0.0303374 0.00231777 0)
(0.0311999 0.00239808 0)
(0.0320697 0.00247632 0)
(0.0329455 0.00255215 0)
(0.0338262 0.00262523 0)
(0.0347104 0.00269521 0)
(0.0355969 0.00276174 0)
(0.0364845 0.00282448 0)
(0.0373716 0.00288309 0)
(0.0382571 0.00293725 0)
(0.0391395 0.00298665 0)
(0.0400176 0.003031 0)
(0.0408898 0.00307003 0)
(0.041755 0.0031035 0)
(0.0426118 0.00313119 0)
(0.0434589 0.00315293 0)
(0.0442951 0.00316857 0)
(0.045119 0.003178 0)
(0.0459297 0.00318115 0)
(0.0467258 0.003178 0)
(0.0475063 0.00316854 0)
(0.0482703 0.00315283 0)
(0.0490168 0.00313097 0)
(0.0497449 0.00310307 0)
(0.0504538 0.0030693 0)
(0.0511428 0.00302986 0)
(0.0518112 0.00298499 0)
(0.0524585 0.00293495 0)
(0.0530841 0.00288003 0)
(0.0536877 0.00282053 0)
(0.0542689 0.0027568 0)
(0.0548274 0.00268918 0)
(0.0553631 0.00261804 0)
(0.0558759 0.00254375 0)
(0.0563657 0.00246669 0)
(0.0568325 0.00238725 0)
(0.0572765 0.00230579 0)
(0.0576978 0.0022227 0)
(0.0580966 0.00213835 0)
(0.0584732 0.00205311 0)
(0.058828 0.00196731 0)
(0.0591612 0.00188131 0)
(0.0594733 0.00179541 0)
(0.0597648 0.00170994 0)
(0.0600362 0.00162516 0)
(0.0602879 0.00154135 0)
(0.0605206 0.00145876 0)
(0.0607347 0.00137762 0)
(0.0609309 0.00129813 0)
(0.0611099 0.00122047 0)
(0.0612721 0.00114483 0)
(0.0614183 0.00107133 0)
(0.0615491 0.00100012 0)
(0.0616651 0.000931289 0)
(0.0617671 0.000864937 0)
(0.0618555 0.000801135 0)
(0.0619312 0.000739935 0)
(0.0619946 0.00068138 0)
(0.0620465 0.000625492 0)
(0.0620875 0.000572283 0)
(0.0621182 0.000521751 0)
(0.0621392 0.00047388 0)
(0.0621511 0.000428648 0)
(0.0621545 0.000386016 0)
(0.0621499 0.000345946 0)
(0.0621378 0.000308376 0)
(0.0621189 0.000273263 0)
(0.0620935 0.000240516 0)
(0.0620623 0.000210099 0)
(0.0620256 0.000181887 0)
(0.061984 0.000155865 0)
(0.0619378 0.000131865 0)
(0.0618875 0.000109904 0)
(0.0618336 8.97724e-05 0)
(0.0617762 7.15111e-05 0)
(0.061716 5.49003e-05 0)
(0.0616528 3.99396e-05 0)
(0.0615879 2.65305e-05 0)
(0.0615199 1.44113e-05 0)
(0.061452 3.9513e-06 0)
(0.0613795 -5.88461e-06 0)
(0.0613108 -1.35388e-05 0)
(0.0612334 -2.18035e-05 0)
(0.0611668 -2.66321e-05 0)
(0.0610826 -3.43665e-05 0)
(0.0610222 -3.59821e-05 0)
(0.0609279 -4.51487e-05 0)
(0.0608804 -4.30133e-05 0)
(0.0607691 -5.37943e-05 0)
(0.00218557 -0.000454495 0)
(0.00212782 -0.000427554 0)
(0.0020974 -0.000400124 0)
(0.00209434 -0.000371841 0)
(0.0021169 -0.00034273 0)
(0.00216509 -0.000312418 0)
(0.00223779 -0.000280984 0)
(0.00233489 -0.000248144 0)
(0.00245568 -0.000213964 0)
(0.00260004 -0.000178252 0)
(0.0027675 -0.000141052 0)
(0.00295793 -0.000102241 0)
(0.00317102 -6.1847e-05 0)
(0.00340666 -1.97935e-05 0)
(0.00366462 2.38994e-05 0)
(0.0039448 6.92772e-05 0)
(0.00424705 0.000116323 0)
(0.00457124 0.00016506 0)
(0.00491726 0.000215471 0)
(0.00528498 0.000267562 0)
(0.00567429 0.00032131 0)
(0.00608506 0.000376706 0)
(0.00651715 0.000433717 0)
(0.0069704 0.000492318 0)
(0.00744465 0.000552464 0)
(0.0079397 0.000614107 0)
(0.00845532 0.000677185 0)
(0.00899128 0.000741628 0)
(0.00954727 0.000807349 0)
(0.010123 0.00087425 0)
(0.010718 0.000942216 0)
(0.0113321 0.00101112 0)
(0.0119645 0.00108081 0)
(0.012615 0.00115113 0)
(0.0132829 0.0012219 0)
(0.0139675 0.00129291 0)
(0.0146683 0.00136396 0)
(0.0153844 0.00143481 0)
(0.0161151 0.0015052 0)
(0.0168595 0.00157489 0)
(0.0176166 0.00164358 0)
(0.0183856 0.001711 0)
(0.0191653 0.00177684 0)
(0.0199547 0.0018408 0)
(0.0207527 0.00190257 0)
(0.0215579 0.00196185 0)
(0.0223693 0.00201832 0)
(0.0231855 0.00207168 0)
(0.0240052 0.00212164 0)
(0.0248271 0.00216792 0)
(0.0256499 0.00221026 0)
(0.0264721 0.0022484 0)
(0.0272925 0.00228214 0)
(0.0281096 0.00231126 0)
(0.028922 0.00233561 0)
(0.0297285 0.00235503 0)
(0.0305277 0.00236942 0)
(0.0313183 0.00237872 0)
(0.0320991 0.00238286 0)
(0.0328688 0.00238186 0)
(0.0336263 0.00237573 0)
(0.0343705 0.00236454 0)
(0.0351003 0.00234839 0)
(0.0358148 0.00232739 0)
(0.0365131 0.00230172 0)
(0.0371943 0.00227154 0)
(0.0378576 0.00223707 0)
(0.0385024 0.00219855 0)
(0.0391281 0.00215623 0)
(0.0397341 0.00211037 0)
(0.04032 0.00206127 0)
(0.0408855 0.00200921 0)
(0.0414301 0.0019545 0)
(0.0419538 0.00189745 0)
(0.0424564 0.00183838 0)
(0.0429378 0.00177758 0)
(0.0433981 0.00171537 0)
(0.0438372 0.00165205 0)
(0.0442553 0.00158792 0)
(0.0446526 0.00152325 0)
(0.0450294 0.00145832 0)
(0.045386 0.0013934 0)
(0.0457226 0.00132872 0)
(0.0460397 0.00126453 0)
(0.0463377 0.00120103 0)
(0.046617 0.00113844 0)
(0.0468782 0.00107692 0)
(0.0471218 0.00101665 0)
(0.0473483 0.000957776 0)
(0.0475582 0.000900435 0)
(0.0477522 0.000844742 0)
(0.0479308 0.000790799 0)
(0.0480946 0.00073869 0)
(0.0482443 0.000688486 0)
(0.0483804 0.000640245 0)
(0.0485036 0.00059401 0)
(0.0486144 0.00054981 0)
(0.0487135 0.000507665 0)
(0.0488015 0.000467582 0)
(0.0488789 0.000429558 0)
(0.0489464 0.000393581 0)
(0.0490045 0.000359628 0)
(0.0490538 0.000327676 0)
(0.0490948 0.000297676 0)
(0.049128 0.000269607 0)
(0.0491541 0.000243389 0)
(0.0491734 0.000219016 0)
(0.0491865 0.00019636 0)
(0.0491939 0.000175462 0)
(0.0491959 0.000156115 0)
(0.049193 0.000138448 0)
(0.0491858 0.000122123 0)
(0.0491743 0.000107431 0)
(0.0491594 9.38247e-05 0)
(0.0491407 8.18342e-05 0)
(0.0491198 7.06462e-05 0)
(0.049095 6.10346e-05 0)
(0.0490695 5.20374e-05 0)
(0.0490395 4.43146e-05 0)
(0.049011 3.75309e-05 0)
(0.0489762 3.07641e-05 0)
(0.0489467 2.67743e-05 0)
(0.0489067 1.92689e-05 0)
(0.0488785 1.91588e-05 0)
(0.0488327 9.16165e-06 0)
(0.0488079 1.27212e-05 0)
(0.0487555 6.94738e-07 0)
(-0.00336536 -0.000364576 0)
(-0.00346579 -0.000357726 0)
(-0.00355179 -0.000349808 0)
(-0.00362294 -0.000341115 0)
(-0.00367964 -0.000331334 0)
(-0.00372145 -0.000320421 0)
(-0.00374853 -0.000308305 0)
(-0.00376048 -0.000294859 0)
(-0.00375727 -0.000280087 0)
(-0.00373851 -0.000263875 0)
(-0.00370405 -0.00024624 0)
(-0.00365354 -0.000227103 0)
(-0.00358674 -0.000206478 0)
(-0.00350331 -0.000184314 0)
(-0.00340298 -0.000160622 0)
(-0.00328543 -0.000135371 0)
(-0.00315035 -0.00010857 0)
(-0.00299745 -8.01991e-05 0)
(-0.00282644 -5.02671e-05 0)
(-0.00263702 -1.87638e-05 0)
(-0.00242892 1.43012e-05 0)
(-0.00220189 4.89297e-05 0)
(-0.00195568 8.51083e-05 0)
(-0.00169007 0.00012283 0)
(-0.00140485 0.000162073 0)
(-0.00109985 0.000202819 0)
(-0.000774924 0.000245036 0)
(-0.000429953 0.000288689 0)
(-6.48605e-05 0.00033373 0)
(0.000320392 0.000380104 0)
(0.0007258 0.000427744 0)
(0.00115131 0.000476572 0)
(0.00159682 0.000526494 0)
(0.00206218 0.000577405 0)
(0.00254716 0.000629184 0)
(0.0030515 0.000681695 0)
(0.00357484 0.000734788 0)
(0.00411679 0.000788298 0)
(0.00467686 0.000842042 0)
(0.00525451 0.000895825 0)
(0.00584913 0.00094944 0)
(0.00646002 0.00100266 0)
(0.00708642 0.00105527 0)
(0.0077275 0.001107 0)
(0.00838236 0.00115763 0)
(0.00905003 0.00120689 0)
(0.00972949 0.00125454 0)
(0.0104196 0.00130031 0)
(0.0111194 0.00134396 0)
(0.0118274 0.00138525 0)
(0.0125426 0.00142393 0)
(0.0132636 0.00145979 0)
(0.0139892 0.00149261 0)
(0.0147179 0.00152222 0)
(0.0154485 0.00154843 0)
(0.0161797 0.0015711 0)
(0.0169099 0.00159012 0)
(0.017638 0.00160537 0)
(0.0183625 0.00161679 0)
(0.0190821 0.00162433 0)
(0.0197957 0.00162798 0)
(0.0205018 0.00162775 0)
(0.0211993 0.00162368 0)
(0.0218872 0.00161583 0)
(0.0225641 0.00160429 0)
(0.0232292 0.00158918 0)
(0.0238815 0.00157064 0)
(0.02452 0.00154882 0)
(0.0251439 0.0015239 0)
(0.0257524 0.00149606 0)
(0.026345 0.00146552 0)
(0.0269208 0.00143249 0)
(0.0274796 0.00139719 0)
(0.0280207 0.00135986 0)
(0.0285438 0.00132073 0)
(0.0290486 0.00128003 0)
(0.0295349 0.00123801 0)
(0.0300025 0.00119489 0)
(0.0304514 0.0011509 0)
(0.0308814 0.00110627 0)
(0.0312928 0.00106121 0)
(0.0316854 0.00101593 0)
(0.0320596 0.000970625 0)
(0.0324154 0.00092548 0)
(0.0327533 0.000880669 0)
(0.0330733 0.000836355 0)
(0.033376 0.000792686 0)
(0.0336617 0.0007498 0)
(0.0339308 0.000707818 0)
(0.0341837 0.000666853 0)
(0.0344208 0.000627001 0)
(0.0346428 0.000588348 0)
(0.03485 0.000550967 0)
(0.035043 0.00051492 0)
(0.0352224 0.000480255 0)
(0.0353886 0.000447013 0)
(0.0355422 0.000415223 0)
(0.0356838 0.000384904 0)
(0.035814 0.000356067 0)
(0.0359332 0.000328713 0)
(0.036042 0.000302838 0)
(0.036141 0.000278428 0)
(0.0362307 0.000255467 0)
(0.0363116 0.000233925 0)
(0.0363843 0.000213781 0)
(0.0364493 0.000194988 0)
(0.036507 0.000177525 0)
(0.036558 0.000161327 0)
(0.0366027 0.000146378 0)
(0.0366415 0.000132597 0)
(0.036675 0.000119968 0)
(0.0367035 0.000108415 0)
(0.0367273 9.78852e-05 0)
(0.0367472 8.83786e-05 0)
(0.0367629 7.96847e-05 0)
(0.0367756 7.20793e-05 0)
(0.0367845 6.4885e-05 0)
(0.0367915 5.91229e-05 0)
(0.0367947 5.29517e-05 0)
(0.0367974 4.91383e-05 0)
(0.0367957 4.32609e-05 0)
(0.0367951 4.17647e-05 0)
(0.0367898 3.50371e-05 0)
(0.036786 3.64927e-05 0)
(0.0367789 2.74621e-05 0)
(0.0367708 3.16889e-05 0)
(0.0367648 2.10611e-05 0)
(-0.00583829 -0.000239182 0)
(-0.00596686 -0.000241681 0)
(-0.0060906 -0.00024348 0)
(-0.00620862 -0.000244452 0)
(-0.00632108 -0.000244647 0)
(-0.00642716 -0.000243918 0)
(-0.00652676 -0.000242334 0)
(-0.00661916 -0.000239778 0)
(-0.00670406 -0.000236301 0)
(-0.0067808 -0.000231823 0)
(-0.00684898 -0.000226374 0)
(-0.00690798 -0.000219899 0)
(-0.00695733 -0.000212413 0)
(-0.00699643 -0.000203879 0)
(-0.00702477 -0.000194301 0)
(-0.00704179 -0.000183652 0)
(-0.00704695 -0.00017193 0)
(-0.00703971 -0.000159111 0)
(-0.00701953 -0.000145191 0)
(-0.00698586 -0.00013015 0)
(-0.0069382 -0.000113979 0)
(-0.00687601 -9.66636e-05 0)
(-0.0067988 -7.8195e-05 0)
(-0.00670605 -5.85611e-05 0)
(-0.0065973 -3.77571e-05 0)
(-0.00647207 -1.57765e-05 0)
(-0.00632991 7.37948e-06 0)
(-0.0061704 3.17085e-05 0)
(-0.00599315 5.71998e-05 0)
(-0.00579778 8.38387e-05 0)
(-0.00558396 0.000111601 0)
(-0.00535139 0.000140456 0)
(-0.00509982 0.000170362 0)
(-0.00482904 0.00020127 0)
(-0.00453889 0.000233116 0)
(-0.00422927 0.000265828 0)
(-0.00390015 0.00029932 0)
(-0.00355154 0.000333496 0)
(-0.00318354 0.000368244 0)
(-0.00279631 0.000403444 0)
(-0.0023901 0.00043896 0)
(-0.00196521 0.000474647 0)
(-0.00152205 0.00051035 0)
(-0.0010611 0.000545902 0)
(-0.000582917 0.00058113 0)
(-8.81381e-05 0.000615854 0)
(0.000422511 0.00064989 0)
(0.000948231 0.00068305 0)
(0.00148814 0.000715145 0)
(0.0020413 0.00074599 0)
(0.00260668 0.000775401 0)
(0.00318321 0.000803203 0)
(0.00376975 0.000829228 0)
(0.00436511 0.000853317 0)
(0.00496806 0.000875326 0)
(0.00557733 0.000895124 0)
(0.00619161 0.000912597 0)
(0.00680961 0.000927648 0)
(0.00742998 0.000940199 0)
(0.00805139 0.000950192 0)
(0.00867252 0.000957587 0)
(0.00929205 0.000962366 0)
(0.0099087 0.000964531 0)
(0.0105212 0.000964104 0)
(0.0111283 0.000961126 0)
(0.0117289 0.000955658 0)
(0.0123217 0.000947775 0)
(0.0129058 0.000937572 0)
(0.0134801 0.000925156 0)
(0.0140436 0.000910648 0)
(0.0145955 0.000894179 0)
(0.0151349 0.000875892 0)
(0.0156611 0.000855937 0)
(0.0161735 0.000834468 0)
(0.0166714 0.000811645 0)
(0.0171544 0.000787631 0)
(0.0176219 0.000762588 0)
(0.0180737 0.000736679 0)
(0.0185094 0.000710063 0)
(0.0189288 0.000682898 0)
(0.0193318 0.000655335 0)
(0.0197182 0.00062752 0)
(0.0200881 0.000599593 0)
(0.0204415 0.000571686 0)
(0.0207785 0.000543923 0)
(0.0210993 0.000516419 0)
(0.0214041 0.000489282 0)
(0.021693 0.000462607 0)
(0.0219664 0.000436485 0)
(0.0222247 0.000410993 0)
(0.0224682 0.000386201 0)
(0.0226972 0.000362169 0)
(0.0229123 0.000338951 0)
(0.0231139 0.000316588 0)
(0.0233023 0.000295115 0)
(0.0234782 0.000274561 0)
(0.0236421 0.000254945 0)
(0.0237943 0.00023628 0)
(0.0239355 0.000218573 0)
(0.0240661 0.000201824 0)
(0.0241867 0.00018603 0)
(0.0242978 0.000171177 0)
(0.0244 0.000157259 0)
(0.0244936 0.000144246 0)
(0.0245793 0.000132133 0)
(0.0246575 0.000120872 0)
(0.0247287 0.000110469 0)
(0.0247935 0.000100848 0)
(0.0248521 9.20403e-05 0)
(0.0249051 8.39298e-05 0)
(0.024953 7.65898e-05 0)
(0.0249961 6.9849e-05 0)
(0.0250347 6.38368e-05 0)
(0.0250695 5.83264e-05 0)
(0.0251004 5.34797e-05 0)
(0.0251283 4.9086e-05 0)
(0.0251529 4.51864e-05 0)
(0.0251752 4.18755e-05 0)
(0.0251947 3.85693e-05 0)
(0.0252123 3.6488e-05 0)
(0.0252281 3.31498e-05 0)
(0.0252413 3.27412e-05 0)
(0.0252553 2.83861e-05 0)
(0.0252633 3.02508e-05 0)
(0.0252783 2.39347e-05 0)
(0.0252784 2.76874e-05 0)
(0.0252985 2.02574e-05 0)
(-0.0055187 -0.000101703 0)
(-0.00563562 -0.000104833 0)
(-0.00575343 -0.000107583 0)
(-0.00587134 -0.000110139 0)
(-0.00598934 -0.000112361 0)
(-0.00610672 -0.000114297 0)
(-0.00622331 -0.000115897 0)
(-0.00633848 -0.000117151 0)
(-0.00645191 -0.000118044 0)
(-0.00656304 -0.000118551 0)
(-0.00667146 -0.000118668 0)
(-0.00677663 -0.000118371 0)
(-0.0068781 -0.000117657 0)
(-0.00697532 -0.000116505 0)
(-0.0070678 -0.000114911 0)
(-0.00715502 -0.000112858 0)
(-0.00723645 -0.000110341 0)
(-0.00731156 -0.000107342 0)
(-0.00737981 -0.000103854 0)
(-0.00744066 -9.98615e-05 0)
(-0.00749356 -9.53541e-05 0)
(-0.00753796 -9.0316e-05 0)
(-0.0075733 -8.47355e-05 0)
(-0.00759903 -7.85968e-05 0)
(-0.00761457 -7.18874e-05 0)
(-0.00761938 -6.45924e-05 0)
(-0.00761288 -5.67e-05 0)
(-0.00759453 -4.81976e-05 0)
(-0.00756376 -3.9076e-05 0)
(-0.00752004 -2.93267e-05 0)
(-0.00746284 -1.89456e-05 0)
(-0.00739165 -7.9309e-06 0)
(-0.00730597 3.71422e-06 0)
(-0.00720533 1.59824e-05 0)
(-0.00708931 2.88601e-05 0)
(-0.0069575 4.23285e-05 0)
(-0.00680955 5.63615e-05 0)
(-0.00664514 7.09265e-05 0)
(-0.00646402 8.59832e-05 0)
(-0.00626599 0.000101484 0)
(-0.0060509 0.000117372 0)
(-0.0058187 0.000133586 0)
(-0.00556939 0.000150053 0)
(-0.00530305 0.000166697 0)
(-0.00501985 0.000183433 0)
(-0.00472003 0.00020017 0)
(-0.00440394 0.000216814 0)
(-0.00407199 0.000233266 0)
(-0.00372468 0.000249423 0)
(-0.00336263 0.000265183 0)
(-0.00298649 0.000280443 0)
(-0.00259703 0.0002951 0)
(-0.0021951 0.000309056 0)
(-0.00178158 0.000322215 0)
(-0.00135748 0.000334487 0)
(-0.000923807 0.000345791 0)
(-0.000481666 0.00035605 0)
(-3.21879e-05 0.000365199 0)
(0.000423457 0.000373181 0)
(0.00088407 0.000379952 0)
(0.00134843 0.000385475 0)
(0.00181532 0.000389728 0)
(0.00228349 0.000392699 0)
(0.00275174 0.000394388 0)
(0.00321886 0.000394806 0)
(0.00368367 0.000393975 0)
(0.00414503 0.000391926 0)
(0.00460183 0.000388702 0)
(0.00505301 0.000384354 0)
(0.00549758 0.000378939 0)
(0.00593458 0.000372524 0)
(0.00636315 0.00036518 0)
(0.00678245 0.000356982 0)
(0.00719176 0.000348011 0)
(0.0075904 0.000338349 0)
(0.00797778 0.000328081 0)
(0.00835337 0.000317291 0)
(0.00871673 0.000306063 0)
(0.00906748 0.000294481 0)
(0.00940533 0.000282626 0)
(0.00973005 0.000270577 0)
(0.0100415 0.000258409 0)
(0.0103395 0.000246193 0)
(0.0106242 0.000233996 0)
(0.0108954 0.000221882 0)
(0.0111534 0.000209906 0)
(0.0113983 0.000198123 0)
(0.0116301 0.000186578 0)
(0.0118493 0.000175314 0)
(0.012056 0.000164369 0)
(0.0122506 0.000153773 0)
(0.0124334 0.000143553 0)
(0.0126047 0.000133732 0)
(0.012765 0.000124327 0)
(0.0129147 0.000115352 0)
(0.0130541 0.000106815 0)
(0.0131838 9.87225e-05 0)
(0.0133042 9.10766e-05 0)
(0.0134158 8.38761e-05 0)
(0.0135189 7.71176e-05 0)
(0.0136141 7.07946e-05 0)
(0.0137019 6.48988e-05 0)
(0.0137825 5.94201e-05 0)
(0.0138566 5.43461e-05 0)
(0.0139245 4.96641e-05 0)
(0.0139867 4.53587e-05 0)