/*--------------------------------*- C++ -*----------------------------------*\
| =========                 |                                                 |
| \\      /  F ield         | OpenFOAM: The Open Source CFD Toolbox           |
|  \\    /   O peration     | Version:  4.1                                   |
|   \\  /    A nd           | Web:      www.OpenFOAM.org                      |
|    \\/     M anipulation  |                                                 |
\*---------------------------------------------------------------------------*/
FoamFile
{
    version     2.0;
    format      ascii;
    class       volVectorField;
    location    "1920";
    object      U;
}
// * * * * * * * * * * * * * * * * * * * * * * * * * * * * * * * * * * * * * //

dimensions      [0 1 -1 0 0 0 0];

internalField   nonuniform List<vector> 
1275
(
(0.0894787 -0.00107392 0)
(0.0894031 -0.00108109 0)
(0.0892998 -0.00107025 0)
(0.0892387 -0.0010804 0)
(0.0891166 -0.00106627 0)
(0.0785065 0.000987127 0)
(0.0786356 0.00123623 0)
(0.0788214 0.00146897 0)
(0.0790568 0.00169244 0)
(0.0793389 0.00190433 0)
(0.0796622 0.00210786 0)
(0.0800236 0.00230261 0)
(0.0804189 0.00249045 0)
(0.080845 0.00267154 0)
(0.0812985 0.00284709 0)
(0.0817767 0.00301744 0)
(0.0822766 0.00318346 0)
(0.0827959 0.00334548 0)
(0.0833321 0.00350412 0)
(0.0838832 0.00365969 0)
(0.0844469 0.00381262 0)
(0.0850215 0.00396314 0)
(0.085605 0.00411152 0)
(0.0861957 0.0042579 0)
(0.0867921 0.00440245 0)
(0.0873924 0.00454518 0)
(0.0879952 0.00468615 0)
(0.0885991 0.00482528 0)
(0.0892024 0.0049625 0)
(0.0898039 0.00509765 0)
(0.0904022 0.00523054 0)
(0.0909958 0.00536093 0)
(0.0915834 0.00548852 0)
(0.0921637 0.00561299 0)
(0.0927354 0.00573396 0)
(0.0932971 0.00585102 0)
(0.0938476 0.00596372 0)
(0.0943855 0.00607159 0)
(0.0949098 0.00617412 0)
(0.0954191 0.0062708 0)
(0.0959123 0.00636108 0)
(0.0963883 0.00644444 0)
(0.096846 0.00652031 0)
(0.0972845 0.00658816 0)
(0.0977027 0.00664747 0)
(0.0980999 0.00669773 0)
(0.0984752 0.00673846 0)
(0.098828 0.0067692 0)
(0.0991577 0.00678957 0)
(0.0994637 0.00679919 0)
(0.0997459 0.00679778 0)
(0.100004 0.00678508 0)
(0.100237 0.00676093 0)
(0.100446 0.0067252 0)
(0.100631 0.00667786 0)
(0.100792 0.00661895 0)
(0.100929 0.00654858 0)
(0.101042 0.00646693 0)
(0.101133 0.00637426 0)
(0.101201 0.00627088 0)
(0.101248 0.00615721 0)
(0.101274 0.00603368 0)
(0.10128 0.00590082 0)
(0.101267 0.0057592 0)
(0.101236 0.00560941 0)
(0.101189 0.00545213 0)
(0.101125 0.00528802 0)
(0.101046 0.0051178 0)
(0.100954 0.00494219 0)
(0.10085 0.00476193 0)
(0.100733 0.00457776 0)
(0.100606 0.00439041 0)
(0.10047 0.00420062 0)
(0.100326 0.00400909 0)
(0.100174 0.00381653 0)
(0.100015 0.0036236 0)
(0.0998512 0.00343094 0)
(0.0996825 0.00323917 0)
(0.0995098 0.00304885 0)
(0.0993339 0.00286053 0)
(0.0991556 0.00267471 0)
(0.0989753 0.00249185 0)
(0.0987937 0.00231237 0)
(0.0986113 0.00213666 0)
(0.0984286 0.00196505 0)
(0.0982459 0.00179786 0)
(0.0980636 0.00163535 0)
(0.0978821 0.00147774 0)
(0.0977015 0.00132523 0)
(0.0975221 0.00117799 0)
(0.0973441 0.00103613 0)
(0.0971676 0.000899766 0)
(0.0969928 0.000768953 0)
(0.0968196 0.000643737 0)
(0.0966483 0.000524135 0)
(0.0964787 0.000410143 0)
(0.096311 0.000301732 0)
(0.096145 0.000198856 0)
(0.0959809 0.000101451 0)
(0.0958185 9.43677e-06 0)
(0.0956578 -7.72827e-05 0)
(0.0954988 -0.000158812 0)
(0.0953414 -0.000235277 0)
(0.0951855 -0.000306797 0)
(0.0950311 -0.000373525 0)
(0.0948781 -0.000435588 0)
(0.0947265 -0.000493169 0)
(0.0945761 -0.000546382 0)
(0.0944269 -0.000595459 0)
(0.0942789 -0.000640464 0)
(0.0941319 -0.000681723 0)
(0.093986 -0.000719184 0)
(0.0938409 -0.000753345 0)
(0.0936971 -0.000783921 0)
(0.0935536 -0.000811745 0)
(0.0934119 -0.000836065 0)
(0.0932693 -0.000858361 0)
(0.0931301 -0.00087699 0)
(0.0929876 -0.000894638 0)
(0.0928521 -0.000908036 0)
(0.0927073 -0.000922012 0)
(0.0925789 -0.000930494 0)
(0.0924265 -0.000941874 0)
(0.0923135 -0.000945634 0)
(0.0921401 -0.000955446 0)
(0.0920631 -0.000954843 0)
(0.0918378 -0.000963247 0)
(0.0917482 -0.000958906 0)
(0.0916381 -0.000967702 0)
(0.0914757 -0.000958339 0)
(0.0913867 -0.000966987 0)
(0.0911923 -0.000956161 0)
(0.0568192 0.000817149 0)
(0.0571027 0.00100232 0)
(0.057441 0.0011784 0)
(0.0578316 0.00134919 0)
(0.0582694 0.00151348 0)
(0.0587503 0.00167348 0)
(0.0592708 0.0018288 0)
(0.0598273 0.00198082 0)
(0.0604167 0.0021295 0)
(0.061036 0.00227576 0)
(0.0616828 0.0024197 0)
(0.0623546 0.00256195 0)
(0.0630492 0.00270267 0)
(0.0637645 0.0028423 0)
(0.0644986 0.00298098 0)
(0.0652498 0.00311901 0)
(0.0660165 0.0032565 0)
(0.066797 0.00339362 0)
(0.0675899 0.00353043 0)
(0.0683938 0.00366702 0)
(0.0692072 0.00380336 0)
(0.0700289 0.00393944 0)
(0.0708575 0.00407517 0)
(0.0716918 0.00421044 0)
(0.0725304 0.00434507 0)
(0.073372 0.00447887 0)
(0.0742154 0.00461157 0)
(0.0750592 0.00474288 0)
(0.0759022 0.00487247 0)
(0.0767429 0.00499996 0)
(0.0775801 0.00512494 0)
(0.0784123 0.00524694 0)
(0.0792382 0.00536548 0)
(0.0800565 0.00548006 0)
(0.0808656 0.00559012 0)
(0.0816643 0.0056951 0)
(0.0824511 0.00579443 0)
(0.0832246 0.00588753 0)
(0.0839836 0.00597379 0)
(0.0847267 0.00605265 0)
(0.0854527 0.00612351 0)
(0.0861603 0.00618584 0)
(0.0868483 0.0062391 0)
(0.0875156 0.0062828 0)
(0.0881613 0.00631648 0)
(0.0887844 0.00633975 0)
(0.0893841 0.00635224 0)
(0.0899595 0.00635367 0)
(0.0905101 0.00634382 0)
(0.0910353 0.00632254 0)
(0.0915347 0.00628973 0)
(0.0920079 0.00624539 0)
(0.0924548 0.0061896 0)
(0.0928753 0.0061225 0)
(0.0932694 0.00604431 0)
(0.0936373 0.00595533 0)
(0.0939791 0.00585591 0)
(0.0942952 0.00574649 0)
(0.0945861 0.00562756 0)
(0.0948521 0.00549966 0)
(0.095094 0.00536339 0)
(0.0953124 0.00521938 0)
(0.0955079 0.0050683 0)
(0.0956814 0.00491085 0)
(0.0958336 0.00474774 0)
(0.0959654 0.00457971 0)
(0.0960777 0.0044075 0)
(0.0961713 0.00423183 0)
(0.0962472 0.00405344 0)
(0.0963062 0.00387305 0)
(0.0963491 0.00369134 0)
(0.096377 0.00350899 0)
(0.0963906 0.00332666 0)
(0.0963908 0.00314494 0)
(0.0963784 0.00296444 0)
(0.0963542 0.00278568 0)
(0.096319 0.00260919 0)
(0.0962734 0.00243542 0)
(0.0962182 0.00226481 0)
(0.096154 0.00209775 0)
(0.0960814 0.00193459 0)
(0.0960011 0.00177563 0)
(0.0959136 0.00162116 0)
(0.0958193 0.00147139 0)
(0.0957188 0.00132654 0)
(0.0956126 0.00118675 0)
(0.095501 0.00105218 0)
(0.0953845 0.000922905 0)
(0.0952634 0.000799007 0)
(0.095138 0.000680527 0)
(0.0950088 0.000567483 0)
(0.0948759 0.000459868 0)
(0.0947396 0.000357655 0)
(0.0946003 0.000260796 0)
(0.0944581 0.000169226 0)
(0.0943133 8.28617e-05 0)
(0.0941661 1.60745e-06 0)
(0.0940167 -7.46475e-05 0)
(0.0938653 -0.000146023 0)
(0.093712 -0.000212656 0)
(0.093557 -0.000274679 0)
(0.0934006 -0.000332253 0)
(0.0932427 -0.000385515 0)
(0.0930837 -0.000434656 0)
(0.0929235 -0.000479793 0)
(0.0927625 -0.00052117 0)
(0.0926005 -0.000558845 0)
(0.092438 -0.000593165 0)
(0.0922747 -0.000624046 0)
(0.0921112 -0.000652049 0)
(0.0919468 -0.00067678 0)
(0.0917829 -0.000699254 0)
(0.0916177 -0.000718416 0)
(0.0914541 -0.000736235 0)
(0.091288 -0.000750262 0)
(0.0911254 -0.000764484 0)
(0.0909581 -0.000773507 0)
(0.0907978 -0.000785569 0)
(0.0906286 -0.000789146 0)
(0.0904718 -0.00080111 0)
(0.0903001 -0.00079825 0)
(0.0901472 -0.000811585 0)
(0.0899716 -0.000805435 0)
(0.0898316 -0.000814488 0)
(0.0896373 -0.00080798 0)
(0.0895302 -0.00081511 0)
(0.0892919 -0.000808372 0)
(0.0366325 0.000486597 0)
(0.0370112 0.000615217 0)
(0.0374365 0.000740727 0)
(0.0379056 0.000864658 0)
(0.038415 0.000986278 0)
(0.038962 0.001107 0)
(0.0395439 0.0012263 0)
(0.0401585 0.00134514 0)
(0.0408035 0.00146328 0)
(0.0414771 0.00158134 0)
(0.0421775 0.00169925 0)
(0.042903 0.00181742 0)
(0.0436521 0.00193586 0)
(0.0444236 0.00205486 0)
(0.0452161 0.00217445 0)
(0.0460284 0.00229481 0)
(0.0468594 0.00241598 0)
(0.0477081 0.00253807 0)
(0.0485733 0.00266107 0)
(0.0494541 0.00278503 0)
(0.0503496 0.0029099 0)
(0.0512587 0.00303565 0)
(0.0521805 0.00316219 0)
(0.053114 0.0032894 0)
(0.0540582 0.00341713 0)
(0.055012 0.00354519 0)
(0.0559744 0.00367336 0)
(0.0569443 0.00380136 0)
(0.0579206 0.0039289 0)
(0.058902 0.00405562 0)
(0.0598874 0.00418115 0)
(0.0608754 0.00430507 0)
(0.0618648 0.00442691 0)
(0.0628541 0.00454621 0)
(0.0638421 0.00466242 0)
(0.0648271 0.00477502 0)
(0.0658078 0.00488343 0)
(0.0667827 0.00498708 0)
(0.0677502 0.00508537 0)
(0.0687089 0.00517769 0)
(0.0696571 0.00526347 0)
(0.0705934 0.0053421 0)
(0.0715162 0.00541301 0)
(0.0724242 0.00547566 0)
(0.0733158 0.00552954 0)
(0.0741897 0.00557416 0)
(0.0750445 0.0056091 0)
(0.0758791 0.00563397 0)
(0.0766921 0.00564846 0)
(0.0774825 0.00565231 0)
(0.0782493 0.00564533 0)
(0.0789916 0.0056274 0)
(0.0797086 0.00559849 0)
(0.0803996 0.00555862 0)
(0.0810639 0.0055079 0)
(0.0817011 0.00544652 0)
(0.0823108 0.00537472 0)
(0.0828928 0.00529285 0)
(0.0834469 0.00520127 0)
(0.083973 0.00510045 0)
(0.0844713 0.0049909 0)
(0.0849417 0.00487315 0)
(0.0853847 0.00474782 0)
(0.0858004 0.00461554 0)
(0.0861893 0.00447696 0)
(0.0865518 0.00433276 0)
(0.0868885 0.00418364 0)
(0.0871999 0.00403031 0)
(0.0874867 0.00387346 0)
(0.0877495 0.0037138 0)
(0.087989 0.003552 0)
(0.088206 0.00338874 0)
(0.0884013 0.00322466 0)
(0.0885755 0.00306038 0)
(0.0887294 0.0028965 0)
(0.0888639 0.00273357 0)
(0.0889796 0.00257211 0)
(0.0890775 0.00241263 0)
(0.0891582 0.00225556 0)
(0.0892225 0.00210132 0)
(0.0892712 0.00195029 0)
(0.0893049 0.0018028 0)
(0.0893245 0.00165915 0)
(0.0893305 0.0015196 0)
(0.0893237 0.00138437 0)
(0.0893048 0.00125365 0)
(0.0892743 0.0011276 0)
(0.0892329 0.00100635 0)
(0.0891813 0.00088998 0)
(0.0891199 0.000778565 0)
(0.0890493 0.000672141 0)
(0.0889701 0.000570725 0)
(0.0888828 0.000474306 0)
(0.0887879 0.000382857 0)
(0.0886859 0.000296329 0)
(0.0885773 0.000214657 0)
(0.0884624 0.00013776 0)
(0.0883417 6.55407e-05 0)
(0.0882157 -2.10417e-06 0)
(0.0880847 -6.52996e-05 0)
(0.0879491 -0.000124164 0)
(0.0878093 -0.00017885 0)
(0.0876656 -0.000229477 0)
(0.0875184 -0.00027623 0)
(0.087368 -0.000319212 0)
(0.0872146 -0.000358657 0)
(0.0870587 -0.000394617 0)
(0.0869003 -0.000427414 0)
(0.08674 -0.00045699 0)
(0.0865777 -0.000483823 0)
(0.086414 -0.000507649 0)
(0.0862487 -0.000529221 0)
(0.0860825 -0.000547915 0)
(0.085915 -0.000564943 0)
(0.0857471 -0.000579098 0)
(0.0855784 -0.000592299 0)
(0.0854091 -0.000602479 0)
(0.0852405 -0.000612565 0)
(0.0850692 -0.000619279 0)
(0.0849031 -0.000626996 0)
(0.0847276 -0.000630534 0)
(0.084569 -0.000636909 0)
(0.0843836 -0.00063678 0)
(0.0842403 -0.00064359 0)
(0.0840355 -0.000641144 0)
(0.0839261 -0.000646079 0)
(0.0836749 -0.000644221 0)
(0.0204248 0.000111578 0)
(0.0207803 0.000197886 0)
(0.0211718 0.000283755 0)
(0.0215987 0.000370266 0)
(0.0220584 0.000456788 0)
(0.0225499 0.000544177 0)
(0.0230715 0.000632028 0)
(0.0236221 0.00072093 0)
(0.0242004 0.000810662 0)
(0.0248054 0.00090162 0)
(0.0254361 0.000993701 0)
(0.0260917 0.00108717 0)
(0.0267712 0.001182 0)
(0.0274741 0.00127836 0)
(0.0281995 0.00137626 0)
(0.0289469 0.00147581 0)
(0.0297156 0.00157703 0)
(0.0305049 0.00167997 0)
(0.0313145 0.00178463 0)
(0.0321435 0.00189105 0)
(0.0329916 0.00199916 0)
(0.033858 0.00210897 0)
(0.0347423 0.00222038 0)
(0.0356436 0.00233331 0)
(0.0365615 0.00244765 0)
(0.0374951 0.00256323 0)
(0.0384436 0.00267988 0)
(0.0394064 0.00279738 0)
(0.0403825 0.00291548 0)
(0.0413709 0.00303389 0)
(0.0423707 0.00315228 0)
(0.0433808 0.0032703 0)
(0.0444001 0.00338755 0)
(0.0454273 0.00350359 0)
(0.0464612 0.00361797 0)
(0.0475005 0.00373018 0)
(0.0485436 0.00383971 0)
(0.0495893 0.00394602 0)
(0.050636 0.00404854 0)
(0.051682 0.0041467 0)
(0.0527259 0.00423992 0)
(0.0537659 0.00432761 0)
(0.0548005 0.00440922 0)
(0.0558279 0.00448416 0)
(0.0568466 0.00455191 0)
(0.0578548 0.00461195 0)
(0.0588509 0.00466381 0)
(0.0598334 0.00470705 0)
(0.0608006 0.00474129 0)
(0.061751 0.0047662 0)
(0.0626832 0.0047815 0)
(0.0635958 0.004787 0)
(0.0644874 0.00478255 0)
(0.065357 0.00476809 0)
(0.0662032 0.00474361 0)
(0.0670252 0.00470919 0)
(0.067822 0.00466498 0)
(0.0685927 0.00461119 0)
(0.0693367 0.00454809 0)
(0.0700533 0.00447603 0)
(0.0707421 0.0043954 0)
(0.0714026 0.00430667 0)
(0.0720347 0.00421031 0)
(0.072638 0.00410688 0)
(0.0732125 0.00399694 0)
(0.0737583 0.00388109 0)
(0.0742754 0.00375996 0)
(0.0747641 0.00363417 0)
(0.0752246 0.00350436 0)
(0.0756573 0.00337117 0)
(0.0760625 0.00323524 0)
(0.0764408 0.0030972 0)
(0.0767927 0.00295766 0)
(0.0771187 0.0028172 0)
(0.0774195 0.0026764 0)
(0.0776957 0.00253579 0)
(0.0779481 0.00239589 0)
(0.0781773 0.00225717 0)
(0.0783841 0.00212009 0)
(0.0785692 0.00198504 0)
(0.0787335 0.00185242 0)
(0.0788776 0.00172256 0)
(0.0790023 0.00159576 0)
(0.0791084 0.0014723 0)
(0.0791968 0.00135241 0)
(0.0792682 0.00123629 0)
(0.0793232 0.00112412 0)
(0.0793628 0.00101604 0)
(0.0793877 0.000912152 0)
(0.0793985 0.000812544 0)
(0.0793961 0.000717274 0)
(0.079381 0.000626373 0)
(0.0793541 0.000539853 0)
(0.079316 0.000457704 0)
(0.0792673 0.000379897 0)
(0.0792087 0.000306385 0)
(0.0791409 0.000237107 0)
(0.0790643 0.000171986 0)
(0.0789796 0.000110935 0)
(0.0788874 5.38496e-05 0)
(0.0787882 6.2974e-07 0)
(0.0786825 -4.88572e-05 0)
(0.0785708 -9.47135e-05 0)
(0.0784537 -0.000137106 0)
(0.0783315 -0.000176117 0)
(0.0782048 -0.00021197 0)
(0.0780738 -0.000244682 0)
(0.0779391 -0.000274589 0)
(0.0778011 -0.000301559 0)
(0.0776599 -0.00032615 0)
(0.0775162 -0.00034792 0)
(0.07737 -0.000367867 0)
(0.0772218 -0.000384931 0)
(0.0770719 -0.000400968 0)
(0.0769201 -0.000413735 0)
(0.0767677 -0.000426688 0)
(0.0766131 -0.000435443 0)
(0.0764598 -0.000446241 0)
(0.0763022 -0.000451184 0)
(0.0761501 -0.000460711 0)
(0.0759882 -0.00046234 0)
(0.0758415 -0.000470703 0)
(0.0756705 -0.000470959 0)
(0.0755384 -0.000476674 0)
(0.0753469 -0.000477453 0)
(0.0752469 -0.00048028 0)
(0.0750125 -0.000483161 0)
(0.00845812 -0.000184398 0)
(0.00870492 -0.000131697 0)
(0.00897984 -7.75641e-05 0)
(0.00928264 -2.18746e-05 0)
(0.00961218 3.51777e-05 0)
(0.00996814 9.39975e-05 0)
(0.0103497 0.000154297 0)
(0.0107566 0.000216423 0)
(0.0111883 0.000280168 0)
(0.0116444 0.000345776 0)
(0.0121245 0.000413129 0)
(0.0126284 0.000482396 0)
(0.0131558 0.000553518 0)
(0.0137064 0.000626614 0)
(0.0142801 0.000701661 0)
(0.0148767 0.000778745 0)
(0.0154959 0.000857858 0)
(0.0161376 0.000939056 0)
(0.0168015 0.00102233 0)
(0.0174876 0.00110772 0)
(0.0181956 0.00119518 0)
(0.0189252 0.00128473 0)
(0.0196762 0.00137631 0)
(0.0204483 0.00146988 0)
(0.0212412 0.00156536 0)
(0.0220545 0.00166264 0)
(0.0228877 0.00176161 0)
(0.0237404 0.0018621 0)
(0.024612 0.00196393 0)
(0.0255018 0.00206689 0)
(0.0264091 0.00217072 0)
(0.0273333 0.00227514 0)
(0.0282733 0.00237984 0)
(0.0292282 0.00248446 0)
(0.0301971 0.00258862 0)
(0.0311787 0.00269191 0)
(0.032172 0.00279387 0)
(0.0331755 0.00289403 0)
(0.0341879 0.00299191 0)
(0.0352079 0.00308698 0)
(0.0362338 0.00317873 0)
(0.0372641 0.00326661 0)
(0.0382973 0.00335009 0)
(0.0393315 0.00342863 0)
(0.0403652 0.00350172 0)
(0.0413966 0.00356884 0)
(0.0424238 0.00362952 0)
(0.0434453 0.00368331 0)
(0.0444591 0.0037298 0)
(0.0454636 0.00376861 0)
(0.046457 0.00379944 0)
(0.0474377 0.00382201 0)
(0.0484039 0.00383612 0)
(0.0493543 0.00384163 0)
(0.0502871 0.00383845 0)
(0.051201 0.00382656 0)
(0.0520947 0.00380602 0)
(0.0529669 0.00377692 0)
(0.0538163 0.00373946 0)
(0.054642 0.00369385 0)
(0.055443 0.00364038 0)
(0.0562184 0.00357941 0)
(0.0569675 0.0035113 0)
(0.0576896 0.0034365 0)
(0.0583843 0.00335546 0)
(0.0590511 0.00326869 0)
(0.0596898 0.0031767 0)
(0.0603 0.00308002 0)
(0.0608817 0.00297922 0)
(0.061435 0.00287484 0)
(0.0619598 0.00276744 0)
(0.0624564 0.00265757 0)
(0.062925 0.00254578 0)
(0.063366 0.0024326 0)
(0.0637796 0.00231853 0)
(0.0641665 0.00220407 0)
(0.0645271 0.00208968 0)
(0.064862 0.00197582 0)
(0.0651718 0.00186288 0)
(0.0654572 0.00175125 0)
(0.0657188 0.0016413 0)
(0.0659574 0.00153333 0)
(0.0661736 0.00142764 0)
(0.0663684 0.0013245 0)
(0.0665425 0.00122412 0)
(0.0666965 0.00112672 0)
(0.0668315 0.00103246 0)
(0.0669481 0.000941483 0)
(0.0670471 0.000853907 0)
(0.0671295 0.000769825 0)
(0.0671958 0.000689301 0)
(0.067247 0.000612382 0)
(0.0672839 0.000539092 0)
(0.0673071 0.000469435 0)
(0.0673174 0.000403399 0)
(0.0673156 0.000340956 0)
(0.0673024 0.000282062 0)
(0.0672784 0.000226659 0)
(0.0672444 0.000174681 0)
(0.0672011 0.000126046 0)
(0.0671489 8.06732e-05 0)
(0.0670887 3.84537e-05 0)
(0.0670209 -6.95926e-07 0)
(0.0669461 -3.69137e-05 0)
(0.066865 -7.02689e-05 0)
(0.0667778 -0.000100945 0)
(0.0666854 -0.000128967 0)
(0.0665879 -0.000154595 0)
(0.0664861 -0.000177759 0)
(0.0663801 -0.000198861 0)
(0.0662705 -0.000217645 0)
(0.0661576 -0.000234758 0)
(0.0660419 -0.00024963 0)
(0.0659236 -0.000263308 0)
(0.0658028 -0.000274721 0)
(0.0656807 -0.000285522 0)
(0.0655557 -0.000293921 0)
(0.0654314 -0.000302392 0)
(0.065302 -0.00030824 0)
(0.0651782 -0.000314883 0)
(0.065043 -0.000318737 0)
(0.0649238 -0.000323904 0)
(0.0647789 -0.000326725 0)
(0.0646714 -0.000330164 0)
(0.0645088 -0.00033425 0)
(0.0644267 -0.000334736 0)
(0.0642298 -0.00034176 0)
(0.000176806 -0.000352613 0)
(0.000282294 -0.00032423 0)
(0.000408312 -0.000294321 0)
(0.000555454 -0.000262503 0)
(0.000723199 -0.000229117 0)
(0.000911953 -0.000193821 0)
(0.00112149 -0.000156871 0)
(0.00135208 -0.000118023 0)
(0.00160368 -7.74394e-05 0)
(0.00187648 -3.4953e-05 0)
(0.00217057 9.34492e-06 0)
(0.00248609 5.55727e-05 0)
(0.00282321 0.000103687 0)
(0.00318206 0.000153778 0)
(0.00356284 0.000205831 0)
(0.00396569 0.000259919 0)
(0.0043908 0.000316045 0)
(0.00483832 0.000374266 0)
(0.00530842 0.000434592 0)
(0.00580123 0.000497063 0)
(0.00631688 0.000561685 0)
(0.00685547 0.000628477 0)
(0.00741709 0.00069743 0)
(0.00800176 0.000768535 0)
(0.00860949 0.000841757 0)
(0.00924023 0.000917053 0)
(0.00989387 0.000994349 0)
(0.0105703 0.00107356 0)
(0.0112692 0.00115456 0)
(0.0119903 0.00123722 0)
(0.0127333 0.00132135 0)
(0.0134977 0.00140677 0)
(0.014283 0.00149324 0)
(0.0150885 0.00158048 0)
(0.0159136 0.00166822 0)
(0.0167574 0.00175612 0)
(0.0176189 0.00184382 0)
(0.0184973 0.00193095 0)
(0.0193913 0.00201709 0)
(0.0202999 0.00210181 0)
(0.0212217 0.00218467 0)
(0.0221553 0.00226519 0)
(0.0230993 0.00234291 0)
(0.0240521 0.00241735 0)
(0.0250122 0.00248804 0)
(0.0259779 0.00255452 0)
(0.0269474 0.00261632 0)
(0.0279191 0.00267303 0)
(0.0288911 0.00272424 0)
(0.0298617 0.00276957 0)
(0.0308289 0.00280871 0)
(0.0317911 0.00284135 0)
(0.0327464 0.00286725 0)
(0.0336929 0.00288622 0)
(0.0346291 0.00289813 0)
(0.0355532 0.00290288 0)
(0.0364636 0.00290045 0)
(0.0373587 0.00289086 0)
(0.038237 0.0028742 0)
(0.0390971 0.00285059 0)
(0.0399377 0.00282023 0)
(0.0407577 0.00278335 0)
(0.0415558 0.00274023 0)
(0.0423311 0.00269118 0)
(0.0430827 0.00263656 0)
(0.0438098 0.00257674 0)
(0.0445117 0.00251215 0)
(0.0451879 0.0024432 0)
(0.0458379 0.00237034 0)
(0.0464614 0.00229403 0)
(0.0470581 0.00221472 0)
(0.047628 0.00213287 0)
(0.0481708 0.00204893 0)
(0.0486868 0.00196335 0)
(0.049176 0.00187657 0)
(0.0496387 0.00178901 0)
(0.0500752 0.00170106 0)
(0.0504857 0.00161311 0)
(0.0508709 0.00152552 0)
(0.0512311 0.00143863 0)
(0.0515668 0.00135274 0)
(0.0518788 0.00126815 0)
(0.0521675 0.00118511 0)
(0.0524337 0.00110387 0)
(0.0526781 0.00102463 0)
(0.0529014 0.000947574 0)
(0.0531043 0.000872863 0)
(0.0532875 0.000800634 0)
(0.0534519 0.000731 0)
(0.0535981 0.000664052 0)
(0.0537271 0.000599861 0)
(0.0538395 0.000538478 0)
(0.0539361 0.000479937 0)
(0.0540178 0.000424255 0)
(0.0540851 0.000371432 0)
(0.054139 0.000321455 0)
(0.0541801 0.000274298 0)
(0.0542092 0.000229923 0)
(0.0542269 0.000188282 0)
(0.0542339 0.000149314 0)
(0.054231 0.00011296 0)
(0.0542187 7.91333e-05 0)
(0.0541977 4.77767e-05 0)
(0.0541686 1.87693e-05 0)
(0.054132 -7.92369e-06 0)
(0.0540883 -3.24784e-05 0)
(0.0540383 -5.48683e-05 0)
(0.0539823 -7.53725e-05 0)
(0.053921 -9.38302e-05 0)
(0.0538546 -0.000110718 0)
(0.0537837 -0.000125607 0)
(0.0537089 -0.000139344 0)
(0.0536301 -0.000151007 0)
(0.0535483 -0.000162092 0)
(0.0534629 -0.000170837 0)
(0.053376 -0.0001798 0)
(0.0532848 -0.000185927 0)
(0.0531945 -0.000193268 0)
(0.0530979 -0.000197193 0)
(0.0530065 -0.000203202 0)
(0.0529036 -0.000205783 0)
(0.0528145 -0.000210158 0)
(0.0527025 -0.000213182 0)
(0.0526217 -0.000214864 0)
(0.0524948 -0.000220683 0)
(0.0524316 -0.000219136 0)
(0.0522798 -0.000228772 0)
(-0.00491487 -0.000373889 0)
(-0.00494166 -0.000362933 0)
(-0.00495507 -0.00035045 0)
(-0.00495439 -0.000336447 0)
(-0.00493945 -0.000320991 0)
(-0.00490967 -0.000303962 0)
(-0.00486473 -0.000285484 0)
(-0.00480413 -0.000265429 0)
(-0.0047275 -0.000243902 0)
(-0.00463435 -0.000220799 0)
(-0.00452427 -0.000196184 0)
(-0.00439681 -0.000169978 0)
(-0.0042515 -0.000142209 0)
(-0.00408791 -0.000112811 0)
(-0.00390556 -8.17876e-05 0)
(-0.00370402 -4.90777e-05 0)
(-0.00348282 -1.46669e-05 0)
(-0.00324152 2.15004e-05 0)
(-0.00297966 5.94494e-05 0)
(-0.00269681 9.92303e-05 0)
(-0.00239253 0.00014087 0)
(-0.00206643 0.000184411 0)
(-0.00171811 0.000229873 0)
(-0.00134722 0.000277282 0)
(-0.000953402 0.000326646 0)
(-0.000536378 0.000377965 0)
(-9.589e-05 0.000431224 0)
(0.000368264 0.000486393 0)
(0.000856235 0.000543421 0)
(0.00136811 0.000602239 0)
(0.0019039 0.000662753 0)
(0.00246354 0.000724848 0)
(0.00304691 0.00078838 0)
(0.00365376 0.00085318 0)
(0.00428378 0.000919051 0)
(0.00493654 0.000985767 0)
(0.00561154 0.00105308 0)
(0.00630813 0.0011207 0)
(0.00702559 0.00118833 0)
(0.00776307 0.00125564 0)
(0.00851963 0.00132228 0)
(0.00929421 0.00138789 0)
(0.0100857 0.00145209 0)
(0.0108927 0.00151449 0)
(0.011714 0.00157469 0)
(0.012548 0.00163231 0)
(0.0133934 0.00168695 0)
(0.0142483 0.00173824 0)
(0.0151113 0.00178583 0)
(0.0159806 0.00182937 0)
(0.0168543 0.00186855 0)
(0.0177307 0.00190309 0)
(0.018608 0.00193275 0)
(0.0194844 0.00195732 0)
(0.0203579 0.00197662 0)
(0.0212269 0.00199055 0)
(0.0220895 0.00199901 0)
(0.0229439 0.00200198 0)
(0.0237886 0.00199946 0)
(0.0246218 0.00199152 0)
(0.025442 0.00197826 0)
(0.0262477 0.0019598 0)
(0.0270376 0.00193634 0)
(0.0278102 0.00190808 0)
(0.0285645 0.00187527 0)
(0.0292993 0.00183819 0)
(0.0300136 0.00179712 0)
(0.0307066 0.00175239 0)
(0.0313774 0.00170433 0)
(0.0320254 0.00165327 0)
(0.03265 0.00159958 0)
(0.0332508 0.00154361 0)
(0.0338275 0.0014857 0)
(0.0343798 0.0014262 0)
(0.0349075 0.00136547 0)
(0.0354106 0.00130383 0)
(0.0358891 0.0012416 0)
(0.0363432 0.0011791 0)
(0.036773 0.0011166 0)
(0.0371788 0.00105439 0)
(0.0375609 0.000992718 0)
(0.0379197 0.000931821 0)
(0.0382558 0.000871913 0)
(0.0385695 0.00081319 0)
(0.0388614 0.000755827 0)
(0.0391321 0.000699979 0)
(0.0393822 0.000645782 0)
(0.0396124 0.000593351 0)
(0.0398232 0.000542785 0)
(0.0400155 0.000494164 0)
(0.0401898 0.000447551 0)
(0.040347 0.000402995 0)
(0.0404877 0.000360527 0)
(0.0406126 0.000320167 0)
(0.0407225 0.000281922 0)
(0.0408181 0.000245785 0)
(0.0409002 0.00021174 0)
(0.0409693 0.000179762 0)
(0.0410263 0.000149816 0)
(0.0410717 0.000121858 0)
(0.0411064 9.58431e-05 0)
(0.0411309 7.17066e-05 0)
(0.041146 4.94047e-05 0)
(0.0411521 2.88458e-05 0)
(0.04115 1.0002e-05 0)
(0.0411403 -7.25929e-06 0)
(0.0411234 -2.29228e-05 0)
(0.0410999 -3.71933e-05 0)
(0.0410705 -4.99658e-05 0)
(0.0410355 -6.15727e-05 0)
(0.0409954 -7.17441e-05 0)
(0.0409508 -8.103e-05 0)
(0.0409018 -8.88848e-05 0)
(0.0408495 -9.62003e-05 0)
(0.040793 -0.000102021 0)
(0.0407348 -0.000107708 0)
(0.0406717 -0.000111805 0)
(0.0406095 -0.000116154 0)
(0.0405404 -0.000118948 0)
(0.0404764 -0.000122097 0)
(0.0404008 -0.000124328 0)
(0.0403378 -0.000126058 0)
(0.0402542 -0.000129199 0)
(0.040196 -0.000128679 0)
(0.0401013 -0.000135263 0)
(0.0400536 -0.00013189 0)
(0.0399427 -0.000142991 0)
(-0.00704085 -0.000286063 0)
(-0.0071576 -0.000284475 0)
(-0.0072679 -0.000282042 0)
(-0.00737087 -0.000278605 0)
(-0.00746622 -0.000274321 0)
(-0.00755319 -0.000269038 0)
(-0.00763133 -0.000262879 0)
(-0.0077 -0.000255731 0)
(-0.00775869 -0.000247671 0)
(-0.00780678 -0.000238618 0)
(-0.00784372 -0.000228611 0)
(-0.00786893 -0.000217588 0)
(-0.00788181 -0.000205562 0)
(-0.00788179 -0.000192478 0)
(-0.00786825 -0.000178329 0)
(-0.0078406 -0.000163062 0)
(-0.00779821 -0.000146654 0)
(-0.00774049 -0.000129054 0)
(-0.00766677 -0.000110227 0)
(-0.00757645 -9.01197e-05 0)
(-0.00746887 -6.86932e-05 0)
(-0.00734341 -4.5896e-05 0)
(-0.00719942 -2.16877e-05 0)
(-0.00703627 3.97711e-06 0)
(-0.00685335 3.11328e-05 0)
(-0.00665005 5.98134e-05 0)
(-0.00642578 9.00403e-05 0)
(-0.00617998 0.000121829 0)
(-0.00591214 0.000155181 0)
(-0.00562178 0.000190085 0)
(-0.00530846 0.000226514 0)
(-0.00497182 0.000264424 0)
(-0.00461153 0.000303752 0)
(-0.00422738 0.000344414 0)
(-0.00381922 0.000386306 0)
(-0.00338697 0.000429302 0)
(-0.00293069 0.00047325 0)
(-0.00245051 0.00051798 0)
(-0.00194668 0.000563296 0)
(-0.00141957 0.000608984 0)
(-0.000869667 0.000654808 0)
(-0.000297576 0.000700517 0)
(0.000295972 0.000745843 0)
(0.000910125 0.000790507 0)
(0.00154391 0.000834221 0)
(0.00219623 0.000876691 0)
(0.00286588 0.000917625 0)
(0.00355155 0.000956732 0)
(0.00425182 0.000993728 0)
(0.00496518 0.00102834 0)
(0.00569005 0.00106032 0)
(0.00642475 0.00108942 0)
(0.00716757 0.00111543 0)
(0.00791673 0.00113816 0)
(0.00867044 0.00115745 0)
(0.00942686 0.00117318 0)
(0.0101842 0.00118524 0)
(0.0109405 0.00119358 0)
(0.0116941 0.00119816 0)
(0.0124431 0.00119899 0)
(0.0131859 0.00119611 0)
(0.0139206 0.00118957 0)
(0.0146458 0.00117948 0)
(0.0153598 0.00116597 0)
(0.0160612 0.00114918 0)
(0.0167486 0.0011293 0)
(0.0174208 0.00110651 0)
(0.0180765 0.00108102 0)
(0.0187147 0.00105307 0)
(0.0193344 0.00102288 0)
(0.0199348 0.000990693 0)
(0.020515 0.000956765 0)
(0.0210745 0.000921342 0)
(0.0216128 0.000884671 0)
(0.0221294 0.000846998 0)
(0.0226239 0.00080856 0)
(0.0230963 0.000769589 0)
(0.0235463 0.000730307 0)
(0.0239739 0.000690925 0)
(0.0243792 0.000651641 0)
(0.0247623 0.00061264 0)
(0.0251234 0.000574095 0)
(0.0254628 0.000536161 0)
(0.0257809 0.000498982 0)
(0.026078 0.000462686 0)
(0.0263547 0.000427383 0)
(0.0266114 0.000393173 0)
(0.0268487 0.00036014 0)
(0.0270672 0.000328352 0)
(0.0272675 0.000297869 0)
(0.0274503 0.000268732 0)
(0.0276162 0.000240976 0)
(0.0277659 0.000214622 0)
(0.0279001 0.00018968 0)
(0.0280196 0.000166153 0)
(0.0281251 0.000144034 0)
(0.0282172 0.000123308 0)
(0.0282968 0.000103953 0)
(0.0283644 8.59427e-05 0)
(0.0284209 6.92396e-05 0)
(0.0284668 5.38132e-05 0)
(0.028503 3.96088e-05 0)
(0.02853 2.66003e-05 0)
(0.0285485 1.47093e-05 0)
(0.0285591 3.9304e-06 0)
(0.0285624 -5.85629e-06 0)
(0.028559 -1.46058e-05 0)
(0.0285496 -2.25151e-05 0)
(0.0285345 -2.94366e-05 0)
(0.0285144 -3.57105e-05 0)
(0.0284895 -4.09967e-05 0)
(0.0284608 -4.58906e-05 0)
(0.0284278 -4.97191e-05 0)
(0.0283925 -5.34985e-05 0)
(0.0283528 -5.60361e-05 0)
(0.0283125 -5.896e-05 0)
(0.0282672 -6.03993e-05 0)
(0.0282238 -6.26632e-05 0)
(0.0281734 -6.33357e-05 0)
(0.0281286 -6.49313e-05 0)
(0.0280731 -6.55623e-05 0)
(0.0280289 -6.60368e-05 0)
(0.0279678 -6.81457e-05 0)
(0.0279261 -6.64821e-05 0)
(0.0278582 -7.25612e-05 0)
(0.0278213 -6.82334e-05 0)
(0.0277447 -7.99774e-05 0)
(-0.0063148 -0.000133695 0)
(-0.00645154 -0.000135374 0)
(-0.00658716 -0.000136663 0)
(-0.00672098 -0.000137588 0)
(-0.0068527 -0.000138148 0)
(-0.00698175 -0.000138323 0)
(-0.00710773 -0.000138138 0)
(-0.00723012 -0.000137562 0)
(-0.00734849 -0.000136622 0)
(-0.00746234 -0.000135286 0)
(-0.00757119 -0.000133574 0)
(-0.00767455 -0.000131456 0)
(-0.00777192 -0.000128941 0)
(-0.00786279 -0.000126001 0)
(-0.00794663 -0.000122634 0)
(-0.00802291 -0.000118811 0)
(-0.00809107 -0.000114519 0)
(-0.00815054 -0.000109727 0)
(-0.00820071 -0.000104415 0)
(-0.00824099 -9.85469e-05 0)
(-0.00827073 -9.20957e-05 0)
(-0.00828929 -8.50241e-05 0)
(-0.00829597 -7.7299e-05 0)
(-0.00829011 -6.88822e-05 0)
(-0.00827098 -5.97389e-05 0)
(-0.00823788 -4.98321e-05 0)
(-0.00819005 -3.9129e-05 0)
(-0.00812678 -2.75977e-05 0)
(-0.00804733 -1.5212e-05 0)
(-0.00795097 -1.94944e-06 0)
(-0.007837 1.22043e-05 0)
(-0.00770472 2.72569e-05 0)
(-0.00755348 4.32057e-05 0)
(-0.00738267 6.00382e-05 0)
(-0.00719172 7.77296e-05 0)
(-0.00698014 9.62431e-05 0)
(-0.0067475 0.000115528 0)
(-0.00649344 0.000135518 0)
(-0.00621773 0.000156136 0)
(-0.00592019 0.000177288 0)
(-0.00560079 0.000198865 0)
(-0.00525961 0.000220748 0)
(-0.00489684 0.000242803 0)
(-0.00451281 0.000264886 0)
(-0.00410797 0.000286845 0)
(-0.00368293 0.000308521 0)
(-0.00323841 0.000329749 0)
(-0.00277527 0.000350363 0)
(-0.00229449 0.000370196 0)
(-0.00179721 0.000389087 0)
(-0.00128464 0.000406879 0)
(-0.000758116 0.000423422 0)
(-0.000219085 0.00043858 0)
(0.000330935 0.000452227 0)
(0.000890349 0.000464254 0)
(0.0014575 0.000474567 0)
(0.00203069 0.000483093 0)
(0.00260818 0.000489775 0)
(0.00318823 0.000494576 0)
(0.00376909 0.000497479 0)
(0.00434902 0.000498488 0)
(0.0049263 0.000497624 0)
(0.00549928 0.000494927 0)
(0.00606633 0.000490454 0)
(0.00662592 0.000484279 0)
(0.00717655 0.000476488 0)
(0.00771684 0.000467181 0)
(0.00824549 0.000456469 0)
(0.00876131 0.000444471 0)
(0.0092632 0.000431312 0)
(0.00975018 0.000417123 0)
(0.0102214 0.000402038 0)
(0.010676 0.000386191 0)
(0.0111134 0.000369718 0)
(0.0115331 0.000352751 0)
(0.0119347 0.000335417 0)
(0.0123177 0.000317843 0)
(0.0126821 0.000300145 0)
(0.0130277 0.000282436 0)
(0.0133544 0.000264819 0)
(0.0136624 0.00024739 0)
(0.0139519 0.000230238 0)
(0.0142229 0.00021344 0)
(0.0144759 0.000197068 0)
(0.0147112 0.000181181 0)
(0.0149292 0.000165833 0)
(0.0151305 0.000151067 0)
(0.0153155 0.00013692 0)
(0.0154848 0.000123419 0)
(0.015639 0.000110586 0)
(0.0157787 9.8434e-05 0)
(0.0159046 8.69712e-05 0)
(0.0160173 7.61993e-05 0)
(0.0161174 6.61155e-05 0)
(0.0162057 5.67118e-05 0)
(0.0162829 4.79763e-05 0)
(0.0163495 3.98938e-05 0)
(0.0164062 3.24454e-05 0)
(0.0164538 2.56108e-05 0)
(0.0164928 1.93655e-05 0)
(0.0165239 1.36872e-05 0)
(0.0165477 8.54532e-06 0)
(0.0165647 3.92002e-06 0)
(0.0165755 -2.2805e-07 0)
(0.0165807 -3.90924e-06 0)
(0.0165808 -7.17848e-06 0)