/*--------------------------------*- C++ -*----------------------------------*\
| =========                 |                                                 |
| \\      /  F ield         | OpenFOAM: The Open Source CFD Toolbox           |
|  \\    /   O peration     | Version:  4.1                                   |
|   \\  /    A nd           | Web:      www.OpenFOAM.org                      |
|    \\/     M anipulation  |                                                 |
\*---------------------------------------------------------------------------*/
FoamFile
{
    version     2.0;
    format      ascii;
    class       volVectorField;
    location    "0.009";
    object      U;
}
// * * * * * * * * * * * * * * * * * * * * * * * * * * * * * * * * * * * * * //

dimensions      [0 1 -1 0 0 0 0];

internalField   nonuniform List<vector> 
441
(
(-0.000138354 0.000131151 0)
(-0.000598533 0.000296553 0)
(-0.00115397 0.0004031 0)
(-0.00173868 0.000441154 0)
(-0.00230342 0.000430569 0)
(-0.00281646 0.000389071 0)
(-0.00325751 0.000328399 0)
(-0.00361324 0.000255648 0)
(-0.00387453 0.000175182 0)
(-0.00403525 8.99611e-05 0)
(-0.00409167 2.30703e-06 0)
(-0.00404229 -8.56843e-05 0)
(-0.00388781 -0.000171881 0)
(-0.00363127 -0.000253852 0)
(-0.00327827 -0.000328454 0)
(-0.00283761 -0.000391067 0)
(-0.00232266 -0.000434273 0)
(-0.0017541 -0.00044596 0)
(-0.0011644 -0.000408038 0)
(-0.000603836 -0.000300399 0)
(-0.000139468 -0.000132825 0)
(-0.000327497 0.000584032 0)
(-0.00140362 0.00131194 0)
(-0.00267553 0.00170087 0)
(-0.00399625 0.00181908 0)
(-0.00526073 0.00175488 0)
(-0.00640289 0.00157596 0)
(-0.00738093 0.00132567 0)
(-0.00816749 0.00103003 0)
(-0.00874398 0.000705097 0)
(-0.00909782 0.000361938 0)
(-0.00922142 9.39699e-06 0)
(-0.00911175 -0.000344451 0)
(-0.0087703 -0.000691395 0)
(-0.0082033 -0.00102217 0)
(-0.00742225 -0.00132502 0)
(-0.00644514 -0.00158289 0)
(-0.00529933 -0.00176855 0)
(-0.00402734 -0.00183724 0)
(-0.00269665 -0.00171988 0)
(-0.00141435 -0.00132715 0)
(-0.000329626 -0.000590644 0)
(-0.000475145 0.0011642 0)
(-0.00195239 0.00258593 0)
(-0.00367173 0.00330405 0)
(-0.00544397 0.00350402 0)
(-0.007134 0.00336389 0)
(-0.00865665 0.00301201 0)
(-0.00995798 0.00252889 0)
(-0.0110029 0.00196246 0)
(-0.0117678 0.00134222 0)
(-0.0122368 0.000688495 0)
(-0.0124006 1.75237e-05 0)
(-0.0122554 -0.000655888 0)
(-0.0118028 -0.00131668 0)
(-0.0110507 -0.00194785 0)
(-0.0100133 -0.00252779 0)
(-0.00871335 -0.00302518 0)
(-0.00718599 -0.00338979 0)
(-0.00548603 -0.00353845 0)
(-0.00370047 -0.00334018 0)
(-0.00196716 -0.00261492 0)
(-0.000478223 -0.00117673 0)
(-0.000582035 0.00183674 0)
(-0.00234449 0.00404363 0)
(-0.00437598 0.00512597 0)
(-0.00645964 0.00540976 0)
(-0.00843998 0.00517743 0)
(-0.0102195 0.00462624 0)
(-0.0117368 0.00387849 0)
(-0.0129529 0.00300659 0)
(-0.0138419 0.00205489 0)
(-0.0143869 0.00105372 0)
(-0.014578 2.70457e-05 0)
(-0.0144109 -0.0010034 0)
(-0.0138874 -0.00201551 0)
(-0.013015 -0.00298417 0)
(-0.011809 -0.00387711 0)
(-0.0102937 -0.00464718 0)
(-0.00850842 -0.00521836 0)
(-0.00651527 -0.00546416 0)
(-0.00441424 -0.00518309 0)
(-0.00236433 -0.00408947 0)
(-0.000586308 -0.00185646 0)
(-0.000671546 0.00258852 0)
(-0.00267943 0.00565992 0)
(-0.00497956 0.00713883 0)
(-0.00732949 0.00750839 0)
(-0.00955502 0.00716836 0)
(-0.0115481 0.00639324 0)
(-0.0132423 0.00535203 0)
(-0.0145965 0.0041443 0)
(-0.0155849 0.00283059 0)
(-0.016191 0.00145162 0)
(-0.0164051 3.89648e-05 0)
(-0.0162231 -0.00137909 0)
(-0.0156459 -0.00277378 0)
(-0.0146802 -0.00411193 0)
(-0.0133398 -0.00535012 0)
(-0.011649 -0.00642386 0)
(-0.00964855 -0.00722831 0)
(-0.00740605 -0.00758828 0)
(-0.00503262 -0.00722292 0)
(-0.00270723 -0.00572749 0)
(-0.000677692 -0.00261757 0)
(-0.00076296 0.00342521 0)
(-0.00302953 0.00744878 0)
(-0.00561386 0.00935988 0)
(-0.00824339 0.0098163 0)
(-0.0107228 0.0093497 0)
(-0.012933 0.0083219 0)
(-0.0148036 0.00695477 0)
(-0.0162933 0.00537839 0)
(-0.017378 0.00367086 0)
(-0.0180432 0.00188344 0)
(-0.018281 5.47163e-05 0)
(-0.0180872 -0.00178148 0)
(-0.0174617 -0.00359067 0)
(-0.0164087 -0.00533226 0)
(-0.0149388 -0.00695138 0)
(-0.013074 -0.00836454 0)
(-0.0108544 -0.0094343 0)
(-0.00835203 -0.00992987 0)
(-0.00568984 -0.00948007 0)
(-0.00306979 -0.00754576 0)
(-0.000772054 -0.00346707 0)
(-0.000869708 0.00436519 0)
(-0.00344385 0.00944882 0)
(-0.00636537 0.011834 0)
(-0.0093229 0.0123758 0)
(-0.012095 0.0117565 0)
(-0.0145506 0.0104387 0)
(-0.0166161 0.00870529 0)
(-0.0182523 0.00672107 0)
(-0.0194396 0.00458328 0)
(-0.0201679 0.00235353 0)
(-0.0204321 7.60992e-05 0)
(-0.0202287 -0.00221145 0)
(-0.0195556 -0.00447079 0)
(-0.0184129 -0.00665516 0)
(-0.0168055 -0.00869841 0)
(-0.0147497 -0.0104962 0)
(-0.0122826 -0.0118735 0)
(-0.00947924 -0.0125348 0)
(-0.00647582 -0.0120038 0)
(-0.00350303 -0.00958678 0)
(-0.000883309 -0.00442525 0)
(-0.00100191 0.00543625 0)
(-0.00395944 0.0117159 0)
(-0.00729775 0.0146244 0)
(-0.0106543 0.0152446 0)
(-0.0137748 0.0144353 0)
(-0.0165148 0.0127775 0)
(-0.0187998 0.0106262 0)
(-0.0205968 0.00818644 0)
(-0.0218944 0.00557624 0)
(-0.0226902 0.00286667 0)
(-0.0229839 0.000105369 0)
(-0.0227737 -0.00266941 0)
(-0.0220546 -0.00541856 0)
(-0.0208198 -0.00809162 0)
(-0.0190651 -0.010612 0)
(-0.0167963 -0.0128526 0)
(-0.014043 -0.0145947 0)
(-0.0108803 -0.0154653 0)
(-0.00745926 -0.0148631 0)
(-0.00404695 -0.0119119 0)
(-0.00102232 -0.00552258 0)
(-0.00116908 0.00667514 0)
(-0.00461169 0.0143216 0)
(-0.00847017 0.0178093 0)
(-0.0123138 0.0184909 0)
(-0.0158473 0.0174369 0)
(-0.0189127 0.0153718 0)
(-0.0214392 0.012737 0)
(-0.0234061 0.00978458 0)
(-0.0248165 0.00665471 0)
(-0.0256808 0.00342593 0)
(-0.0260066 0.000145383 0)
(-0.0257946 -0.0031528 0)
(-0.0250357 -0.00643367 0)
(-0.0237135 -0.00964721 0)
(-0.0218086 -0.0127087 0)
(-0.0193093 -0.0154668 0)
(-0.0162301 -0.0176514 0)
(-0.0126409 -0.0187954 0)
(-0.00870707 -0.0181444 0)
(-0.00474164 -0.0146006 0)
(-0.00119975 -0.00679987 0)
(-0.00138191 0.00812977 0)
(-0.00544143 0.017356 0)
(-0.00994887 0.0214826 0)
(-0.0143821 0.0221906 0)
(-0.0183957 0.0208119 0)
(-0.0218207 0.0182485 0)
(-0.0245985 0.0150475 0)
(-0.0267313 0.0115159 0)
(-0.0282458 0.00781617 0)
(-0.029172 0.00403063 0)
(-0.0295302 0.00019972 0)
(-0.0293248 -0.00365376 0)
(-0.0285416 -0.00750647 0)
(-0.0271499 -0.0113157 0)
(-0.0251078 -0.0149931 0)
(-0.0223756 -0.0183632 0)
(-0.0189402 -0.0210958 0)
(-0.0148553 -0.0226079 0)
(-0.0102971 -0.0219525 0)
(-0.00563512 -0.0177544 0)
(-0.00142814 -0.0083111 0)
(-0.00165274 0.00986348 0)
(-0.00649702 0.0209338 0)
(-0.0118091 0.025756 0)
(-0.0169437 0.0264242 0)
(-0.0214964 0.0246031 0)
(-0.0252952 0.0214191 0)
(-0.0283094 0.0175494 0)
(-0.0305797 0.0133637 0)
(-0.0321701 0.00904548 0)
(-0.0331393 0.00467362 0)
(-0.0335257 0.00027264 0)
(-0.0333397 -0.00415638 0)
(-0.0325611 -0.00861252 0)
(-0.0311394 -0.0130708 0)
(-0.0290005 -0.0174479 0)
(-0.026062 -0.0215472 0)
(-0.0222641 -0.0249703 0)
(-0.0176249 -0.0269906 0)
(-0.0123204 -0.0264137 0)
(-0.00678626 -0.0215047 0)
(-0.00172254 -0.0101289 0)
(-0.00199286 0.0119609 0)
(-0.00782573 0.0252015 0)
(-0.0141169 0.0307587 0)
(-0.0200563 0.0312687 0)
(-0.0251756 0.0288323 0)
(-0.0293191 0.0248647 0)
(-0.0325092 0.0202025 0)
(-0.0348487 0.0152842 0)
(-0.0364556 0.0103078 0)
(-0.0374289 0.00533759 0)
(-0.0378318 0.000368615 0)
(-0.0376833 -0.00463378 0)
(-0.0369559 -0.00970581 0)
(-0.0355748 -0.0148554 0)
(-0.0334226 -0.0200189 0)
(-0.0303553 -0.0249879 0)
(-0.0262391 -0.029291 0)
(-0.0210246 -0.0320254 0)
(-0.0148619 -0.0316743 0)
(-0.00825587 -0.0260209 0)
(-0.0020979 -0.0123519 0)
(-0.00240263 0.0145332 0)
(-0.00943876 0.0303383 0)
(-0.0168636 0.0366254 0)
(-0.0236536 0.0367738 0)
(-0.0292861 0.0334727 0)
(-0.0336582 0.0285106 0)
(-0.0368849 0.0229142 0)
(-0.039161 0.0171909 0)
(-0.0406786 0.0115389 0)
(-0.0415881 0.00598963 0)
(-0.0419829 0.000490914 0)
(-0.0418936 -0.00504532 0)
(-0.0412857 -0.0107108 0)
(-0.0400571 -0.0165673 0)
(-0.038038 -0.022593 0)
(-0.0350029 -0.0285881 0)
(-0.0307095 -0.0340135 0)
(-0.0249922 -0.0377583 0)
(-0.0179262 -0.0378845 0)
(-0.0100685 -0.0315115 0)
(-0.00255857 -0.0151112 0)
(-0.00284552 0.0177153 0)
(-0.011218 0.0365362 0)
(-0.0197995 0.0434508 0)
(-0.0273132 0.0429047 0)
(-0.0332249 0.0383936 0)
(-0.0375478 0.0321811 0)
(-0.0405422 0.0255076 0)
(-0.0425272 0.0189339 0)
(-0.0437846 0.0126319 0)
(-0.0445217 0.00657396 0)
(-0.044864 0.000638478 0)
(-0.0448553 -0.00533543 0)
(-0.0444568 -0.0115154 0)
(-0.0435416 -0.0180419 0)
(-0.0418865 -0.0249676 0)
(-0.0391721 -0.0321371 0)
(-0.0350142 -0.0389701 0)
(-0.0290684 -0.044129 0)
(-0.0212513 -0.0451398 0)
(-0.0121092 -0.0381964 0)
(-0.00307052 -0.0185678 0)
(-0.00319101 0.0216382 0)
(-0.0127098 0.0439191 0)
(-0.0220806 0.0511704 0)
(-0.0297883 0.0494197 0)
(-0.0353921 0.0432596 0)
(-0.0391154 0.0355291 0)
(-0.0414157 0.0276769 0)
(-0.0427542 0.0202748 0)
(-0.0434996 0.0134238 0)
(-0.0439071 0.0070037 0)
(-0.0441262 0.000800515 0)
(-0.0442116 -0.00543639 0)
(-0.0441263 -0.011968 0)
(-0.043732 -0.0190386 0)
(-0.0427696 -0.0268146 0)
(-0.0408383 -0.0352415 0)
(-0.037402 -0.0437587 0)
(-0.0318817 -0.0508268 0)
(-0.0239176 -0.0533342 0)
(-0.0138978 -0.0462061 0)
(-0.0035005 -0.022881 0)
(-0.00310213 0.026344 0)
(-0.0127274 0.0523373 0)
(-0.0216301 0.0593059 0)
(-0.028217 0.0556449 0)
(-0.0323357 0.0473721 0)
(-0.0345142 0.0379422 0)
(-0.0354189 0.0289406 0)
(-0.0356196 0.0208659 0)
(-0.0355273 0.013687 0)
(-0.0354063 0.00715572 0)
(-0.0354051 0.000949711 0)
(-0.0355806 -0.00527772 0)
(-0.0359066 -0.0118864 0)
(-0.0362625 -0.0192395 0)
(-0.0364021 -0.0276538 0)
(-0.0359065 -0.0372468 0)
(-0.0341457 -0.0475863 0)
(-0.0303125 -0.0570422 0)
(-0.0236618 -0.0618591 0)
(-0.014162 -0.0553305 0)
(-0.00349858 -0.0281099 0)
(-0.00181518 0.0315792 0)
(-0.00864519 0.0609337 0)
(-0.0141389 0.0665096 0)
(-0.0170402 0.0601404 0)
(-0.0177161 0.0494821 0)
(-0.0169875 0.0384645 0)
(-0.0156071 0.0286251 0)
(-0.0141142 0.0202609 0)
(-0.0128477 0.0131443 0)
(-0.0120014 0.00687894 0)
(-0.0116764 0.00103841 0)
(-0.0119142 -0.00480392 0)
(-0.01271 -0.011088 0)
(-0.0140043 -0.0182843 0)
(-0.0156493 -0.0268712 0)
(-0.0173461 -0.0372002 0)
(-0.0185544 -0.049114 0)
(-0.0184198 -0.0611357 0)
(-0.0158536 -0.0691019 0)
(-0.0101068 -0.0645139 0)
(-0.00227378 -0.0339827 0)
(0.00236455 0.0364144 0)
(0.00488758 0.0674424 0)
(0.00834104 0.0699775 0)
(0.0131109 0.0604018 0)
(0.0184052 0.047725 0)
(0.0234985 0.0358542 0)
(0.0279402 0.0259606 0)
(0.0315116 0.0180046 0)
(0.0341343 0.0115356 0)
(0.0357956 0.00603228 0)
(0.036501 0.00100636 0)
(0.0362478 -0.00399928 0)
(0.0350124 -0.00945111 0)
(0.0327493 -0.0158709 0)
(0.0294046 -0.0238526 0)
(0.0249591 -0.03398 0)
(0.019524 -0.0464934 0)
(0.0135112 -0.0604328 0)
(0.00784002 -0.0718854 0)
(0.00386523 -0.0710853 0)
(0.00191715 -0.0394687 0)
(0.0138898 0.0382609 0)
(0.0387305 0.0668566 0)
(0.059325 0.0648694 0)
(0.0760049 0.0529358 0)
(0.0890784 0.0399781 0)
(0.0990672 0.0289684 0)
(0.106527 0.0203929 0)
(0.111935 0.013854 0)
(0.115659 0.00876029 0)
(0.117952 0.0045652 0)
(0.118963 0.000809366 0)
(0.118743 -0.00291185 0)
(0.117243 -0.00700475 0)
(0.114301 -0.0119385 0)
(0.109608 -0.0182934 0)
(0.10267 -0.0267504 0)
(0.092791 -0.037898 0)
(0.0791436 -0.0515736 0)
(0.0610952 -0.065155 0)
(0.0388272 -0.0695152 0)
(0.0136076 -0.0417678 0)
(0.04826 0.0325766 0)
(0.116667 0.0519351 0)
(0.161041 0.0459774 0)
(0.189333 0.0351613 0)
(0.207995 0.0253832 0)
(0.220537 0.0177956 0)
(0.229071 0.0122247 0)
(0.234862 0.00815788 0)
(0.238681 0.00509517 0)
(0.240983 0.00263541 0)
(0.24201 0.000467154 0)
(0.241854 -0.00167045 0)
(0.240459 -0.0040336 0)
(0.237606 -0.00692103 0)
(0.232832 -0.0107197 0)
(0.225289 -0.015934 0)
(0.213486 -0.0231509 0)
(0.19487 -0.0327952 0)
(0.165332 -0.0442748 0)
(0.118261 -0.052401 0)
(0.0483237 -0.0358243 0)
(0.182508 0.00418312 0)
(0.294883 0.00655677 0)
(0.346379 0.0089987 0)
(0.370653 0.00817172 0)
(0.384077 0.00629227 0)
(0.392084 0.00452342 0)
(0.397131 0.00313305 0)
(0.400387 0.00209218 0)
(0.402464 0.00130165 0)
(0.40369 0.000665777 0)
(0.404233 0.00010591 0)
(0.404154 -0.000444318 0)
(0.403425 -0.0010479 0)
(0.401911 -0.00177231 0)
(0.399317 -0.00269101 0)
(0.395037 -0.00386619 0)
(0.387832 -0.00527945 0)
(0.374953 -0.00665294 0)
(0.350205 -0.00706979 0)
(0.296137 -0.00539589 0)
(0.180798 -0.00683028 0)
)
;

boundaryField
{
    movingWall
    {
        type            fixedValue;
        value           uniform (0.5 0 0);
    }
    fixedWalls
    {
        type            noSlip;
    }
    frontAndBack
    {
        type            empty;
    }
}


// ************************************************************************* //
