/*--------------------------------*- C++ -*----------------------------------*\
| =========                 |                                                 |
| \\      /  F ield         | OpenFOAM: The Open Source CFD Toolbox           |
|  \\    /   O peration     | Version:  4.1                                   |
|   \\  /    A nd           | Web:      www.OpenFOAM.org                      |
|    \\/     M anipulation  |                                                 |
\*---------------------------------------------------------------------------*/
FoamFile
{
    version     2.0;
    format      ascii;
    class       volVectorField;
    location    "181";
    object      U;
}
// * * * * * * * * * * * * * * * * * * * * * * * * * * * * * * * * * * * * * //

dimensions      [0 1 -1 0 0 0 0];

internalField   nonuniform List<vector> 
3264
(
(7.68314e-06 -1.02011e-05 0)
(-7.17101e-05 1.37661e-05 0)
(-0.000265823 3.05522e-05 0)
(-0.000503793 3.33146e-05 0)
(-0.000770097 3.51662e-05 0)
(-0.00105621 3.43034e-05 0)
(-0.00135673 3.56325e-05 0)
(-0.00167609 3.71635e-05 0)
(-0.00201321 4.04624e-05 0)
(-0.00237337 4.49246e-05 0)
(-0.00275863 5.12751e-05 0)
(-0.00317379 5.95782e-05 0)
(-0.00362196 7.02648e-05 0)
(-0.00410657 8.34962e-05 0)
(-0.00462949 9.94005e-05 0)
(-0.00519143 0.000117853 0)
(-0.00579105 0.000138501 0)
(-0.00642494 0.000160702 0)
(-0.00708725 0.000183548 0)
(-0.00776974 0.000205911 0)
(-0.00846189 0.000226531 0)
(-0.00915115 0.00024412 0)
(-0.00982339 0.000257475 0)
(-0.0104634 0.000265572 0)
(-0.0110557 0.000267636 0)
(-0.0115846 0.000263176 0)
(-0.0120354 0.000251994 0)
(-0.0123944 0.000234165 0)
(-0.0126494 0.00021 0)
(-0.01279 0.000180009 0)
(-0.0128078 0.00014486 0)
(-0.0126967 0.00010534 0)
(-0.0124524 6.23229e-05 0)
(-0.012073 1.67451e-05 0)
(-0.0115589 -3.04141e-05 0)
(-0.0109126 -7.81494e-05 0)
(-0.0101385 -0.000125442 0)
(-0.00924346 -0.000171271 0)
(-0.00823605 -0.000214625 0)
(-0.00712698 -0.000254513 0)
(-0.00592882 -0.000289982 0)
(-0.00465597 -0.00032013 0)
(-0.00332455 -0.000344135 0)
(-0.00195224 -0.000361281 0)
(-0.000558126 -0.000370991 0)
(0.000837543 -0.000372866 0)
(0.00221369 -0.000366727 0)
(0.00354877 -0.000352659 0)
(0.00482127 -0.000331051 0)
(0.00601026 -0.000302626 0)
(0.00709603 -0.000268457 0)
(0.00806086 -0.000229958 0)
(0.00888973 -0.000188837 0)
(0.00957111 -0.000147006 0)
(0.0100977 -0.000106434 0)
(0.0104668 -6.89526e-05 0)
(0.0106811 -3.60268e-05 0)
(0.0107482 -8.54529e-06 0)
(0.0106807 1.33113e-05 0)
(0.0104954 3.0044e-05 0)
(0.0102121 4.26179e-05 0)
(0.00985282 5.20985e-05 0)
(0.00943935 5.92793e-05 0)
(0.00899227 6.4475e-05 0)
(0.00852911 6.75888e-05 0)
(0.00806352 6.84179e-05 0)
(0.00760521 6.70411e-05 0)
(0.00716051 6.40945e-05 0)
(0.00673328 6.07862e-05 0)
(0.00632555 5.85948e-05 0)
(0.00593779 5.87493e-05 0)
(0.0055693 6.17416e-05 0)
(0.00521883 6.71435e-05 0)
(0.00488541 7.38234e-05 0)
(0.00456904 8.04003e-05 0)
(0.00427116 8.56652e-05 0)
(0.00399477 8.87896e-05 0)
(0.00374423 8.93186e-05 0)
(0.003525 8.70565e-05 0)
(0.00334318 8.19525e-05 0)
(0.00320508 7.40388e-05 0)
(0.00311666 6.34175e-05 0)
(0.00308315 5.02734e-05 0)
(0.00310869 3.48877e-05 0)
(0.00319608 1.76415e-05 0)
(0.00334659 -9.93283e-07 0)
(0.0035599 -2.04732e-05 0)
(0.00383401 -4.02064e-05 0)
(0.00416531 -5.95775e-05 0)
(0.00454855 -7.79705e-05 0)
(0.00497698 -9.47909e-05 0)
(0.00544245 -0.000109487 0)
(0.00593562 -0.00012157 0)
(0.00644619 -0.000130641 0)
(0.00696323 -0.000136407 0)
(0.00747559 -0.000138711 0)
(0.00797235 -0.000137545 0)
(0.00844331 -0.000133061 0)
(0.00887955 -0.000125571 0)
(0.00927381 -0.000115533 0)
(0.00962086 -0.000103518 0)
(0.0099177 -9.0169e-05 0)
(0.0101635 -7.61514e-05 0)
(0.0103596 -6.21031e-05 0)
(0.0105091 -4.85903e-05 0)
(0.0106162 -3.60758e-05 0)
(0.0106864 -2.49011e-05 0)
(0.0107256 -1.52827e-05 0)
(0.0107398 -7.31964e-06 0)
(0.0107345 -1.00917e-06 0)
(0.0107153 3.73327e-06 0)
(0.0106868 7.05266e-06 0)
(0.0106528 9.13359e-06 0)
(0.0106167 1.01816e-05 0)
(0.0105809 1.04071e-05 0)
(0.0105472 1.00126e-05 0)
(0.0105169 9.18342e-06 0)
(0.0104905 8.08123e-06 0)
(0.0104684 6.84065e-06 0)
(0.0104507 5.56836e-06 0)
(0.0104369 4.34411e-06 0)
(0.0104268 3.22311e-06 0)
(0.0104198 2.23935e-06 0)
(0.0104155 1.40936e-06 0)
(0.0104132 7.36095e-07 0)
(0.0104126 2.12557e-07 0)
(0.0104132 -1.74949e-07 0)
(0.0104146 -4.4405e-07 0)
(0.0104165 -6.14098e-07 0)
(0.0104187 -7.04494e-07 0)
(0.010421 -7.33502e-07 0)
(0.0104232 -7.1749e-07 0)
(0.0104252 -6.70518e-07 0)
(0.0104271 -6.04196e-07 0)
(0.0104287 -5.27737e-07 0)
(0.0104301 -4.48144e-07 0)
(0.0104312 -3.70475e-07 0)
(0.0104321 -2.98148e-07 0)
(0.0104329 -2.33248e-07 0)
(0.0104334 -1.76819e-07 0)
(0.0104338 -1.2913e-07 0)
(0.0104341 -8.99005e-08 0)
(0.0104343 -5.8489e-08 0)
(0.0104344 -3.40414e-08 0)
(0.0104345 -1.56056e-08 0)
(0.0104345 -2.21531e-09 0)
(0.0104345 7.05312e-09 0)
(0.0104344 1.30438e-08 0)
(0.0104344 1.65013e-08 0)
(0.0104343 1.80624e-08 0)
(0.0104343 1.82569e-08 0)
(0.0104342 1.7514e-08 0)
(0.0104342 1.6172e-08 0)
(0.0104342 1.44901e-08 0)
(0.0104341 1.26608e-08 0)
(0.0104341 1.08212e-08 0)
(0.0104341 9.06422e-09 0)
(0.010434 7.44845e-09 0)
(0.010434 6.00612e-09 0)
(0.010434 4.7503e-09 0)
(0.010434 3.68052e-09 0)
(0.010434 2.78725e-09 0)
(0.010434 2.05543e-09 0)
(0.010434 1.467e-09 0)
(0.010434 1.00289e-09 0)
(0.010434 6.44242e-10 0)
(0.010434 3.73319e-10 0)
(0.010434 1.74008e-10 0)
(0.010434 3.20784e-11 0)
(0.010434 -6.47444e-11 0)
(0.010434 -1.2682e-10 0)
(0.010434 -1.62732e-10 0)
(0.010434 -1.79454e-10 0)
(0.010434 -1.82557e-10 0)
(0.010434 -1.76402e-10 0)
(0.010434 -1.64335e-10 0)
(0.010434 -1.48867e-10 0)
(0.010434 -1.31833e-10 0)
(0.010434 -1.14528e-10 0)
(0.010434 -9.78323e-11 0)
(0.010434 -8.23004e-11 0)
(0.010434 -6.82504e-11 0)
(0.010434 -5.58255e-11 0)
(0.010434 -4.50469e-11 0)
(0.010434 -3.58533e-11 0)
(0.010434 -2.81322e-11 0)
(0.010434 -2.17408e-11 0)
(0.010434 -1.65243e-11 0)
(0.010434 -1.23272e-11 0)
(0.010434 -8.99962e-12 0)
(0.010434 -6.40255e-12 0)
(0.010434 -4.41516e-12 0)
(0.010434 -2.92448e-12 0)
(0.010434 -1.84976e-12 0)
(0.010434 -1.10124e-12 0)
(0.010434 -6.43322e-13 0)
(0.010434 -4.57093e-13 0)
(0.010434 -3.80898e-13 0)
(0.010434 -1.16816e-12 0)
(0.010434 -9.85263e-13 0)
(-6.77868e-05 7.39428e-05 0)
(-0.000495264 0.000275614 0)
(-0.00115212 0.000421435 0)
(-0.00189301 0.000492553 0)
(-0.002683 0.000544943 0)
(-0.00350923 0.000579819 0)
(-0.00435804 0.00061639 0)
(-0.00523495 0.000652266 0)
(-0.00613541 0.000693243 0)
(-0.00706445 0.000738902 0)
(-0.00802105 0.000790773 0)
(-0.00900645 0.000848131 0)
(-0.0100177 0.000910005 0)
(-0.0110504 0.000974236 0)
(-0.0120964 0.001038 0)
(-0.0131448 0.00109778 0)
(-0.0141814 0.00114963 0)
(-0.0151898 0.00118945 0)
(-0.0161516 0.00121324 0)
(-0.0170471 0.0012174 0)
(-0.0178563 0.00119898 0)
(-0.0185596 0.00115584 0)
(-0.0191383 0.00108673 0)
(-0.0195753 0.000991363 0)
(-0.0198553 0.000870313 0)
(-0.0199653 0.00072494 0)
(-0.0198947 0.000557251 0)
(-0.0196351 0.000369762 0)
(-0.0191807 0.000165364 0)
(-0.0185279 -5.27883e-05 0)
(-0.0176757 -0.00028137 0)
(-0.0166251 -0.000516954 0)
(-0.0153791 -0.000756061 0)
(-0.0139432 -0.000995191 0)
(-0.0123246 -0.00123085 0)
(-0.0105326 -0.00145954 0)
(-0.00857837 -0.00167781 0)
(-0.00647515 -0.00188223 0)
(-0.00423794 -0.00206941 0)
(-0.00188366 -0.00223604 0)
(0.000568882 -0.00237886 0)
(0.00309908 -0.00249477 0)
(0.0056845 -0.00258084 0)
(0.00830101 -0.00263438 0)
(0.0109229 -0.00265305 0)
(0.0135228 -0.00263495 0)
(0.0160725 -0.00257879 0)
(0.0185424 -0.00248394 0)
(0.0209027 -0.00235067 0)
(0.0231232 -0.00218024 0)
(0.0251742 -0.00197505 0)
(0.0270272 -0.00173875 0)
(0.0286551 -0.0014763 0)
(0.0300337 -0.00119398 0)
(0.0311418 -0.00089935 0)
(0.0319627 -0.000601057 0)
(0.0324853 -0.00030859 0)
(0.0327046 -3.1838e-05 0)
(0.0326234 0.000219509 0)
(0.0322531 0.00043677 0)
(0.0316145 0.000613265 0)
(0.0307375 0.000745372 0)
(0.0296603 0.000833393 0)
(0.0284277 0.000881782 0)
(0.0270882 0.000898341 0)
(0.0256909 0.000892351 0)
(0.0242821 0.000872255 0)
(0.0229024 0.000843974 0)
(0.0215836 0.000810652 0)
(0.0203475 0.000773648 0)
(0.0192057 0.000733794 0)
(0.0181627 0.000692004 0)
(0.0172186 0.000649106 0)
(0.0163723 0.000605382 0)
(0.0156235 0.000560259 0)
(0.0149731 0.000512314 0)
(0.014423 0.00045954 0)
(0.0139761 0.000399786 0)
(0.0136356 0.000331242 0)
(0.0134051 0.000252831 0)
(0.0132879 0.000164416 0)
(0.0132865 6.6799e-05 0)
(0.0134026 -3.84305e-05 0)
(0.0136361 -0.000149098 0)
(0.0139857 -0.000262649 0)
(0.0144478 -0.000376306 0)
(0.0150171 -0.000487194 0)
(0.0156863 -0.000592418 0)
(0.016446 -0.000689138 0)
(0.0172851 -0.000774623 0)
(0.0181902 -0.000846328 0)
(0.0191464 -0.000901976 0)
(0.0201371 -0.000939668 0)
(0.0211444 -0.000958017 0)
(0.0221493 -0.00095629 0)
(0.0231323 -0.000934539 0)
(0.0240746 -0.000893709 0)
(0.0249583 -0.00083567 0)
(0.0257677 -0.000763161 0)
(0.0264901 -0.000679632 0)
(0.0271168 -0.000588998 0)
(0.0276433 -0.000495327 0)
(0.0280694 -0.000402526 0)
(0.0283993 -0.000314054 0)
(0.0286403 -0.000232716 0)
(0.0288026 -0.000160543 0)
(0.028898 -9.87683e-05 0)
(0.0289387 -4.7881e-05 0)
(0.0289371 -7.7279e-06 0)
(0.0289044 2.23499e-05 0)
(0.0288507 4.33726e-05 0)
(0.0287846 5.65839e-05 0)
(0.0287129 6.33293e-05 0)
(0.0286411 6.49571e-05 0)
(0.0285729 6.27424e-05 0)
(0.028511 5.78352e-05 0)
(0.0284569 5.12274e-05 0)
(0.0284113 4.37392e-05 0)
(0.0283741 3.60174e-05 0)
(0.028345 2.85452e-05 0)
(0.0283232 2.16589e-05 0)
(0.0283077 1.55681e-05 0)
(0.0282975 1.03794e-05 0)
(0.0282917 6.11807e-06 0)
(0.0282892 2.75018e-06 0)
(0.0282892 2.01094e-07 0)
(0.028291 -1.62835e-06 0)
(0.0282939 -2.84891e-06 0)
(0.0282976 -3.57305e-06 0)
(0.0283015 -3.90786e-06 0)
(0.0283054 -3.95036e-06 0)
(0.0283091 -3.78489e-06 0)
(0.0283125 -3.48199e-06 0)
(0.0283155 -3.09852e-06 0)
(0.0283181 -2.67853e-06 0)
(0.0283202 -2.25466e-06 0)
(0.028322 -1.84979e-06 0)
(0.0283234 -1.47875e-06 0)
(0.0283245 -1.14999e-06 0)
(0.0283253 -8.67096e-07 0)
(0.0283259 -6.30098e-07 0)
(0.0283263 -4.36609e-07 0)
(0.0283266 -2.82704e-07 0)
(0.0283267 -1.63629e-07 0)
(0.0283268 -7.43217e-08 0)
(0.0283268 -9.78669e-09 0)
(0.0283268 3.46579e-08 0)
(0.0283267 6.32287e-08 0)
(0.0283267 7.9602e-08 0)
(0.0283266 8.68926e-08 0)
(0.0283265 8.76713e-08 0)
(0.0283264 8.40061e-08 0)
(0.0283264 7.75177e-08 0)
(0.0283263 6.94412e-08 0)
(0.0283262 6.0688e-08 0)
(0.0283262 5.19051e-08 0)
(0.0283262 4.35288e-08 0)
(0.0283261 3.58317e-08 0)
(0.0283261 2.89628e-08 0)
(0.0283261 2.2981e-08 0)
(0.0283261 1.7882e-08 0)
(0.028326 1.36193e-08 0)
(0.028326 1.0121e-08 0)
(0.028326 7.30141e-09 0)
(0.028326 5.07035e-09 0)
(0.028326 3.33893e-09 0)
(0.028326 2.02363e-09 0)
(0.028326 1.04861e-09 0)
(0.028326 3.46933e-10 0)
(0.028326 -1.39169e-10 0)
(0.028326 -4.58503e-10 0)
(0.028326 -6.51547e-10 0)
(0.028326 -7.51263e-10 0)
(0.028326 -7.84039e-10 0)
(0.028326 -7.70602e-10 0)
(0.028326 -7.26929e-10 0)
(0.028326 -6.65077e-10 0)
(0.028326 -5.93921e-10 0)
(0.028326 -5.19806e-10 0)
(0.028326 -4.4709e-10 0)
(0.028326 -3.78604e-10 0)
(0.028326 -3.16044e-10 0)
(0.028326 -2.60259e-10 0)
(0.028326 -2.11511e-10 0)
(0.028326 -1.69647e-10 0)
(0.028326 -1.34251e-10 0)
(0.028326 -1.04758e-10 0)
(0.028326 -8.05189e-11 0)
(0.028326 -6.08727e-11 0)
(0.028326 -4.51685e-11 0)
(0.028326 -3.2796e-11 0)
(0.028326 -2.32093e-11 0)
(0.028326 -1.59134e-11 0)
(0.028326 -1.05095e-11 0)
(0.028326 -6.59863e-12 0)
(0.028326 -3.99512e-12 0)
(0.028326 -2.42584e-12 0)
(0.028326 -1.50302e-12 0)
(0.028326 -3.06546e-12 0)
(0.028326 -2.78953e-12 0)
(-0.000173056 0.000541749 0)
(-0.00101478 0.00109813 0)
(-0.00213539 0.00141545 0)
(-0.00331114 0.00153592 0)
(-0.00448474 0.00162044 0)
(-0.0056452 0.00166874 0)
(-0.00677254 0.00171972 0)
(-0.00787473 0.00176783 0)
(-0.00894507 0.00182181 0)
(-0.00998755 0.00187917 0)
(-0.010998 0.00193984 0)
(-0.0119738 0.00200014 0)
(-0.0129076 0.00205596 0)
(-0.0137906 0.00210191 0)
(-0.0146109 0.00213224 0)
(-0.0153554 0.00214107 0)
(-0.0160094 0.00212291 0)
(-0.0165577 0.00207295 0)
(-0.0169854 0.00198734 0)
(-0.0172779 0.00186339 0)
(-0.0174221 0.00169963 0)
(-0.0174062 0.0014958 0)
(-0.0172201 0.00125278 0)
(-0.0168554 0.000972461 0)
(-0.0163059 0.000657597 0)
(-0.0155667 0.000311627 0)
(-0.0146352 -6.14808e-05 0)
(-0.0135099 -0.000457367 0)
(-0.0121913 -0.000871403 0)
(-0.0106812 -0.00129878 0)
(-0.00898293 -0.00173456 0)
(-0.00710129 -0.00217374 0)
(-0.00504249 -0.00261125 0)
(-0.00281419 -0.00304199 0)
(-0.000425548 -0.00346079 0)
(0.00211279 -0.00386247 0)
(0.00478864 -0.0042418 0)
(0.00758821 -0.00459352 0)
(0.0104961 -0.00491237 0)
(0.0134953 -0.00519308 0)
(0.0165671 -0.00543041 0)
(0.0196911 -0.00561925 0)
(0.0228453 -0.00575466 0)
(0.026006 -0.00583202 0)
(0.0291481 -0.00584714 0)
(0.032245 -0.00579643 0)
(0.0352692 -0.00567712 0)
(0.0381923 -0.00548747 0)
(0.0409853 -0.00522696 0)
(0.0436194 -0.00489652 0)
(0.0460659 -0.00449873 0)
(0.0482973 -0.00403793 0)
(0.0502872 -0.00352033 0)
(0.0520111 -0.00295402 0)
(0.0534465 -0.00234896 0)
(0.0545734 -0.00171687 0)
(0.0553747 -0.00107109 0)
(0.0558362 -0.00042641 0)
(0.0559475 0.00020117 0)
(0.0557023 0.000794796 0)
(0.0550998 0.00133729 0)
(0.0541461 0.001812 0)
(0.0528559 0.00220394 0)
(0.0512549 0.00250138 0)
(0.0493817 0.00269741 0)
(0.0472881 0.00279154 0)
(0.0450384 0.00279082 0)
(0.0427052 0.00271001 0)
(0.0403634 0.00257009 0)
(0.0380833 0.00239462 0)
(0.0359243 0.00220486 0)
(0.0339317 0.00201535 0)
(0.0321348 0.00183217 0)
(0.0305479 0.0016544 0)
(0.0291732 0.00147744 0)
(0.0280051 0.00129623 0)
(0.0270344 0.00110696 0)
(0.0262512 0.000907462 0)
(0.0256474 0.000696921 0)
(0.0252162 0.000475522 0)
(0.0249523 0.000244261 0)
(0.0248505 4.89075e-06 0)
(0.0249056 -0.000240113 0)
(0.0251116 -0.00048761 0)
(0.0254621 -0.000733901 0)
(0.0259494 -0.000974849 0)
(0.0265652 -0.00120601 0)
(0.0272997 -0.00142275 0)
(0.0281423 -0.00162033 0)
(0.0290809 -0.00179405 0)
(0.0301021 -0.00193929 0)
(0.031191 -0.00205171 0)
(0.0323309 -0.00212741 0)
(0.0335037 -0.00216322 0)
(0.0346897 -0.00215698 0)
(0.035868 -0.00210798 0)
(0.0370168 -0.00201724 0)
(0.0381143 -0.00188783 0)
(0.0391397 -0.00172494 0)
(0.0400744 -0.00153567 0)
(0.0409032 -0.00132869 0)
(0.0416153 -0.00111343 0)
(0.0422053 -0.000899348 0)
(0.0426735 -0.000695052 0)
(0.0430252 -0.000507637 0)
(0.0432707 -0.000342246 0)
(0.0434234 -0.00020193 0)
(0.0434986 -8.77584e-05 0)
(0.0435127 8.74749e-07 0)
(0.0434811 6.58511e-05 0)
(0.0434182 0.000109905 0)
(0.043336 0.000136239 0)
(0.0432447 0.000148205 0)
(0.0431519 0.000149058 0)
(0.0430633 0.000141797 0)
(0.0429825 0.000129053 0)
(0.0429119 0.000113038 0)
(0.0428523 9.55363e-05 0)
(0.0428038 7.79174e-05 0)
(0.0427659 6.11732e-05 0)
(0.0427376 4.59666e-05 0)
(0.0427174 3.26861e-05 0)
(0.0427042 2.15004e-05 0)
(0.0426965 1.24122e-05 0)
(0.0426932 5.30496e-06 0)
(0.042693 -1.50827e-08 0)
(0.0426951 -3.78535e-06 0)
(0.0426987 -6.26012e-06 0)
(0.0427031 -7.69068e-06 0)
(0.0427078 -8.31154e-06 0)
(0.0427126 -8.33184e-06 0)
(0.0427171 -7.93087e-06 0)
(0.0427211 -7.25678e-06 0)
(0.0427248 -6.42754e-06 0)
(0.0427279 -5.53346e-06 0)
(0.0427304 -4.64059e-06 0)
(0.0427325 -3.7945e-06 0)
(0.0427342 -3.02408e-06 0)
(0.0427355 -2.34514e-06 0)
(0.0427364 -1.76367e-06 0)
(0.0427371 -1.2786e-06 0)
(0.0427376 -8.841e-07 0)
(0.0427379 -5.71414e-07 0)
(0.0427381 -3.3029e-07 0)
(0.0427381 -1.50013e-07 0)
(0.0427382 -2.01387e-08 0)
(0.0427381 6.90286e-08 0)
(0.042738 1.26158e-07 0)
(0.042738 1.58758e-07 0)
(0.0427379 1.73161e-07 0)
(0.0427378 1.74563e-07 0)
(0.0427377 1.67128e-07 0)
(0.0427376 1.54106e-07 0)
(0.0427375 1.37964e-07 0)
(0.0427375 1.20514e-07 0)
(0.0427374 1.03038e-07 0)
(0.0427374 8.63951e-08 0)
(0.0427373 7.11206e-08 0)
(0.0427373 5.7503e-08 0)
(0.0427373 4.56533e-08 0)
(0.0427373 3.5558e-08 0)
(0.0427372 2.71216e-08 0)
(0.0427372 2.01989e-08 0)
(0.0427372 1.46187e-08 0)
(0.0427372 1.02014e-08 0)
(0.0427372 6.77062e-09 0)
(0.0427372 4.16101e-09 0)
(0.0427372 2.22277e-09 0)
(0.0427372 8.23814e-10 0)
(0.0427372 -1.49693e-10 0)
(0.0427372 -7.93858e-10 0)
(0.0427372 -1.18833e-09 0)
(0.0427372 -1.39798e-09 0)
(0.0427372 -1.47467e-09 0)
(0.0427372 -1.45921e-09 0)
(0.0427372 -1.38304e-09 0)
(0.0427372 -1.26991e-09 0)
(0.0427372 -1.13736e-09 0)
(0.0427372 -9.97917e-10 0)
(0.0427372 -8.60251e-10 0)
(0.0427372 -7.30026e-10 0)
(0.0427372 -6.10668e-10 0)
(0.0427372 -5.0395e-10 0)
(0.0427372 -4.10465e-10 0)
(0.0427372 -3.3001e-10 0)
(0.0427372 -2.61846e-10 0)
(0.0427372 -2.0493e-10 0)
(0.0427372 -1.58059e-10 0)
(0.0427372 -1.19975e-10 0)
(0.0427372 -8.94532e-11 0)
(0.0427372 -6.53364e-11 0)
(0.0427372 -4.65744e-11 0)
(0.0427372 -3.2231e-11 0)
(0.0427372 -2.15013e-11 0)
(0.0427372 -1.36645e-11 0)
(0.0427372 -8.24128e-12 0)
(0.0427372 -4.58699e-12 0)
(0.0427372 -2.58118e-12 0)
(0.0427372 -2.58161e-12 0)
(0.0427372 -2.1225e-12 0)
(-0.000314372 0.00116537 0)
(-0.00156484 0.00218381 0)
(-0.00297411 0.00266026 0)
(-0.00431076 0.00278413 0)
(-0.00549227 0.00283457 0)
(-0.00656501 0.00282467 0)
(-0.00751111 0.0028122 0)
(-0.00835942 0.00279359 0)
(-0.00910644 0.00278026 0)
(-0.00976249 0.00276892 0)
(-0.0103257 0.00275798 0)
(-0.0107963 0.00274187 0)
(-0.0111696 0.00271465 0)
(-0.0114405 0.00266946 0)
(-0.0116016 0.00259957 0)
(-0.0116452 0.00249857 0)
(-0.0115631 0.00236091 0)
(-0.011347 0.00218206 0)
(-0.0109895 0.00195879 0)
(-0.0104836 0.00168915 0)
(-0.00982326 0.00137254 0)
(-0.00900358 0.00100963 0)
(-0.0080206 0.000602209 0)
(-0.00687141 0.000153054 0)
(-0.00555414 -0.000334222 0)
(-0.00406785 -0.000855341 0)
(-0.00241259 -0.0014055 0)
(-0.000589328 -0.00197947 0)
(0.00139999 -0.00257175 0)
(0.00355242 -0.00317656 0)
(0.00586398 -0.00378792 0)
(0.00832955 -0.00439969 0)
(0.0109428 -0.00500556 0)
(0.0136962 -0.00559904 0)
(0.0165806 -0.0061735 0)
(0.0195856 -0.00672216 0)
(0.0226992 -0.00723809 0)
(0.0259078 -0.00771425 0)
(0.029196 -0.00814348 0)
(0.032547 -0.00851856 0)
(0.035942 -0.00883227 0)
(0.0393607 -0.00907746 0)
(0.0427813 -0.00924719 0)
(0.0461801 -0.00933487 0)
(0.0495325 -0.00933453 0)
(0.0528126 -0.00924099 0)
(0.0559938 -0.00905018 0)
(0.0590493 -0.00875945 0)
(0.0619524 -0.00836785 0)
(0.0646773 -0.0078764 0)
(0.0671995 -0.00728834 0)
(0.0694965 -0.00660917 0)
(0.0715476 -0.0058468 0)
(0.073335 -0.00501138 0)
(0.0748434 -0.00411517 0)
(0.0760597 -0.00317232 0)
(0.0769733 -0.00219855 0)
(0.0775756 -0.00121087 0)
(0.0778595 -0.000227264 0)
(0.077819 0.00073355 0)
(0.0774493 0.00165241 0)
(0.0767465 0.00250997 0)
(0.0757084 0.00328691 0)
(0.0743354 0.00396438 0)
(0.0726321 0.00452439 0)
(0.0706106 0.00495084 0)
(0.068293 0.00523093 0)
(0.065715 0.00535754 0)
(0.0629285 0.0053318 0)
(0.0600017 0.00516509 0)
(0.0570165 0.00487923 0)
(0.054062 0.00450408 0)
(0.0512254 0.00407296 0)
(0.0485823 0.00361686 0)
(0.0461899 0.0031594 0)
(0.0440833 0.00271404 0)
(0.0422768 0.00228446 0)
(0.0407681 0.00186761 0)
(0.0395437 0.0014576 0)
(0.0385842 0.00104906 0)
(0.0378684 0.000638877 0)
(0.0373759 0.000226684 0)
(0.0370883 -0.00018563 0)
(0.036989 -0.000594592 0)
(0.0370637 -0.000995764 0)
(0.0372987 -0.00138416 0)
(0.0376815 -0.00175446 0)
(0.0381995 -0.00210116 0)
(0.0388406 -0.00241859 0)
(0.0395921 -0.00270094 0)
(0.040441 -0.00294236 0)
(0.0413738 -0.00313701 0)
(0.042376 -0.00327928 0)
(0.0434322 -0.00336407 0)
(0.0445257 -0.00338722 0)
(0.0456384 -0.0033461 0)
(0.0467512 -0.00324017 0)
(0.047844 -0.00307162 0)
(0.0488962 -0.00284578 0)
(0.0498878 -0.00257129 0)
(0.0508002 -0.00225978 0)
(0.0516174 -0.00192516 0)
(0.0523272 -0.00158253 0)
(0.0529223 -0.00124677 0)
(0.0534004 -0.000931274 0)
(0.053765 -0.000646804 0)
(0.0540239 -0.000400818 0)
(0.0541891 -0.000197256 0)
(0.0542751 -3.67717e-05 0)
(0.0542977 8.26964e-05 0)
(0.0542726 0.000165194 0)
(0.0542142 0.000215984 0)
(0.0541355 0.000240859 0)
(0.0540467 0.000245599 0)
(0.0539561 0.000235585 0)
(0.0538695 0.000215557 0)
(0.0537909 0.000189497 0)
(0.0537225 0.000160599 0)
(0.0536653 0.0001313 0)
(0.0536193 0.000103357 0)
(0.0535837 7.79363e-05 0)
(0.0535575 5.57185e-05 0)
(0.0535393 3.70003e-05 0)
(0.0535277 2.17896e-05 0)
(0.0535214 9.89033e-06 0)
(0.0535191 9.75216e-07 0)
(0.0535197 -5.35608e-06 0)
(0.0535223 -9.53103e-06 0)
(0.0535262 -1.19708e-05 0)
(0.0535307 -1.30671e-05 0)
(0.0535354 -1.31681e-05 0)
(0.05354 -1.25715e-05 0)
(0.0535442 -1.15224e-05 0)
(0.053548 -1.02152e-05 0)
(0.0535514 -8.7985e-06 0)
(0.0535542 -7.38046e-06 0)
(0.0535565 -6.03552e-06 0)
(0.0535583 -4.8107e-06 0)
(0.0535597 -3.73167e-06 0)
(0.0535608 -2.80806e-06 0)
(0.0535616 -2.03811e-06 0)
(0.0535622 -1.41236e-06 0)
(0.0535625 -9.16725e-07 0)
(0.0535627 -5.34727e-07 0)
(0.0535629 -2.4921e-07 0)
(0.0535629 -4.34937e-08 0)
(0.0535629 9.78667e-08 0)
(0.0535628 1.88646e-07 0)
(0.0535627 2.4075e-07 0)
(0.0535626 2.6419e-07 0)
(0.0535625 2.6717e-07 0)
(0.0535625 2.56249e-07 0)
(0.0535624 2.36533e-07 0)
(0.0535623 2.11892e-07 0)
(0.0535622 1.85166e-07 0)
(0.0535622 1.58357e-07 0)
(0.0535621 1.32808e-07 0)
(0.0535621 1.09353e-07 0)
(0.0535621 8.84396e-08 0)
(0.053562 7.02426e-08 0)
(0.053562 5.47415e-08 0)
(0.053562 4.1789e-08 0)
(0.053562 3.11612e-08 0)
(0.053562 2.25942e-08 0)
(0.053562 1.58117e-08 0)
(0.053562 1.05422e-08 0)
(0.053562 6.53184e-09 0)
(0.053562 3.55044e-09 0)
(0.053562 1.3954e-09 0)
(0.053562 -1.07765e-10 0)
(0.053562 -1.10626e-09 0)
(0.053562 -1.72203e-09 0)
(0.053562 -2.0543e-09 0)
(0.053562 -2.18242e-09 0)
(0.053562 -2.16876e-09 0)
(0.053562 -2.0614e-09 0)
(0.053562 -1.89665e-09 0)
(0.053562 -1.70132e-09 0)
(0.053562 -1.4946e-09 0)
(0.053562 -1.28978e-09 0)
(0.053562 -1.09557e-09 0)
(0.053562 -9.17264e-10 0)
(0.053562 -7.57626e-10 0)
(0.053562 -6.17638e-10 0)
(0.053562 -4.97046e-10 0)
(0.053562 -3.94794e-10 0)
(0.053562 -3.09345e-10 0)
(0.053562 -2.38914e-10 0)
(0.053562 -1.81637e-10 0)
(0.053562 -1.35681e-10 0)
(0.053562 -9.93253e-11 0)
(0.053562 -7.09955e-11 0)
(0.053562 -4.9291e-11 0)
(0.053562 -3.29846e-11 0)
(0.053562 -2.10318e-11 0)
(0.053562 -1.25647e-11 0)
(0.053562 -6.77189e-12 0)
(0.053562 -3.3614e-12 0)
(0.053562 -1.26229e-12 0)
(0.053562 -7.33885e-13 0)
(-0.000419514 0.00242193 0)
(-0.00178683 0.00373377 0)
(-0.00310428 0.00414582 0)
(-0.00419476 0.00399825 0)
(-0.00497445 0.00383629 0)
(-0.00555354 0.0036401 0)
(-0.00592882 0.00347715 0)
(-0.00615746 0.00332764 0)
(-0.00624523 0.00319606 0)
(-0.00621332 0.00307332 0)
(-0.00606464 0.00295371 0)
(-0.00580484 0.00282902 0)
(-0.00543317 0.00269133 0)
(-0.00494894 0.00253262 0)
(-0.00434924 0.00234536 0)
(-0.00363109 0.00212287 0)
(-0.00279089 0.00185952 0)
(-0.00182523 0.00155099 0)
(-0.000730753 0.00119429 0)
(0.000495541 0.000787837 0)
(0.00185632 0.000331375 0)
(0.00335385 -0.000174115 0)
(0.00498997 -0.00072654 0)
(0.00676605 -0.00132283 0)
(0.00868295 -0.00195907 0)
(0.010741 -0.00263065 0)
(0.0129397 -0.00333236 0)
(0.0152781 -0.00405849 0)
(0.0177541 -0.00480288 0)
(0.0203648 -0.00555904 0)
(0.0231061 -0.00632007 0)
(0.0259729 -0.00707879 0)
(0.0289584 -0.00782764 0)
(0.0320547 -0.00855877 0)
(0.0352522 -0.00926399 0)
(0.0385394 -0.00993483 0)
(0.0419034 -0.0105626 0)
(0.0453293 -0.0111382 0)
(0.0488005 -0.0116527 0)
(0.0522985 -0.0120967 0)
(0.0558031 -0.012461 0)
(0.0592925 -0.0127362 0)
(0.0627432 -0.0129136 0)
(0.0661305 -0.0129846 0)
(0.0694288 -0.0129418 0)
(0.0726122 -0.0127786 0)
(0.0756549 -0.0124902 0)
(0.078532 -0.012074 0)
(0.0812205 -0.0115294 0)
(0.0836998 -0.0108588 0)
(0.0859528 -0.0100672 0)
(0.0879659 -0.00916287 0)
(0.0897293 -0.00815646 0)
(0.0912374 -0.00706128 0)
(0.0924876 -0.00589264 0)
(0.0934806 -0.00466744 0)
(0.0942187 -0.00340366 0)
(0.0947054 -0.00211998 0)
(0.0949443 -0.000835393 0)
(0.0949382 0.000431003 0)
(0.0946886 0.00166015 0)
(0.094195 0.00283313 0)
(0.0934552 0.0039312 0)
(0.092465 0.00493583 0)
(0.0912189 0.00582887 0)
(0.0897115 0.00659263 0)
(0.087938 0.00721037 0)
(0.0858973 0.00766697 0)
(0.0835948 0.00795015 0)
(0.0810457 0.00805209 0)
(0.0782794 0.00797127 0)
(0.0753417 0.00771423 0)
(0.0722956 0.00729677 0)
(0.0692179 0.00674381 0)
(0.0661932 0.00608753 0)
(0.0633051 0.00536347 0)
(0.0606268 0.00460564 0)
(0.0582141 0.00384209 0)
(0.0561017 0.00309227 0)
(0.0543041 0.00236695 0)
(0.0528185 0.00167005 0)
(0.0516302 0.00100147 0)
(0.0507175 0.000359756 0)
(0.0500556 -0.000256094 0)
(0.0496195 -0.000845687 0)
(0.0493854 -0.00140704 0)
(0.0493314 -0.00193678 0)
(0.0494375 -0.00243047 0)
(0.0496854 -0.00288287 0)
(0.0500581 -0.00328824 0)
(0.0505399 -0.00364046 0)
(0.0511153 -0.00393316 0)
(0.0517696 -0.00415999 0)
(0.0524881 -0.00431485 0)
(0.0532562 -0.00439237 0)
(0.0540592 -0.00438852 0)
(0.054882 -0.00430136 0)
(0.0557095 -0.00413179 0)
(0.0565266 -0.00388429 0)
(0.0573182 -0.00356733 0)
(0.0580699 -0.00319331 0)
(0.0587684 -0.00277808 0)
(0.0594018 -0.00233984 0)
(0.0599607 -0.00189768 0)
(0.0604384 -0.00147 0)
(0.0608316 -0.00107289 0)
(0.0611406 -0.000719018 0)
(0.0613691 -0.000416796 0)
(0.0615242 -0.000170281 0)
(0.0616152 2.05171e-05 0)
(0.0616531 0.000158925 0)
(0.0616494 0.00025068 0)
(0.0616154 0.000302975 0)
(0.0615613 0.000323575 0)
(0.0614961 0.000320124 0)
(0.0614268 0.000299637 0)
(0.0613588 0.000268196 0)
(0.0612958 0.000230804 0)
(0.0612403 0.000191374 0)
(0.0611932 0.000152793 0)
(0.061155 0.000117041 0)
(0.0611252 8.53404e-05 0)
(0.061103 5.83056e-05 0)
(0.0610875 3.60879e-05 0)
(0.0610774 1.85072e-05 0)
(0.0610718 5.16357e-06 0)
(0.0610695 -4.4708e-06 0)
(0.0610697 -1.09804e-05 0)
(0.0610716 -1.49531e-05 0)
(0.0610746 -1.69434e-05 0)
(0.0610781 -1.74494e-05 0)
(0.0610818 -1.69e-05 0)
(0.0610854 -1.56509e-05 0)
(0.0610888 -1.39867e-05 0)
(0.0610919 -1.21259e-05 0)
(0.0610945 -1.02294e-05 0)
(0.0610967 -8.40912e-06 0)
(0.0610985 -6.73724e-06 0)
(0.0611 -5.2547e-06 0)
(0.0611011 -3.97896e-06 0)
(0.0611019 -2.91053e-06 0)
(0.0611026 -2.03849e-06 0)
(0.061103 -1.34482e-06 0)
(0.0611033 -8.07732e-07 0)
(0.0611034 -4.04132e-07 0)
(0.0611035 -1.1134e-07 0)
(0.0611035 9.17885e-08 0)
(0.0611035 2.24203e-07 0)
(0.0611035 3.02341e-07 0)
(0.0611034 3.40068e-07 0)
(0.0611033 3.48775e-07 0)
(0.0611033 3.37592e-07 0)
(0.0611032 3.13648e-07 0)
(0.0611031 2.82362e-07 0)
(0.0611031 2.47723e-07 0)
(0.061103 2.12564e-07 0)
(0.061103 1.78797e-07 0)
(0.0611029 1.47625e-07 0)
(0.0611029 1.19715e-07 0)
(0.0611029 9.53478e-08 0)
(0.0611029 7.45312e-08 0)
(0.0611029 5.70928e-08 0)
(0.0611029 4.27497e-08 0)
(0.0611028 3.11606e-08 0)
(0.0611028 2.19624e-08 0)
(0.0611028 1.47968e-08 0)
(0.0611028 9.3261e-09 0)
(0.0611028 5.2435e-09 0)
(0.0611028 2.27799e-09 0)
(0.0611028 1.95632e-10 0)
(0.0611028 -1.20133e-09 0)
(0.0611028 -2.07698e-09 0)
(0.0611028 -2.56513e-09 0)
(0.0611028 -2.77295e-09 0)
(0.0611028 -2.78483e-09 0)
(0.0611028 -2.666e-09 0)
(0.0611028 -2.46584e-09 0)
(0.0611028 -2.22092e-09 0)
(0.0611028 -1.95757e-09 0)
(0.0611028 -1.69408e-09 0)
(0.0611028 -1.44258e-09 0)
(0.0611028 -1.21055e-09 0)
(0.0611028 -1.00202e-09 0)
(0.0611028 -8.18602e-10 0)
(0.0611028 -6.60174e-10 0)
(0.0611028 -5.25527e-10 0)
(0.0611028 -4.12761e-10 0)
(0.0611028 -3.19619e-10 0)
(0.0611028 -2.43715e-10 0)
(0.0611028 -1.82683e-10 0)
(0.0611028 -1.34288e-10 0)
(0.0611028 -9.64752e-11 0)
(0.0611028 -6.74089e-11 0)
(0.0611028 -4.54866e-11 0)
(0.0611028 -2.93181e-11 0)
(0.0611028 -1.77267e-11 0)
(0.0611028 -9.71666e-12 0)
(0.0611028 -4.58555e-12 0)
(0.0611028 -8.01566e-13 0)
(0.0611028 -2.75095e-14 0)
(-0.000710549 0.00306633 0)
(-0.00214909 0.00468449 0)
(-0.00261568 0.00495874 0)
(-0.00281747 0.00458019 0)
(-0.00257136 0.00418099 0)
(-0.00220122 0.00378248 0)
(-0.00164546 0.00344083 0)
(-0.000987735 0.00313889 0)
(-0.000216274 0.00287055 0)
(0.000647356 0.0026239 0)
(0.00160563 0.00238768 0)
(0.00265396 0.00215156 0)
(0.00379422 0.00190523 0)
(0.00502691 0.00163963 0)
(0.00635428 0.00134632 0)
(0.00777826 0.00101813 0)
(0.00930118 0.000649019 0)
(0.0109252 0.000234317 0)
(0.0126526 -0.000229294 0)
(0.0144854 -0.000743742 0)
(0.0164256 -0.00130963 0)
(0.0184748 -0.00192628 0)
(0.0206348 -0.00259184 0)
(0.0229065 -0.00330339 0)
(0.0252907 -0.00405701 0)
(0.0277875 -0.00484792 0)
(0.0303962 -0.00567056 0)
(0.033115 -0.00651866 0)
(0.0359414 -0.00738535 0)
(0.0388713 -0.00826318 0)
(0.0418995 -0.00914418 0)
(0.0450193 -0.0100199 0)
(0.0482225 -0.0108812 0)
(0.0514991 -0.0117187 0)
(0.0548374 -0.0125224 0)
(0.0582236 -0.0132818 0)
(0.0616421 -0.0139861 0)
(0.0650752 -0.0146241 0)
(0.0685032 -0.0151846 0)
(0.0719047 -0.015656 0)
(0.075256 -0.0160267 0)
(0.0785324 -0.0162854 0)
(0.0817076 -0.0164213 0)
(0.0847547 -0.0164243 0)
(0.0876468 -0.0162856 0)
(0.0903582 -0.0159987 0)
(0.0928651 -0.0155591 0)
(0.0951475 -0.0149656 0)
(0.0971895 -0.0142205 0)
(0.0989809 -0.0133296 0)
(0.100518 -0.0123026 0)
(0.101802 -0.0111525 0)
(0.102841 -0.00989523 0)
(0.103648 -0.00854907 0)
(0.104239 -0.00713356 0)
(0.104634 -0.00566891 0)
(0.10485 -0.00417523 0)
(0.104908 -0.002672 0)
(0.104822 -0.00117772 0)
(0.104606 0.00029021 0)
(0.104269 0.00171542 0)
(0.103816 0.00308239 0)
(0.103246 0.00437613 0)
(0.102555 0.00558186 0)
(0.101734 0.00668475 0)
(0.100772 0.00766973 0)
(0.0996541 0.00852155 0)
(0.098365 0.00922505 0)
(0.0968898 0.00976583 0)
(0.095216 0.0101311 0)
(0.0933364 0.0103108 0)
(0.091252 0.0102989 0)
(0.0889746 0.0100948 0)
(0.0865296 0.00970464 0)
(0.0839571 0.00914229 0)
(0.0813102 0.00842923 0)
(0.0786526 0.00759358 0)
(0.076052 0.0066678 0)
(0.0735736 0.00568554 0)
(0.071274 0.00467834 0)
(0.0691961 0.00367298 0)
(0.0673671 0.00269009 0)
(0.065799 0.00174405 0)
(0.0644906 0.000843998 0)
(0.0634311 -4.64701e-06 0)
(0.062603 -0.000798583 0)
(0.0619852 -0.00153535 0)
(0.0615548 -0.00221244 0)
(0.0612891 -0.00282683 0)
(0.0611657 -0.00337475 0)
(0.0611635 -0.0038517 0)
(0.0612629 -0.00425259 0)
(0.0614453 -0.00457195 0)
(0.0616936 -0.00480431 0)
(0.0619924 -0.00494472 0)
(0.0623273 -0.0049894 0)
(0.0626857 -0.00493654 0)
(0.0630565 -0.00478721 0)
(0.0634303 -0.00454606 0)
(0.0637992 -0.00422186 0)
(0.0641568 -0.00382756 0)
(0.0644979 -0.00337976 0)
(0.064818 -0.0028978 0)
(0.065113 -0.00240229 0)
(0.0653794 -0.0019136 0)
(0.0656138 -0.00145026 0)
(0.0658135 -0.00102768 0)
(0.0659767 -0.000657243 0)
(0.0661028 -0.000345883 0)
(0.0661931 -9.61404e-05 0)
(0.0662499 9.33659e-05 0)
(0.0662773 0.000227172 0)