/*--------------------------------*- C++ -*----------------------------------*\
| =========                 |                                                 |
| \\      /  F ield         | OpenFOAM: The Open Source CFD Toolbox           |
|  \\    /   O peration     | Version:  4.1                                   |
|   \\  /    A nd           | Web:      www.OpenFOAM.org                      |
|    \\/     M anipulation  |                                                 |
\*---------------------------------------------------------------------------*/
FoamFile
{
    version     2.0;
    format      ascii;
    class       volVectorField;
    location    "106";
    object      U;
}
// * * * * * * * * * * * * * * * * * * * * * * * * * * * * * * * * * * * * * //

dimensions      [0 1 -1 0 0 0 0];

internalField   nonuniform List<vector> 
3264
(
(8.82717e-05 -0.000103484 0)
(0.000187635 -8.49041e-05 0)
(9.82353e-05 -5.13524e-05 0)
(-0.000156267 -2.48733e-05 0)
(-0.00056293 8.60594e-07 0)
(-0.00110269 2.78579e-05 0)
(-0.00175769 6.14666e-05 0)
(-0.00251484 9.99233e-05 0)
(-0.0033581 0.000142474 0)
(-0.00427508 0.00018638 0)
(-0.00525089 0.000229908 0)
(-0.00627127 0.000271243 0)
(-0.00731994 0.000308971 0)
(-0.00837974 0.000341699 0)
(-0.00943193 0.000368143 0)
(-0.0104568 0.000387137 0)
(-0.0114341 0.000397731 0)
(-0.0123433 0.000399264 0)
(-0.0131648 0.000391402 0)
(-0.01388 0.00037415 0)
(-0.0144721 0.00034783 0)
(-0.0149264 0.00031304 0)
(-0.0152307 0.000270607 0)
(-0.0153755 0.000221546 0)
(-0.0153543 0.000167014 0)
(-0.0151633 0.000108285 0)
(-0.0148019 4.67226e-05 0)
(-0.0142724 -1.62436e-05 0)
(-0.0135801 -7.9135e-05 0)
(-0.0127333 -0.000140445 0)
(-0.0117434 -0.000198661 0)
(-0.0106243 -0.000252289 0)
(-0.009393 -0.000299893 0)
(-0.0080689 -0.000340129 0)
(-0.00667379 -0.000371806 0)
(-0.00523149 -0.000393945 0)
(-0.00376733 -0.000405853 0)
(-0.00230764 -0.000407203 0)
(-0.000878936 -0.00039811 0)
(0.000493001 -0.000379191 0)
(0.00178412 -0.000351593 0)
(0.00297323 -0.000316966 0)
(0.00404304 -0.000277366 0)
(0.00498108 -0.000235086 0)
(0.00578039 -0.000192418 0)
(0.0064398 -0.000151403 0)
(0.00696391 -0.000113618 0)
(0.00736259 -8.01012e-05 0)
(0.00765019 -5.14159e-05 0)
(0.00784448 -2.78582e-05 0)
(0.00796545 -9.67034e-06 0)
(0.008034 2.8594e-06 0)
(0.00807084 9.47083e-06 0)
(0.00809536 1.01202e-05 0)
(0.00812495 5.15269e-06 0)
(0.0081742 -4.64352e-06 0)
(0.00825445 -1.81101e-05 0)
(0.00837317 -3.38547e-05 0)
(0.00853368 -5.03823e-05 0)
(0.00873501 -6.62077e-05 0)
(0.00897222 -7.99685e-05 0)
(0.00923711 -9.05562e-05 0)
(0.00951933 -9.72456e-05 0)
(0.00980771 -9.97807e-05 0)
(0.0100916 -9.83781e-05 0)
(0.0103619 -9.36416e-05 0)
(0.0106118 -8.64129e-05 0)
(0.0108369 -7.76067e-05 0)
(0.0110352 -6.80707e-05 0)
(0.0112064 -5.84968e-05 0)
(0.0113519 -4.93851e-05 0)
(0.0114735 -4.10502e-05 0)
(0.011574 -3.36529e-05 0)
(0.0116559 -2.72396e-05 0)
(0.011722 -2.17816e-05 0)
(0.0117746 -1.72061e-05 0)
(0.0118161 -1.34193e-05 0)
(0.0118483 -1.03215e-05 0)
(0.0118729 -7.81508e-06 0)
(0.0118915 -5.80995e-06 0)
(0.0119052 -4.22489e-06 0)
(0.0119151 -2.98821e-06 0)
(0.0119221 -2.03744e-06 0)
(0.0119268 -1.31874e-06 0)
(0.0119297 -7.86125e-07 0)
(0.0119315 -4.0075e-07 0)
(0.0119323 -1.30176e-07 0)
(0.0119325 5.23593e-08 0)
(0.0119323 1.68634e-07 0)
(0.0119318 2.36115e-07 0)
(0.0119312 2.68592e-07 0)
(0.0119305 2.7677e-07 0)
(0.0119299 2.68803e-07 0)
(0.0119292 2.50779e-07 0)
(0.0119286 2.27137e-07 0)
(0.0119281 2.01019e-07 0)
(0.0119276 1.74576e-07 0)
(0.0119272 1.49208e-07 0)
(0.0119268 1.2576e-07 0)
(0.0119265 1.0468e-07 0)
(0.0119263 8.61405e-08 0)
(0.0119261 7.01249e-08 0)
(0.0119259 5.64998e-08 0)
(0.0119258 4.50625e-08 0)
(0.0119257 3.55768e-08 0)
(0.0119256 2.77964e-08 0)
(0.0119255 2.14811e-08 0)
(0.0119255 1.64065e-08 0)
(0.0119254 1.2369e-08 0)
(0.0119254 9.18852e-09 0)
(0.0119254 6.70876e-09 0)
(0.0119254 4.79609e-09 0)
(0.0119253 3.3379e-09 0)
(0.0119253 2.24043e-09 0)
(0.0119253 1.42648e-09 0)
(0.0119253 8.33121e-10 0)
(0.0119253 4.09585e-10 0)
(0.0119253 1.1528e-10 0)
(0.0119253 -8.19349e-11 0)
(0.0119253 -2.07261e-10 0)
(0.0119253 -2.80269e-10 0)
(0.0119253 -3.15996e-10 0)
(0.0119253 -3.25869e-10 0)
(0.0119253 -3.1845e-10 0)
(0.0119253 -3.00069e-10 0)
(0.0119253 -2.75326e-10 0)
(0.0119253 -2.47488e-10 0)
(0.0119253 -2.18823e-10 0)
(0.0119253 -1.90841e-10 0)
(0.0119253 -1.64499e-10 0)
(0.0119253 -1.40349e-10 0)
(0.0119253 -1.18654e-10 0)
(0.0119253 -9.94829e-11 0)
(0.0119253 -8.27706e-11 0)
(0.0119253 -6.83708e-11 0)
(0.0119253 -5.60906e-11 0)
(0.0119253 -4.57119e-11 0)
(0.0119253 -3.70122e-11 0)
(0.0119253 -2.97747e-11 0)
(0.0119253 -2.37961e-11 0)
(0.0119253 -1.88928e-11 0)
(0.0119253 -1.48951e-11 0)
(0.0119253 -1.16584e-11 0)
(0.0119253 -9.05617e-12 0)
(0.0119253 -6.97641e-12 0)
(0.0119253 -5.32636e-12 0)
(0.0119253 -4.02367e-12 0)
(0.0119253 -3.00341e-12 0)
(0.0119253 -2.21049e-12 0)
(0.0119253 -1.59824e-12 0)
(0.0119253 -1.13094e-12 0)
(0.0119253 -7.76098e-13 0)
(0.0119253 -5.10505e-13 0)
(0.0119253 -3.13851e-13 0)
(0.0119253 -1.71724e-13 0)
(0.0119253 -7.15335e-14 0)
(0.0119253 -3.28069e-15 0)
(0.0119253 4.16173e-14 0)
(0.0119253 6.73773e-14 0)
(0.0119253 8.00088e-14 0)
(0.0119253 8.35421e-14 0)
(0.0119253 8.21168e-14 0)
(0.0119253 7.88448e-14 0)
(0.0119253 7.38551e-14 0)
(0.0119253 6.80918e-14 0)
(0.0119253 6.19205e-14 0)
(0.0119253 5.68115e-14 0)
(0.0119253 5.20729e-14 0)
(0.0119253 4.72712e-14 0)
(0.0119253 4.15175e-14 0)
(0.0119253 3.53191e-14 0)
(0.0119253 2.98599e-14 0)
(0.0119253 2.54318e-14 0)
(0.0119253 2.1223e-14 0)
(0.0119253 1.65039e-14 0)
(0.0119253 1.19505e-14 0)
(0.0119253 7.89143e-15 0)
(0.0119253 4.04793e-15 0)
(0.0119253 3.33976e-16 0)
(0.0119253 -3.66359e-15 0)
(0.0119253 -7.23993e-15 0)
(0.0119253 -1.05151e-14 0)
(0.0119253 -1.22796e-14 0)
(0.0119253 -1.28695e-14 0)
(0.0119253 -1.21972e-14 0)
(0.0119253 -1.10393e-14 0)
(0.0119253 -8.10721e-15 0)
(0.0119253 -4.75174e-15 0)
(0.0119253 -1.05694e-15 0)
(0.0119253 3.99529e-15 0)
(0.0119253 1.02058e-14 0)
(0.0119253 1.43499e-14 0)
(0.0119253 2.13558e-14 0)
(0.0119253 1.10633e-16 0)
(0.0119253 -1.59707e-14 0)
(0.0119253 -1.4712e-13 0)
(0.0119253 -3.96701e-13 0)
(0.0119253 -6.50012e-13 0)
(0.0119253 -2.83715e-12 0)
(0.0119253 -1.94339e-12 0)
(-4.07387e-05 -0.000167759 0)
(-0.000530904 8.28405e-05 0)
(-0.001472 0.000420857 0)
(-0.00271565 0.00072577 0)
(-0.00420744 0.00100049 0)
(-0.00586939 0.00123049 0)
(-0.00762821 0.00142314 0)
(-0.00942918 0.00157592 0)
(-0.0112242 0.00169475 0)
(-0.0129796 0.0017812 0)
(-0.0146654 0.00183729 0)
(-0.0162573 0.00186299 0)
(-0.0177321 0.00185773 0)
(-0.019069 0.00182056 0)
(-0.0202481 0.00175072 0)
(-0.0212511 0.00164798 0)
(-0.0220616 0.00151285 0)
(-0.0226651 0.00134665 0)
(-0.0230495 0.00115145 0)
(-0.023205 0.000930005 0)
(-0.0231246 0.000685628 0)
(-0.0228037 0.000422057 0)
(-0.0222404 0.000143355 0)
(-0.0214356 -0.000146174 0)
(-0.0203928 -0.000442048 0)
(-0.0191181 -0.000739642 0)
(-0.0176204 -0.00103422 0)
(-0.0159115 -0.00132097 0)
(-0.0140057 -0.00159499 0)
(-0.0119204 -0.0018514 0)
(-0.00967558 -0.00208528 0)
(-0.00729434 -0.00229186 0)
(-0.00480248 -0.00246648 0)
(-0.00222858 -0.00260485 0)
(0.000396229 -0.0027031 0)
(0.00303854 -0.00275804 0)
(0.00566318 -0.00276739 0)
(0.00823383 -0.00273006 0)
(0.010714 -0.00264637 0)
(0.0130684 -0.00251834 0)
(0.0152639 -0.00234978 0)
(0.0172716 -0.00214634 0)
(0.0190683 -0.00191538 0)
(0.020638 -0.00166569 0)
(0.0219729 -0.00140709 0)
(0.0230741 -0.00114992 0)
(0.0239515 -0.000904459 0)
(0.0246227 -0.000680281 0)
(0.0251118 -0.000485518 0)
(0.0254474 -0.000326153 0)
(0.0256613 -0.000205479 0)
(0.0257866 -0.000123925 0)
(0.0258568 -7.93931e-05 0)
(0.025904 -6.7994e-05 0)
(0.0259574 -8.48179e-05 0)
(0.0260416 -0.000124389 0)
(0.026175 -0.000180728 0)
(0.0263693 -0.000247269 0)
(0.0266288 -0.000316961 0)
(0.0269506 -0.0003827 0)
(0.0273256 -0.000438043 0)
(0.02774 -0.000478 0)
(0.0281768 -0.000499644 0)
(0.0286184 -0.00050238 0)
(0.0290485 -0.000487776 0)
(0.029454 -0.000459017 0)
(0.0298254 -0.000420151 0)
(0.0301574 -0.000375348 0)
(0.030448 -0.000328314 0)
(0.0306979 -0.000281966 0)
(0.0309097 -0.00023834 0)
(0.031087 -0.000198661 0)
(0.0312335 -0.000163506 0)
(0.0313534 -0.000132991 0)
(0.0314505 -0.000106937 0)
(0.0315282 -8.49929e-05 0)
(0.0315898 -6.67322e-05 0)
(0.0316378 -5.17054e-05 0)
(0.0316748 -3.94749e-05 0)
(0.0317029 -2.96321e-05 0)
(0.0317237 -2.1805e-05 0)
(0.0317389 -1.56612e-05 0)
(0.0317496 -1.0907e-05 0)
(0.031757 -7.28688e-06 0)
(0.0317617 -4.58039e-06 0)
(0.0317646 -2.60015e-06 0)
(0.0317661 -1.18879e-06 0)
(0.0317667 -2.15959e-07 0)
(0.0317666 4.24741e-07 0)
(0.0317661 8.18881e-07 0)
(0.0317654 1.03421e-06 0)
(0.0317646 1.12349e-06 0)
(0.0317637 1.12709e-06 0)
(0.0317628 1.07532e-06 0)
(0.031762 9.9046e-07 0)
(0.0317613 8.88467e-07 0)
(0.0317606 7.80439e-07 0)
(0.0317601 6.73788e-07 0)
(0.0317596 5.7319e-07 0)
(0.0317592 4.81339e-07 0)
(0.0317588 3.99524e-07 0)
(0.0317585 3.28076e-07 0)
(0.0317583 2.66697e-07 0)
(0.0317581 2.14707e-07 0)
(0.031758 1.71213e-07 0)
(0.0317578 1.35233e-07 0)
(0.0317577 1.05776e-07 0)
(0.0317577 8.18943e-08 0)
(0.0317576 6.27159e-08 0)
(0.0317576 4.74571e-08 0)
(0.0317575 3.54299e-08 0)
(0.0317575 2.60407e-08 0)
(0.0317575 1.87844e-08 0)
(0.0317575 1.32368e-08 0)
(0.0317575 9.04577e-09 0)
(0.0317575 5.92169e-09 0)
(0.0317575 3.62898e-09 0)
(0.0317575 1.97762e-09 0)
(0.0317575 8.15758e-10 0)
(0.0317575 2.30846e-11 0)
(0.0317575 -4.94827e-10 0)
(0.0317575 -8.11419e-10 0)
(0.0317575 -9.83242e-10 0)
(0.0317575 -1.05339e-09 0)
(0.0317575 -1.0543e-09 0)
(0.0317575 -1.01007e-09 0)
(0.0317575 -9.38342e-10 0)
(0.0317575 -8.51767e-10 0)
(0.0317575 -7.59225e-10 0)
(0.0317575 -6.66745e-10 0)
(0.0317575 -5.78245e-10 0)
(0.0317575 -4.96106e-10 0)
(0.0317575 -4.216e-10 0)
(0.0317575 -3.55234e-10 0)
(0.0317575 -2.96985e-10 0)
(0.0317575 -2.4649e-10 0)
(0.0317575 -2.03188e-10 0)
(0.0317575 -1.66402e-10 0)
(0.0317575 -1.35417e-10 0)
(0.0317575 -1.09519e-10 0)
(0.0317575 -8.80239e-11 0)
(0.0317575 -7.0306e-11 0)
(0.0317575 -5.57962e-11 0)
(0.0317575 -4.39928e-11 0)
(0.0317575 -3.44488e-11 0)
(0.0317575 -2.67765e-11 0)
(0.0317575 -2.06462e-11 0)
(0.0317575 -1.5777e-11 0)
(0.0317575 -1.19356e-11 0)
(0.0317575 -8.92744e-12 0)
(0.0317575 -6.58907e-12 0)
(0.0317575 -4.7855e-12 0)
(0.0317575 -3.4078e-12 0)
(0.0317575 -2.3634e-12 0)
(0.0317575 -1.58158e-12 0)
(0.0317575 -1.00482e-12 0)
(0.0317575 -5.85787e-13 0)
(0.0317575 -2.87966e-13 0)
(0.0317575 -8.06754e-14 0)
(0.0317575 5.82794e-14 0)
(0.0317575 1.45655e-13 0)
(0.0317575 1.96542e-13 0)
(0.0317575 2.21273e-13 0)
(0.0317575 2.30675e-13 0)
(0.0317575 2.28071e-13 0)
(0.0317575 2.17237e-13 0)
(0.0317575 2.02679e-13 0)
(0.0317575 1.84016e-13 0)
(0.0317575 1.66013e-13 0)
(0.0317575 1.47646e-13 0)
(0.0317575 1.29408e-13 0)
(0.0317575 1.11349e-13 0)
(0.0317575 9.34206e-14 0)
(0.0317575 7.7401e-14 0)
(0.0317575 5.99518e-14 0)
(0.0317575 4.29021e-14 0)
(0.0317575 2.50005e-14 0)
(0.0317575 7.7125e-15 0)
(0.0317575 -1.00242e-14 0)
(0.0317575 -2.72543e-14 0)
(0.0317575 -4.19762e-14 0)
(0.0317575 -5.53727e-14 0)
(0.0317575 -6.334e-14 0)
(0.0317575 -6.99508e-14 0)
(0.0317575 -7.32024e-14 0)
(0.0317575 -7.09511e-14 0)
(0.0317575 -6.53887e-14 0)
(0.0317575 -5.52021e-14 0)
(0.0317575 -4.02323e-14 0)
(0.0317575 -1.92433e-14 0)
(0.0317575 1.19233e-14 0)
(0.0317575 5.03962e-14 0)
(0.0317575 1.06636e-13 0)
(0.0317575 1.27913e-13 0)
(0.0317575 2.11985e-13 0)
(0.0317575 3.32543e-14 0)
(0.0317575 -1.86033e-13 0)
(0.0317575 -4.1973e-13 0)
(0.0317575 -4.89649e-12 0)
(0.0317575 -4.10218e-12 0)
(-0.000231215 0.000459736 0)
(-0.00149464 0.00134191 0)
(-0.00328756 0.00209724 0)
(-0.00524845 0.00263993 0)
(-0.00726084 0.00305523 0)
(-0.00922566 0.00331982 0)
(-0.0110772 0.00347694 0)
(-0.0127847 0.0035418 0)
(-0.0143255 0.00353932 0)
(-0.0156896 0.00347969 0)
(-0.016867 0.00337073 0)
(-0.0178503 0.0032153 0)
(-0.0186317 0.00301498 0)
(-0.0192041 0.00277045 0)
(-0.0195609 0.00248259 0)
(-0.0196962 0.00215279 0)
(-0.0196052 0.00178319 0)
(-0.0192841 0.00137673 0)
(-0.0187306 0.000937067 0)
(-0.0179436 0.000468533 0)
(-0.0169236 -2.39989e-05 0)
(-0.0156722 -0.000535194 0)
(-0.0141931 -0.00105932 0)
(-0.0124913 -0.00159031 0)
(-0.0105738 -0.00212175 0)
(-0.00844946 -0.00264695 0)
(-0.00612934 -0.00315886 0)
(-0.00362673 -0.00365019 0)
(-0.000957421 -0.00411332 0)
(0.00186013 -0.00454043 0)
(0.00480464 -0.0049235 0)
(0.00785184 -0.00525443 0)
(0.0109743 -0.00552522 0)
(0.0141414 -0.00572816 0)
(0.0173193 -0.00585611 0)
(0.0204712 -0.00590295 0)
(0.0235573 -0.00586405 0)
(0.0265361 -0.0057369 0)
(0.0293648 -0.00552174 0)
(0.0320008 -0.00522223 0)
(0.0344037 -0.00484598 0)
(0.0365373 -0.00440471 0)
(0.038372 -0.00391413 0)
(0.0398874 -0.00339311 0)
(0.041074 -0.0028624 0)
(0.0419356 -0.00234274 0)
(0.0424892 -0.00185297 0)
(0.0427655 -0.00140842 0)
(0.0428074 -0.00102019 0)
(0.0426669 -0.000695575 0)
(0.0424008 -0.000439063 0)
(0.0420663 -0.000253314 0)
(0.0417149 -0.000139168 0)
(0.0413891 -9.47456e-05 0)
(0.0411217 -0.000114309 0)
(0.0409366 -0.000187791 0)
(0.0408505 -0.000301436 0)
(0.0408733 -0.000439258 0)
(0.0410073 -0.000584702 0)
(0.0412466 -0.00072211 0)
(0.0415772 -0.000838001 0)
(0.0419785 -0.000922253 0)
(0.0424259 -0.000969063 0)
(0.0428934 -0.00097738 0)
(0.0433573 -0.000950562 0)
(0.0437984 -0.000895259 0)
(0.0442033 -0.000819834 0)
(0.0445645 -0.00073279 0)
(0.0448796 -0.000641561 0)
(0.0451496 -0.000551874 0)
(0.045378 -0.000467612 0)
(0.0455692 -0.000391029 0)
(0.0457279 -0.00032313 0)
(0.0458585 -0.000264057 0)
(0.0459651 -0.000213428 0)
(0.0460514 -0.000170578 0)
(0.0461205 -0.000134718 0)
(0.0461752 -0.000105029 0)
(0.0462178 -8.07157e-05 0)
(0.0462506 -6.10298e-05 0)
(0.0462754 -4.52832e-05 0)
(0.0462937 -3.28521e-05 0)
(0.046307 -2.31784e-05 0)
(0.0463163 -1.57689e-05 0)
(0.0463226 -1.01941e-05 0)
(0.0463267 -6.08469e-06 0)
(0.046329 -3.12846e-06 0)
(0.0463302 -1.06513e-06 0)
(0.0463306 3.18822e-07 0)
(0.0463305 1.19572e-06 0)
(0.04633 1.70247e-06 0)
(0.0463293 1.94596e-06 0)
(0.0463285 2.00828e-06 0)
(0.0463277 1.95126e-06 0)
(0.046327 1.82055e-06 0)
(0.0463263 1.64906e-06 0)
(0.0463256 1.45988e-06 0)
(0.046325 1.26864e-06 0)
(0.0463246 1.0854e-06 0)
(0.0463241 9.16195e-07 0)
(0.0463238 7.64152e-07 0)
(0.0463235 6.30427e-07 0)
(0.0463233 5.14853e-07 0)
(0.0463231 4.16431e-07 0)
(0.0463229 3.33688e-07 0)
(0.0463228 2.64921e-07 0)
(0.0463227 2.08367e-07 0)
(0.0463226 1.62311e-07 0)
(0.0463225 1.25154e-07 0)
(0.0463225 9.54503e-08 0)
(0.0463224 7.19183e-08 0)
(0.0463224 5.34465e-08 0)
(0.0463224 3.90842e-08 0)
(0.0463224 2.80291e-08 0)
(0.0463224 1.96117e-08 0)
(0.0463224 1.32797e-08 0)
(0.0463224 8.58128e-09 0)
(0.0463224 5.15076e-09 0)
(0.0463224 2.69448e-09 0)
(0.0463223 9.78729e-10 0)
(0.0463223 -1.80845e-10 0)
(0.0463223 -9.284e-10 0)
(0.0463223 -1.37561e-09 0)
(0.0463223 -1.60814e-09 0)
(0.0463224 -1.69098e-09 0)
(0.0463224 -1.67289e-09 0)
(0.0463224 -1.5899e-09 0)
(0.0463224 -1.46825e-09 0)
(0.0463224 -1.32665e-09 0)
(0.0463224 -1.17813e-09 0)
(0.0463224 -1.03146e-09 0)
(0.0463224 -8.92232e-10 0)
(0.0463224 -7.63789e-10 0)
(0.0463224 -6.47828e-10 0)
(0.0463224 -5.44922e-10 0)
(0.0463224 -4.54885e-10 0)
(0.0463224 -3.77045e-10 0)
(0.0463224 -3.10442e-10 0)
(0.0463224 -2.53972e-10 0)
(0.0463224 -2.06484e-10 0)
(0.0463224 -1.66851e-10 0)
(0.0463224 -1.34003e-10 0)
(0.0463224 -1.06962e-10 0)
(0.0463224 -8.48402e-11 0)
(0.0463224 -6.68559e-11 0)
(0.0463224 -5.23232e-11 0)
(0.0463224 -4.06476e-11 0)
(0.0463224 -3.13242e-11 0)
(0.0463224 -2.39271e-11 0)
(0.0463224 -1.80992e-11 0)
(0.0463224 -1.35386e-11 0)
(0.0463224 -1.00001e-11 0)
(0.0463224 -7.27664e-12 0)
(0.0463224 -5.20002e-12 0)
(0.0463224 -3.62932e-12 0)
(0.0463224 -2.45124e-12 0)
(0.0463224 -1.5797e-12 0)
(0.0463224 -9.41944e-13 0)
(0.0463224 -4.83956e-13 0)
(0.0463224 -1.61091e-13 0)
(0.0463224 6.07118e-14 0)
(0.0463224 2.04328e-13 0)
(0.0463224 2.9158e-13 0)
(0.0463224 3.37124e-13 0)
(0.0463224 3.54151e-13 0)
(0.0463224 3.52212e-13 0)
(0.0463224 3.34405e-13 0)
(0.0463224 3.09242e-13 0)
(0.0463224 2.78878e-13 0)
(0.0463224 2.47348e-13 0)
(0.0463224 2.18017e-13 0)
(0.0463224 1.86919e-13 0)
(0.0463224 1.57169e-13 0)
(0.0463224 1.25947e-13 0)
(0.0463224 9.3729e-14 0)
(0.0463224 6.2344e-14 0)
(0.0463224 2.92114e-14 0)
(0.0463224 -3.2347e-15 0)
(0.0463224 -3.3197e-14 0)
(0.0463224 -6.07067e-14 0)
(0.0463224 -8.32184e-14 0)
(0.0463224 -1.01178e-13 0)
(0.0463224 -1.17093e-13 0)
(0.0463224 -1.25638e-13 0)
(0.0463224 -1.31542e-13 0)
(0.0463224 -1.31908e-13 0)
(0.0463224 -1.29819e-13 0)
(0.0463224 -1.23064e-13 0)
(0.0463224 -1.08439e-13 0)
(0.0463224 -8.27172e-14 0)
(0.0463224 -3.96892e-14 0)
(0.0463224 2.75883e-14 0)
(0.0463224 1.2197e-13 0)
(0.0463224 2.41319e-13 0)
(0.0463224 4.26539e-13 0)
(0.0463224 4.69738e-13 0)
(0.0463224 8.06039e-13 0)
(0.0463224 5.04525e-13 0)
(0.0463224 -9.56369e-13 0)
(0.0463224 -2.00958e-13 0)
(-0.000388836 0.00141945 0)
(-0.00207016 0.00305122 0)
(-0.0040624 0.00405922 0)
(-0.00593161 0.00457851 0)
(-0.00755494 0.00486764 0)
(-0.00893404 0.00494674 0)
(-0.0100583 0.00490247 0)
(-0.0109534 0.00476249 0)
(-0.0116264 0.00455841 0)
(-0.01209 0.00430018 0)
(-0.0123487 0.0039946 0)
(-0.0124064 0.00364301 0)
(-0.0122641 0.00324583 0)
(-0.0119218 0.00280288 0)
(-0.0113786 0.00231454 0)
(-0.0106334 0.00178191 0)
(-0.00968497 0.00120704 0)
(-0.00853232 0.000592938 0)
(-0.00717485 -5.64711e-05 0)
(-0.00561255 -0.00073645 0)
(-0.00384626 -0.00144151 0)
(-0.00187776 -0.0021655 0)
(0.000289926 -0.00290162 0)
(0.00265237 -0.00364251 0)
(0.00520351 -0.00438016 0)
(0.0079354 -0.00510602 0)
(0.010838 -0.00581089 0)
(0.0138988 -0.00648497 0)
(0.0171029 -0.00711787 0)
(0.0204323 -0.00769865 0)
(0.0238661 -0.00821588 0)
(0.0273801 -0.00865771 0)
(0.0309464 -0.00901212 0)
(0.0345336 -0.0092671 0)
(0.0381064 -0.00941109 0)
(0.0416254 -0.00943348 0)
(0.0450479 -0.00932536 0)
(0.0483278 -0.00908042 0)
(0.0514171 -0.00869602 0)
(0.0542664 -0.0081743 0)
(0.0568274 -0.00752319 0)
(0.0590539 -0.00675723 0)
(0.0609048 -0.00589788 0)
(0.0623455 -0.00497339 0)
(0.063351 -0.00401797 0)
(0.0639078 -0.00307025 0)
(0.0640171 -0.00217108 0)
(0.0636979 -0.00136043 0)
(0.062989 -0.000673507 0)
(0.06195 -0.000136188 0)
(0.0606604 0.000239224 0)
(0.0592139 0.000456175 0)
(0.0577113 0.000532066 0)
(0.0562511 0.000492358 0)
(0.0549193 0.000363321 0)
(0.0537809 0.000167521 0)
(0.0528753 -7.59913e-05 0)
(0.0522171 -0.000348558 0)
(0.0518015 -0.000629319 0)
(0.0516103 -0.000895311 0)
(0.0516151 -0.00112407 0)
(0.0517802 -0.00129728 0)
(0.0520648 -0.00140384 0)
(0.0524266 -0.00144142 0)
(0.052826 -0.0014161 0)
(0.0532294 -0.00134017 0)
(0.0536126 -0.00122901 0)
(0.0539601 -0.00109801 0)
(0.0542651 -0.000960253 0)
(0.0545266 -0.000825379 0)
(0.0547476 -0.000699541 0)
(0.0549327 -0.000585966 0)
(0.0550868 -0.000485795 0)
(0.0552148 -0.000398868 0)
(0.0553206 -0.000324335 0)
(0.0554076 -0.000261051 0)
(0.0554786 -0.000207799 0)
(0.0555361 -0.000163394 0)
(0.0555821 -0.000126732 0)
(0.0556184 -9.67892e-05 0)
(0.0556466 -7.26249e-05 0)
(0.0556682 -5.33783e-05 0)
(0.0556845 -3.82669e-05 0)
(0.0556964 -2.65868e-05 0)
(0.055705 -1.77139e-05 0)
(0.0557109 -1.11037e-05 0)
(0.0557149 -6.28863e-06 0)
(0.0557174 -2.87477e-06 0)
(0.0557189 -5.35663e-07 0)
(0.0557196 9.94429e-07 0)
(0.0557197 1.92811e-06 0)
(0.0557196 2.43256e-06 0)
(0.0557192 2.63693e-06 0)
(0.0557188 2.63919e-06 0)
(0.0557183 2.51222e-06 0)
(0.0557177 2.30905e-06 0)
(0.0557173 2.06733e-06 0)
(0.0557168 1.81295e-06 0)
(0.0557164 1.563e-06 0)
(0.055716 1.32813e-06 0)
(0.0557157 1.11434e-06 0)
(0.0557154 9.24388e-07 0)
(0.0557152 7.58848e-07 0)
(0.055715 6.16875e-07 0)
(0.0557149 4.96775e-07 0)
(0.0557148 3.96399e-07 0)
(0.0557147 3.13417e-07 0)
(0.0557146 2.45502e-07 0)
(0.0557145 1.90444e-07 0)
(0.0557145 1.46215e-07 0)
(0.0557144 1.11003e-07 0)
(0.0557144 8.32196e-08 0)
(0.0557144 6.14991e-08 0)
(0.0557144 4.46806e-08 0)
(0.0557144 3.17902e-08 0)
(0.0557143 2.20204e-08 0)
(0.0557143 1.47077e-08 0)
(0.0557143 9.31222e-09 0)
(0.0557143 5.39863e-09 0)
(0.0557143 2.61884e-09 0)
(0.0557143 6.96946e-10 0)
(0.0557143 -5.83868e-10 0)
(0.0557143 -1.39246e-09 0)
(0.0557143 -1.85911e-09 0)
(0.0557143 -2.08333e-09 0)
(0.0557143 -2.14028e-09 0)
(0.0557143 -2.08604e-09 0)
(0.0557143 -1.96184e-09 0)
(0.0557143 -1.7975e-09 0)
(0.0557143 -1.6141e-09 0)
(0.0557143 -1.42615e-09 0)
(0.0557143 -1.24328e-09 0)
(0.0557143 -1.07153e-09 0)
(0.0557143 -9.14322e-10 0)
(0.0557143 -7.73282e-10 0)
(0.0557143 -6.48759e-10 0)
(0.0557143 -5.40273e-10 0)
(0.0557143 -4.46825e-10 0)
(0.0557143 -3.67122e-10 0)
(0.0557143 -2.99738e-10 0)
(0.0557143 -2.43219e-10 0)
(0.0557143 -1.96162e-10 0)
(0.0557143 -1.5725e-10 0)
(0.0557143 -1.25283e-10 0)
(0.0557143 -9.91837e-11 0)
(0.0557143 -7.80024e-11 0)
(0.0557143 -6.0915e-11 0)
(0.0557143 -4.72142e-11 0)
(0.0557143 -3.6297e-11 0)
(0.0557143 -2.76569e-11 0)
(0.0557143 -2.08696e-11 0)
(0.0557143 -1.55766e-11 0)
(0.0557143 -1.14798e-11 0)
(0.0557143 -8.33364e-12 0)
(0.0557143 -5.93713e-12 0)
(0.0557143 -4.12519e-12 0)
(0.0557143 -2.76869e-12 0)
(0.0557143 -1.76503e-12 0)
(0.0557143 -1.03054e-12 0)
(0.0557143 -5.02521e-13 0)
(0.0557143 -1.30209e-13 0)
(0.0557143 1.21817e-13 0)
(0.0557143 2.83577e-13 0)
(0.0557143 3.80097e-13 0)
(0.0557143 4.29317e-13 0)
(0.0557143 4.45261e-13 0)
(0.0557143 4.37497e-13 0)
(0.0557143 4.1389e-13 0)
(0.0557143 3.82239e-13 0)
(0.0557143 3.46428e-13 0)
(0.0557143 3.08563e-13 0)
(0.0557143 2.69656e-13 0)
(0.0557143 2.27355e-13 0)
(0.0557143 1.83885e-13 0)
(0.0557143 1.38028e-13 0)
(0.0557143 8.93844e-14 0)
(0.0557143 3.92835e-14 0)
(0.0557143 -1.0506e-14 0)
(0.0557143 -5.72553e-14 0)
(0.0557143 -9.80385e-14 0)
(0.0557143 -1.31413e-13 0)
(0.0557143 -1.58411e-13 0)
(0.0557143 -1.7649e-13 0)
(0.0557143 -1.88973e-13 0)
(0.0557143 -1.96035e-13 0)
(0.0557143 -2.00634e-13 0)
(0.0557143 -2.03044e-13 0)
(0.0557143 -2.01426e-13 0)
(0.0557143 -1.91938e-13 0)
(0.0557143 -1.67804e-13 0)
(0.0557143 -1.22156e-13 0)
(0.0557143 -4.6333e-14 0)
(0.0557143 7.25982e-14 0)
(0.0557143 2.54098e-13 0)
(0.0557143 5.08536e-13 0)
(0.0557143 8.55786e-13 0)
(0.0557143 1.46579e-12 0)
(0.0557143 1.69072e-12 0)
(0.0557143 3.71575e-12 0)
(0.0557143 4.29043e-12 0)
(-0.000407107 0.00286064 0)
(-0.00179001 0.00492473 0)
(-0.00319155 0.00586345 0)
(-0.00429239 0.00601094 0)
(-0.0049933 0.00596932 0)
(-0.00538643 0.0057479 0)
(-0.00549608 0.00545291 0)
(-0.00538614 0.00509222 0)
(-0.00507595 0.00468846 0)
(-0.00458941 0.00424341 0)
(-0.0039341 0.00375872 0)
(-0.00311641 0.00323238 0)
(-0.00213719 0.00266238 0)
(-0.00099609 0.00204695 0)
(0.000309076 0.00138522 0)
(0.00178099 0.000677413 0)
(0.00342273 -7.50365e-05 0)
(0.00523723 -0.000869494 0)
(0.00722703 -0.00170216 0)
(0.00939392 -0.00256816 0)
(0.0117387 -0.00346157 0)
(0.0142608 -0.00437553 0)
(0.0169582 -0.00530225 0)
(0.0198273 -0.00623306 0)
(0.0228622 -0.00715839 0)
(0.0260552 -0.00806775 0)
(0.0293961 -0.00894974 0)
(0.0328719 -0.00979201 0)
(0.036467 -0.0105813 0)
(0.0401627 -0.0113035 0)
(0.0439371 -0.0119437 0)
(0.0477646 -0.0124861 0)
(0.051616 -0.0129145 0)
(0.0554581 -0.0132123 0)
(0.0592536 -0.0133633 0)
(0.062961 -0.013352 0)
(0.0665355 -0.0131648 0)
(0.0699293 -0.0127913 0)
(0.0730937 -0.0122259 0)
(0.0759803 -0.011469 0)
(0.0785436 -0.0105288 0)
(0.0807427 -0.0094217 0)
(0.082543 -0.00817272 0)
(0.0839171 -0.00681512 0)
(0.084845 -0.00538925 0)
(0.0853133 -0.00394105 0)
(0.0853149 -0.0025204 0)
(0.0848481 -0.00117929 0)
(0.0839177 3.00661e-05 0)
(0.0825378 0.00105764 0)
(0.0807366 0.00185891 0)
(0.0785633 0.00239952 0)
(0.0760947 0.00266124 0)
(0.0734372 0.00264839 0)
(0.0707221 0.00239166 0)
(0.0680922 0.00194551 0)
(0.0656818 0.0013776 0)
(0.0635975 0.000755089 0)
(0.0619037 0.000134854 0)
(0.0606196 -0.000438713 0)
(0.0597253 -0.00093173 0)
(0.059174 -0.00131946 0)
(0.0589036 -0.00158738 0)
(0.0588464 -0.00173321 0)
(0.0589366 -0.00176725 0)
(0.0591162 -0.0017101 0)
(0.0593389 -0.00158795 0)
(0.0595717 -0.00142734 0)
(0.0597938 -0.00125097 0)
(0.0599947 -0.00107553 0)
(0.0601706 -0.000911447 0)
(0.0603218 -0.000763971 0)
(0.0604505 -0.000634731 0)
(0.0605597 -0.000523222 0)
(0.0606518 -0.000427926 0)
(0.0607294 -0.000347015 0)
(0.0607943 -0.000278707 0)
(0.0608482 -0.0002214 0)
(0.0608924 -0.000173694 0)
(0.0609284 -0.000134349 0)
(0.0609572 -0.000102256 0)
(0.06098 -7.64037e-05 0)
(0.0609977 -5.58648e-05 0)
(0.0610112 -3.97921e-05 0)
(0.0610214 -2.74202e-05 0)
(0.061029 -1.80682e-05 0)
(0.0610344 -1.11413e-05 0)
(0.0610382 -6.13001e-06 0)
(0.0610408 -2.60596e-06 0)
(0.0610424 -2.15942e-07 0)
(0.0610434 1.32601e-06 0)
(0.0610439 2.24729e-06 0)
(0.0610442 2.72555e-06 0)
(0.0610441 2.89707e-06 0)
(0.061044 2.86448e-06 0)
(0.0610438 2.70354e-06 0)
(0.0610435 2.46896e-06 0)
(0.0610432 2.19919e-06 0)
(0.061043 1.92041e-06 0)
(0.0610427 1.64966e-06 0)
(0.0610425 1.39733e-06 0)
(0.0610423 1.16909e-06 0)
(0.0610421 9.67316e-07 0)
(0.0610419 7.92203e-07 0)
(0.0610418 6.42553e-07 0)
(0.0610417 5.16351e-07 0)
(0.0610416 4.11166e-07 0)
(0.0610415 3.24428e-07 0)
(0.0610415 2.53604e-07 0)
(0.0610414 1.96314e-07 0)
(0.0610414 1.50389e-07 0)
(0.0610414 1.139e-07 0)
(0.0610414 8.51694e-08 0)
(0.0610413 6.27538e-08 0)
(0.0610413 4.54335e-08 0)
(0.0610413 3.2188e-08 0)
(0.0610413 2.21729e-08 0)
(0.0610413 1.46964e-08 0)
(0.0610413 9.19655e-09 0)
(0.0610413 5.22137e-09 0)
(0.0610413 2.41014e-09 0)
(0.0610413 4.77492e-10 0)
(0.0610413 -8.00358e-10 0)
(0.0610413 -1.59735e-09 0)
(0.0610413 -2.0474e-09 0)
(0.0610413 -2.25257e-09 0)
(0.0610413 -2.28976e-09 0)
(0.0610413 -2.2162e-09 0)
(0.0610413 -2.07383e-09 0)
(0.0610413 -1.89285e-09 0)
(0.0610413 -1.69454e-09 0)
(0.0610413 -1.49347e-09 0)
(0.0610413 -1.2992e-09 0)
(0.0610413 -1.11765e-09 0)
(0.0610413 -9.52125e-10 0)
(0.0610413 -8.04075e-10 0)
(0.0610413 -6.7369e-10 0)
(0.0610413 -5.60336e-10 0)
(0.0610413 -4.6287e-10 0)
(0.0610413 -3.79873e-10 0)
(0.0610413 -3.09807e-10 0)
(0.0610413 -2.5112e-10 0)
(0.0610413 -2.02321e-10 0)
(0.0610413 -1.62015e-10 0)
(0.0610413 -1.28939e-10 0)
(0.0610413 -1.01962e-10 0)
(0.0610413 -8.00939e-11 0)
(0.0610413 -6.2475e-11 0)
(0.0610413 -4.83684e-11 0)
(0.0610413 -3.71466e-11 0)
(0.0610413 -2.82798e-11 0)
(0.0610413 -2.13219e-11 0)
(0.0610413 -1.59003e-11 0)
(0.0610413 -1.17062e-11 0)
(0.0610413 -8.48499e-12 0)
(0.0610413 -6.03093e-12 0)
(0.0610413 -4.17736e-12 0)
(0.0610413 -2.78933e-12 0)
(0.0610413 -1.76297e-12 0)
(0.0610413 -1.01491e-12 0)
(0.0610413 -4.80389e-13 0)
(0.0610413 -1.07928e-13 0)
(0.0610413 1.44133e-13 0)
(0.0610413 3.04719e-13 0)
(0.0610413 3.99327e-13 0)
(0.0610413 4.46565e-13 0)
(0.0610413 4.6065e-13 0)
(0.0610413 4.54778e-13 0)
(0.0610413 4.33263e-13 0)
(0.0610413 4.02847e-13 0)
(0.0610413 3.66406e-13 0)
(0.0610413 3.25077e-13 0)
(0.0610413 2.80534e-13 0)
(0.0610413 2.30003e-13 0)
(0.0610413 1.74729e-13 0)
(0.0610413 1.14106e-13 0)
(0.0610413 5.09036e-14 0)
(0.0610413 -1.10098e-14 0)
(0.0610413 -6.97684e-14 0)
(0.0610413 -1.22045e-13 0)
(0.0610413 -1.66695e-13 0)
(0.0610413 -2.02151e-13 0)
(0.0610413 -2.27799e-13 0)
(0.0610413 -2.46566e-13 0)
(0.0610413 -2.59609e-13 0)
(0.0610413 -2.71537e-13 0)
(0.0610413 -2.82895e-13 0)
(0.0610413 -2.90977e-13 0)
(0.0610413 -2.93023e-13 0)
(0.0610413 -2.81665e-13 0)
(0.0610413 -2.48111e-13 0)
(0.0610413 -1.80302e-13 0)
(0.0610413 -5.61638e-14 0)
(0.0610413 1.38984e-13 0)
(0.0610413 4.56535e-13 0)
(0.0610413 9.51495e-13 0)
(0.0610413 1.73404e-12 0)
(0.0610413 2.67279e-12 0)
(0.0610413 6.30232e-12 0)
(0.0610413 6.72927e-12 0)
(-0.000633153 0.00330823 0)
(-0.001698 0.00562468 0)
(-0.00173572 0.00642404 0)
(-0.00149333 0.00629471 0)
(-0.000767144 0.0059589 0)
(0.000113132 0.0054885 0)
(0.0011928 0.00498453 0)
(0.00238782 0.00445182 0)
(0.00370361 0.00389723 0)
(0.00512326 0.00331616 0)
(0.00665004 0.00270242 0)
(0.00828466 0.00205003 0)
(0.0100325 0.00135356 0)
(0.0118992 0.000609143 0)
(0.013891 -0.000185629 0)
(0.0160143 -0.00103147 0)
(0.018275 -0.00192749 0)
(0.0206783 -0.00287115 0)
(0.0232281 -0.00385841 0)
(0.0259271 -0.00488377 0)
(0.0287761 -0.00594036 0)
(0.031774 -0.00702009 0)
(0.0349178 -0.00811367 0)
(0.0382022 -0.00921072 0)
(0.0416195 -0.0102997 0)
(0.0451599 -0.0113681 0)
(0.0488108 -0.0124018 0)
(0.0525571 -0.013386 0)
(0.0563805 -0.0143042 0)
(0.0602597 -0.015139 0)
(0.0641697 -0.0158718 0)
(0.0680819 -0.0164828 0)
(0.0719636 -0.0169511 0)
(0.0757776 -0.0172553 0)
(0.0794825 -0.0173739 0)
(0.0830333 -0.0172865 0)
(0.0863819 -0.0169751 0)
(0.0894798 -0.0164264 0)
(0.0922804 -0.0156335 0)
(0.094742 -0.0145984 0)
(0.0968312 -0.0133332 0)
(0.0985246 -0.0118606 0)
(0.0998101 -0.0102138 0)
(0.100686 -0.00843466 0)
(0.101159 -0.00657147 0)
(0.101242 -0.00467663 0)
(0.100949 -0.0028041 0)
(0.100292 -0.00100746 0)
(0.0992822 0.000661458 0)
(0.0979232 0.00215331 0)
(0.0962154 0.00342151 0)
(0.0941571 0.00442246 0)
(0.0917513 0.00511678 0)
(0.089015 0.00547263 0)
(0.0859912 0.00547236 0)
(0.0827596 0.00512195 0)
(0.0794397 0.00446021 0)
(0.0761813 0.00356162 0)
(0.0731411 0.00252797 0)
(0.0704543 0.00146979 0)
(0.0682095 0.000486132 0)
(0.0664388 -0.000349187 0)
(0.0651221 -0.000992578 0)
(0.0642022 -0.00142995 0)
(0.0636036 -0.00167278 0)
(0.0632477 -0.00175159 0)
(0.0630637 -0.00170744 0)
(0.062994 -0.00158301 0)
(0.0629955 -0.00141568 0)
(0.0630379 -0.0012337 0)
(0.0631016 -0.00105557 0)
(0.0631739 -0.000891485 0)
(0.0632475 -0.000745704 0)
(0.0633178 -0.000618882 0)
(0.0633827 -0.000509844 0)
(0.0634407 -0.000416729 0)
(0.0634916 -0.000337611 0)
(0.0635353 -0.000270739 0)
(0.0635723 -0.0002146 0)
(0.063603 -0.000167874 0)
(0.0636282 -0.000129387 0)
(0.0636485 -9.80666e-05 0)
(0.0636647 -7.2917e-05 0)
(0.0636773 -5.3015e-05 0)
(0.0636871 -3.75115e-05 0)
(0.0636946 -2.56378e-05 0)
(0.0637002 -1.67115e-05 0)
(0.0637043 -1.01396e-05 0)
(0.0637072 -5.41665e-06 0)
(0.0637093 -2.12085e-06 0)
(0.0637107 9.33046e-08 0)
(0.0637116 1.5036e-06 0)
(0.0637122 2.32944e-06 0)
(0.0637125 2.74109e-06 0)
(0.0637126 2.86835e-06 0)
(0.0637126 2.80837e-06 0)
(0.0637126 2.6324e-06 0)
(0.0637124 2.39154e-06 0)
(0.0637123 2.12146e-06 0)
(0.0637122 1.84623e-06 0)
(0.063712 1.58134e-06 0)
(0.0637119 1.33606e-06 0)
(0.0637118 1.11527e-06 0)