/*--------------------------------*- C++ -*----------------------------------*\
| =========                 |                                                 |
| \\      /  F ield         | OpenFOAM: The Open Source CFD Toolbox           |
|  \\    /   O peration     | Version:  4.1                                   |
|   \\  /    A nd           | Web:      www.OpenFOAM.org                      |
|    \\/     M anipulation  |                                                 |
\*---------------------------------------------------------------------------*/
FoamFile
{
    version     2.0;
    format      ascii;
    class       volScalarField;
    location    "4740";
    object      p;
}
// * * * * * * * * * * * * * * * * * * * * * * * * * * * * * * * * * * * * * //

dimensions      [1 -1 -2 0 0 0 0];

internalField   nonuniform List<scalar> 
1275
(
0.711994
0.711993
0.711993
0.711993
0.711992
0.711992
0.711991
0.711991
0.71199
0.711991
0.71199
0.711991
0.71199
0.711991
0.711991
0.711991
0.711992
0.711993
0.711993
0.711994
0.711995
0.711996
0.711997
0.711999
0.712
0.712002
0.712004
0.712006
0.712008
0.712011
0.712013
0.712016
0.712018
0.712021
0.712024
0.712028
0.712031
0.712035
0.712038
0.712042
0.712046
0.712051
0.712055
0.71206
0.712064
0.712069
0.712074
0.71208
0.712085
0.712091
0.712097
0.712103
0.712109
0.712115
0.712122
0.712129
0.712136
0.712143
0.712151
0.712158
0.712166
0.712174
0.712183
0.712192
0.712201
0.712211
0.71222
0.712231
0.712242
0.712253
0.712265
0.712277
0.71229
0.712304
0.712319
0.712335
0.712352
0.71237
0.712389
0.71241
0.712433
0.712458
0.712485
0.712513
0.712545
0.712579
0.712615
0.712654
0.712696
0.712741
0.712788
0.712839
0.712891
0.712946
0.713002
0.71306
0.713118
0.713177
0.713236
0.713293
0.713349
0.713403
0.713454
0.713502
0.713546
0.713586
0.713622
0.713653
0.71368
0.713702
0.713719
0.713733
0.713742
0.713747
0.713749
0.713748
0.713744
0.713737
0.713729
0.713718
0.713707
0.713695
0.711992
0.711992
0.711992
0.711992
0.711991
0.711992
0.711991
0.711992
0.711991
0.711992
0.711991
0.711992
0.711991
0.711992
0.711992
0.711992
0.711993
0.711993
0.711994
0.711995
0.711996
0.711997
0.711998
0.712
0.712001
0.712003
0.712005
0.712007
0.712009
0.712011
0.712014
0.712016
0.712019
0.712022
0.712025
0.712028
0.712032
0.712035
0.712039
0.712043
0.712047
0.712051
0.712056
0.71206
0.712065
0.71207
0.712075
0.71208
0.712086
0.712091
0.712097
0.712103
0.712109
0.712116
0.712123
0.712129
0.712136
0.712144
0.712151
0.712159
0.712167
0.712175
0.712184
0.712193
0.712202
0.712211
0.712221
0.712232
0.712243
0.712254
0.712266
0.712278
0.712291
0.712305
0.71232
0.712336
0.712353
0.712371
0.71239
0.712411
0.712433
0.712457
0.712484
0.712512
0.712543
0.712576
0.712612
0.712651
0.712692
0.712737
0.712784
0.712833
0.712886
0.71294
0.712996
0.713054
0.713112
0.713171
0.713229
0.713287
0.713343
0.713397
0.713448
0.713496
0.71354
0.713581
0.713616
0.713648
0.713675
0.713697
0.713714
0.713728
0.713737
0.713742
0.713744
0.713743
0.713739
0.713733
0.713725
0.713715
0.713703
0.713691
0.711995
0.711995
0.711994
0.711994
0.711993
0.711993
0.711992
0.711992
0.711991
0.711992
0.711991
0.711991
0.711991
0.711991
0.711991
0.711992
0.711992
0.711993
0.711994
0.711995
0.711995
0.711997
0.711998
0.711999
0.712001
0.712003
0.712004
0.712006
0.712009
0.712011
0.712013
0.712016
0.712019
0.712022
0.712025
0.712028
0.712031
0.712035
0.712039
0.712043
0.712047
0.712051
0.712055
0.71206
0.712065
0.71207
0.712075
0.71208
0.712086
0.712091
0.712097
0.712103
0.712109
0.712116
0.712122
0.712129
0.712136
0.712143
0.712151
0.712159
0.712167
0.712175
0.712184
0.712192
0.712202
0.712211
0.712221
0.712231
0.712242
0.712253
0.712265
0.712277
0.71229
0.712304
0.712319
0.712334
0.712351
0.712369
0.712388
0.712408
0.712431
0.712455
0.712481
0.712509
0.712539
0.712572
0.712608
0.712646
0.712687
0.712731
0.712778
0.712828
0.71288
0.712934
0.712991
0.713048
0.713107
0.713166
0.713224
0.713282
0.713338
0.713392
0.713443
0.713491
0.713535
0.713575
0.713611
0.713642
0.713669
0.713691
0.713708
0.713722
0.713731
0.713736
0.713738
0.713737
0.713733
0.713726
0.713718
0.713708
0.713697
0.713685
0.711991
0.711991
0.71199
0.711992
0.711991
0.711992
0.711991
0.711992
0.711991
0.711992
0.711991
0.711992
0.711991
0.711992
0.711992
0.711992
0.711993
0.711993
0.711994
0.711995
0.711996
0.711997
0.711998
0.711999
0.712001
0.712003
0.712004
0.712006
0.712009
0.712011
0.712013
0.712016
0.712019
0.712022
0.712025
0.712028
0.712031
0.712035
0.712039
0.712043
0.712047
0.712051
0.712055
0.71206
0.712065
0.71207
0.712075
0.71208
0.712085
0.712091
0.712097
0.712103
0.712109
0.712116
0.712122
0.712129
0.712136
0.712143
0.712151
0.712159
0.712167
0.712175
0.712183
0.712192
0.712201
0.712211
0.712221
0.712231
0.712242
0.712253
0.712265
0.712277
0.71229
0.712303
0.712318
0.712333
0.712349
0.712367
0.712385
0.712405
0.712427
0.712451
0.712476
0.712504
0.712534
0.712566
0.712601
0.712639
0.71268
0.712724
0.712771
0.71282
0.712872
0.712926
0.712982
0.71304
0.713098
0.713157
0.713215
0.713272
0.713328
0.713381
0.713431
0.713479
0.713522
0.713562
0.713597
0.713627
0.713653
0.713675
0.713692
0.713704
0.713713
0.713718
0.71372
0.713718
0.713714
0.713708
0.7137
0.713691
0.71368
0.713668
0.711997
0.711997
0.711995
0.711995
0.711993
0.711993
0.711991
0.711992
0.71199
0.711991
0.71199
0.71199
0.71199
0.71199
0.71199
0.711991
0.711991
0.711992
0.711993
0.711994
0.711994
0.711996
0.711997
0.711998
0.712
0.712002
0.712003
0.712006
0.712008
0.71201
0.712012
0.712015
0.712018
0.712021
0.712024
0.712027
0.712031
0.712034
0.712038
0.712042
0.712046
0.71205
0.712055
0.712059
0.712064
0.712069
0.712074
0.712079
0.712085
0.712091
0.712096
0.712102
0.712109
0.712115
0.712122
0.712128
0.712135
0.712143
0.71215
0.712158
0.712166
0.712174
0.712183
0.712191
0.7122
0.71221
0.71222
0.71223
0.71224
0.712251
0.712263
0.712275
0.712288
0.712301
0.712315
0.71233
0.712347
0.712364
0.712382
0.712402
0.712424
0.712447
0.712473
0.7125
0.71253
0.712563
0.712598
0.712636
0.712677
0.712721
0.712767
0.712816
0.712868
0.712922
0.712977
0.713034
0.713092
0.713149
0.713206
0.713262
0.713316
0.713368
0.713417
0.713463
0.713505
0.713543
0.713576
0.713605
0.713629
0.71365
0.713665
0.713677
0.713685
0.713689
0.71369
0.713689
0.713685
0.713679
0.713671
0.713662
0.713652
0.713641
0.711985
0.711988
0.711985
0.711989
0.711987
0.71199
0.711988
0.71199
0.711989
0.71199
0.711989
0.71199
0.71199
0.71199
0.71199
0.711991
0.711991
0.711992
0.711992
0.711993
0.711994
0.711995
0.711997
0.711998
0.711999
0.712001
0.712003
0.712005
0.712007
0.712009
0.712012
0.712015
0.712017
0.71202
0.712023
0.712027
0.71203
0.712034
0.712037
0.712041
0.712045
0.71205
0.712054
0.712059
0.712063
0.712069
0.712074
0.712079
0.712084
0.71209
0.712096
0.712102
0.712108
0.712115
0.712121
0.712128
0.712135
0.712142
0.71215
0.712157
0.712165
0.712173
0.712182
0.712191
0.7122
0.712209
0.712219
0.712229
0.712239
0.71225
0.712262
0.712274
0.712286
0.7123
0.712314
0.712329
0.712345
0.712362
0.712381
0.712401
0.712422
0.712446
0.712471
0.712499
0.712529
0.712561
0.712597
0.712635
0.712675
0.712719
0.712765
0.712814
0.712865
0.712918
0.712972
0.713028
0.713084
0.713139
0.713194
0.713248
0.7133
0.713349
0.713395
0.713438
0.713477
0.713512
0.713543
0.713569
0.713591
0.713609
0.713623
0.713633
0.71364
0.713643
0.713644
0.713642
0.713638
0.713632
0.713625
0.713617
0.713608
0.713598
0.711997
0.711997
0.711993
0.711994
0.71199
0.711991
0.711988
0.711989
0.711987
0.711988
0.711987
0.711987
0.711987
0.711988
0.711988
0.711988
0.711989
0.71199
0.71199
0.711992
0.711993
0.711994
0.711995
0.711997
0.711998
0.712
0.712002
0.712004
0.712006
0.712009
0.712011
0.712014
0.712017
0.71202
0.712023
0.712026
0.712029
0.712033
0.712037
0.712041
0.712045
0.712049
0.712054
0.712058
0.712063
0.712068
0.712073
0.712078
0.712084
0.712089
0.712095
0.712101
0.712108
0.712114
0.712121
0.712127
0.712134
0.712142
0.712149
0.712157
0.712165
0.712173
0.712181
0.71219
0.712199
0.712208
0.712218
0.712228
0.712239
0.71225
0.712261
0.712273
0.712286
0.7123
0.712314
0.712329
0.712346
0.712363
0.712382
0.712402
0.712424
0.712448
0.712474
0.712502
0.712533
0.712566
0.712601
0.712639
0.71268
0.712723
0.712769
0.712817
0.712867
0.712918
0.712971
0.713024
0.713078
0.71313
0.713182
0.713232
0.71328
0.713325
0.713368
0.713406
0.713441
0.713472
0.713499
0.713522
0.713541
0.713556
0.713567
0.713575
0.71358
0.713582
0.713582
0.71358
0.713576
0.713571
0.713565
0.713557
0.71355
0.713542
0.711965
0.711979
0.711974
0.711985
0.711981
0.711987
0.711985
0.711988
0.711987
0.711988
0.711987
0.711988
0.711988
0.711989
0.711989
0.711989
0.71199
0.71199
0.711991
0.711992
0.711993
0.711994
0.711995
0.711997
0.711998
0.712
0.712002
0.712004
0.712006
0.712009
0.712011
0.712014
0.712016
0.712019
0.712022
0.712026
0.712029
0.712033
0.712037
0.712041
0.712045
0.712049
0.712053
0.712058
0.712063
0.712068
0.712073
0.712078
0.712084
0.712089
0.712095
0.712101
0.712107
0.712114
0.71212
0.712127
0.712134
0.712142
0.712149
0.712157
0.712165
0.712173
0.712182
0.71219
0.7122
0.712209
0.712219
0.712229
0.71224
0.712251
0.712263
0.712276
0.712289
0.712303
0.712318
0.712333
0.71235
0.712369
0.712388
0.712409
0.712432
0.712457
0.712483
0.712512
0.712543
0.712576
0.712612
0.71265
0.712691
0.712733
0.712778
0.712825
0.712873
0.712922
0.712971
0.713021
0.713071
0.713119
0.713166
0.713211
0.713254
0.713294
0.713331
0.713364
0.713394
0.713419
0.713442
0.71346
0.713475
0.713487
0.713496
0.713502
0.713505
0.713506
0.713506
0.713504
0.7135
0.713496
0.713491
0.713486
0.71348
0.713474
0.711989
0.711996
0.711989
0.71199
0.711985
0.711987
0.711984
0.711985
0.711984
0.711985
0.711985
0.711985
0.711985
0.711986
0.711986
0.711987
0.711988
0.711989
0.71199
0.711991
0.711992
0.711993
0.711995
0.711996
0.711998
0.712
0.712002
0.712004
0.712006
0.712008
0.712011
0.712014
0.712017
0.71202
0.712023
0.712026
0.712029
0.712033
0.712037
0.712041
0.712045
0.712049
0.712054
0.712058
0.712063
0.712068
0.712073
0.712079
0.712084
0.71209
0.712096
0.712102
0.712108
0.712115
0.712122
0.712129
0.712136
0.712143
0.712151
0.712159
0.712167
0.712175
0.712184
0.712193
0.712203
0.712213
0.712223
0.712234
0.712246
0.712257
0.71227
0.712283
0.712297
0.712312
0.712328
0.712345
0.712363
0.712382
0.712403
0.712425
0.712449
0.712475
0.712502
0.712532
0.712564
0.712598
0.712633
0.712671
0.712711
0.712753
0.712796
0.71284
0.712885
0.712931
0.712976
0.713022
0.713066
0.713109
0.71315
0.713189
0.713225
0.713258
0.713289
0.713316
0.713339
0.71336
0.713377
0.713391
0.713402
0.71341
0.713417
0.713421
0.713423
0.713424
0.713423
0.713422
0.713419
0.713416
0.713413
0.71341
0.713407
0.713403
0.711887
0.711968
0.711963
0.711987
0.711982
0.71199
0.711987
0.711991
0.711989
0.71199
0.711989
0.71199
0.71199
0.71199
0.71199
0.711991
0.711991
0.711992
0.711992
0.711993
0.711994
0.711995
0.711996
0.711998
0.711999
0.712001
0.712003
0.712005
0.712007
0.712009
0.712012
0.712014
0.712017
0.71202
0.712023
0.712027
0.71203
0.712034
0.712038
0.712042
0.712046
0.71205
0.712055
0.71206
0.712064
0.71207
0.712075
0.712081
0.712086
0.712092
0.712098
0.712104
0.712111
0.712118
0.712125
0.712132
0.71214
0.712147
0.712156
0.712164
0.712173
0.712182
0.712191
0.712201
0.712211
0.712222
0.712233
0.712245
0.712258
0.712271
0.712285
0.712299
0.712314
0.712331
0.712348
0.712366
0.712386
0.712407
0.712429
0.712453
0.712478
0.712505
0.712534
0.712564
0.712596
0.71263
0.712666
0.712703
0.712741
0.71278
0.712821
0.712862
0.712903
0.712944
0.712984
0.713023
0.713061
0.713097
0.713132
0.713163
0.713192
0.713219
0.713242
0.713263
0.71328
0.713296
0.713308
0.713318
0.713326
0.713332
0.713337
0.713339
0.713341
0.713342
0.713342
0.713342
0.713341
0.71334
0.71334
0.713339
0.713338
0.713338
0.712245
0.712202
0.712195
0.712154
0.712141
0.712098
0.712083
0.712032
0.712022
0.711949
0.711967
0.711993
0.711987
0.711992
0.711987
0.711989
0.711986
0.711988
0.711986
0.711988
0.711987
0.711988
0.711987
0.711988
0.711988
0.711989
0.71199
0.711991
0.711992
0.711993
0.711994
0.711995
0.711996
0.711998
0.712
0.712002
0.712003
0.712006
0.712008
0.71201
0.712013
0.712016
0.712019
0.712022
0.712025
0.712028
0.712032
0.712036
0.71204
0.712044
0.712048
0.712053
0.712058
0.712063
0.712068
)
;

boundaryField
{
    inlet
    {
        type            zeroGradient;
    }
    outlet
    {
        type            fixedValue;
        value           nonuniform 0();
    }
    walls
    {
        type            zeroGradient;
    }
    symwall
    {
        type            empty;
    }
    procBoundary0to1
    {
        type            processor;
        value           nonuniform List<scalar> 10(0.713682 0.713678 0.713672 0.713656 0.71363 0.713588 0.713534 0.713469 0.713401 0.713338);
    }
    procBoundary0to2
    {
        type            processor;
        value           nonuniform List<scalar> 
133
(
0.712073
0.712079
0.712085
0.712091
0.712097
0.712103
0.71211
0.712117
0.712125
0.712132
0.71214
0.712148
0.712157
0.712166
0.712175
0.712185
0.712195
0.712206
0.712217
0.712228
0.71224
0.712253
0.712267
0.712281
0.712295
0.712311
0.712327
0.712344
0.712363
0.712382
0.712402
0.712424
0.712446
0.71247
0.712496
0.712522
0.712551
0.71258
0.712611
0.712643
0.712676
0.71271
0.712746
0.712782
0.712818
0.712854
0.712891
0.712927
0.712962
0.712996
0.713028
0.713059
0.713088
0.713115
0.71314
0.713162
0.713181
0.713199
0.713214
0.713226
0.713237
0.713246
0.713253
0.713259
0.713263
0.713267
0.713269
0.713272
0.713273
0.713275
0.713276
0.713277
0.713279
0.71328
0.713282
0.713284
0.713286
0.712254
0.712206
0.712199
0.712156
0.712143
0.7121
0.712084
0.712033
0.712018
0.711949
0.711926
0.711977
0.71197
0.711992
0.711987
0.711995
0.711992
0.711995
0.711993
0.711994
0.711993
0.711993
0.711992
0.711993
0.711992
0.711993
0.711993
0.711993
0.711994
0.711995
0.711996
0.711997
0.711998
0.712
0.712001
0.712003
0.712005
0.712007
0.712009
0.712012
0.712015
0.712018
0.712021
0.712024
0.712027
0.712031
0.712035
0.712039
0.712043
0.712048
0.712052
0.712058
0.712062
0.712068
0.712073
0.712073
)
;
    }
}


// ************************************************************************* //
