/*--------------------------------*- C++ -*----------------------------------*\
| =========                 |                                                 |
| \\      /  F ield         | OpenFOAM: The Open Source CFD Toolbox           |
|  \\    /   O peration     | Version:  4.1                                   |
|   \\  /    A nd           | Web:      www.OpenFOAM.org                      |
|    \\/     M anipulation  |                                                 |
\*---------------------------------------------------------------------------*/
FoamFile
{
    version     2.0;
    format      ascii;
    class       volScalarField;
    location    "177";
    object      p;
}
// * * * * * * * * * * * * * * * * * * * * * * * * * * * * * * * * * * * * * //

dimensions      [1 -1 -2 0 0 0 0];

internalField   nonuniform List<scalar> 
3264
(
0.712613
0.712612
0.71261
0.712609
0.712608
0.712607
0.712605
0.712604
0.712603
0.712603
0.712602
0.712602
0.712603
0.712604
0.712607
0.712611
0.712617
0.712625
0.712637
0.712652
0.712671
0.712695
0.712723
0.712758
0.712799
0.712846
0.7129
0.71296
0.713028
0.713102
0.713182
0.713268
0.713359
0.713455
0.713554
0.713655
0.713758
0.713862
0.713964
0.714064
0.714162
0.714254
0.714342
0.714423
0.714498
0.714564
0.714624
0.714675
0.714718
0.714753
0.714781
0.714802
0.714817
0.714827
0.714832
0.714834
0.714832
0.714829
0.714824
0.714819
0.714813
0.714807
0.714801
0.714795
0.71479
0.714785
0.71478
0.714775
0.714771
0.714767
0.714764
0.714761
0.714759
0.714759
0.714759
0.714761
0.714765
0.714772
0.714781
0.714793
0.714808
0.714827
0.714849
0.714874
0.714901
0.714932
0.714964
0.714999
0.715034
0.71507
0.715105
0.71514
0.715173
0.715204
0.715232
0.715257
0.715278
0.715295
0.715308
0.715317
0.715322
0.715324
0.715322
0.715317
0.71531
0.7153
0.715289
0.715277
0.715265
0.715252
0.715238
0.715225
0.715212
0.715199
0.715186
0.715174
0.715162
0.715151
0.715139
0.715129
0.715118
0.715107
0.715097
0.715086
0.715076
0.715066
0.715056
0.715045
0.715035
0.715025
0.715014
0.715004
0.714994
0.714983
0.714973
0.714963
0.714952
0.714942
0.714931
0.714921
0.71491
0.7149
0.714889
0.714879
0.714868
0.714858
0.714847
0.714837
0.714826
0.714816
0.714805
0.714795
0.714784
0.714774
0.714763
0.714753
0.714742
0.714732
0.714721
0.714711
0.7147
0.71469
0.714679
0.714669
0.714658
0.714648
0.714637
0.714627
0.714616
0.714606
0.714595
0.714585
0.714574
0.714564
0.714553
0.714543
0.714533
0.714522
0.714512
0.714501
0.714491
0.71448
0.71447
0.714459
0.714449
0.714438
0.714428
0.714417
0.714407
0.714396
0.714386
0.714375
0.714365
0.714354
0.714344
0.714333
0.714323
0.714312
0.714302
0.714291
0.712615
0.712613
0.712612
0.712611
0.71261
0.71261
0.712609
0.712608
0.712607
0.712607
0.712607
0.712607
0.712607
0.712609
0.712611
0.712615
0.712621
0.712629
0.712639
0.712653
0.712671
0.712694
0.712722
0.712755
0.712795
0.712841
0.712893
0.712953
0.713019
0.713092
0.713172
0.713257
0.713348
0.713443
0.713542
0.713643
0.713746
0.713849
0.713952
0.714052
0.714149
0.714242
0.71433
0.714412
0.714487
0.714554
0.714614
0.714665
0.714709
0.714745
0.714774
0.714795
0.714811
0.714822
0.714829
0.714831
0.714831
0.714829
0.714826
0.714821
0.714816
0.71481
0.714805
0.714799
0.714794
0.714789
0.714784
0.714779
0.714775
0.714771
0.714767
0.714764
0.714762
0.71476
0.71476
0.714761
0.714765
0.714771
0.714779
0.714791
0.714806
0.714824
0.714845
0.714869
0.714897
0.714927
0.71496
0.714994
0.715029
0.715065
0.715101
0.715136
0.71517
0.715201
0.71523
0.715255
0.715277
0.715294
0.715308
0.715317
0.715323
0.715324
0.715323
0.715318
0.715311
0.715301
0.71529
0.715278
0.715265
0.715252
0.715238
0.715225
0.715212
0.715199
0.715186
0.715174
0.715162
0.715151
0.715139
0.715128
0.715118
0.715107
0.715097
0.715086
0.715076
0.715066
0.715056
0.715045
0.715035
0.715025
0.715014
0.715004
0.714994
0.714983
0.714973
0.714963
0.714952
0.714942
0.714931
0.714921
0.71491
0.7149
0.714889
0.714879
0.714868
0.714858
0.714847
0.714837
0.714826
0.714816
0.714805
0.714795
0.714784
0.714774
0.714763
0.714753
0.714742
0.714732
0.714721
0.714711
0.7147
0.71469
0.714679
0.714669
0.714658
0.714648
0.714637
0.714627
0.714616
0.714606
0.714595
0.714585
0.714574
0.714564
0.714553
0.714543
0.714533
0.714522
0.714512
0.714501
0.714491
0.71448
0.71447
0.714459
0.714449
0.714438
0.714428
0.714417
0.714407
0.714396
0.714386
0.714375
0.714365
0.714354
0.714344
0.714333
0.714323
0.714312
0.714302
0.714291
0.712617
0.712615
0.712613
0.712612
0.712611
0.71261
0.712609
0.712608
0.712607
0.712607
0.712606
0.712606
0.712607
0.712608
0.712609
0.712613
0.712618
0.712625
0.712635
0.712648
0.712665
0.712686
0.712713
0.712746
0.712785
0.71283
0.712882
0.712941
0.713007
0.71308
0.713159
0.713244
0.713335
0.71343
0.713529
0.71363
0.713732
0.713836
0.713938
0.714038
0.714135
0.714228
0.714315
0.714397
0.714471
0.714539
0.714598
0.71465
0.714693
0.714729
0.714758
0.71478
0.714796
0.714807
0.714814
0.714817
0.714818
0.714817
0.714814
0.714811
0.714808
0.714804
0.7148
0.714797
0.714793
0.714789
0.714784
0.71478
0.714775
0.714771
0.714767
0.714764
0.714762
0.71476
0.71476
0.714761
0.714764
0.714769
0.714777
0.714788
0.714803
0.71482
0.714842
0.714866
0.714893
0.714924
0.714956
0.71499
0.715026
0.715062
0.715098
0.715134
0.715168
0.7152
0.715229
0.715254
0.715277
0.715295
0.715309
0.715318
0.715324
0.715325
0.715324
0.715319
0.715311
0.715302
0.715291
0.715278
0.715265
0.715252
0.715238
0.715225
0.715211
0.715199
0.715186
0.715174
0.715162
0.71515
0.715139
0.715128
0.715118
0.715107
0.715097
0.715086
0.715076
0.715066
0.715056
0.715045
0.715035
0.715025
0.715015
0.715004
0.714994
0.714983
0.714973
0.714963
0.714952
0.714942
0.714931
0.714921
0.71491
0.7149
0.714889
0.714879
0.714868
0.714858
0.714847
0.714837
0.714826
0.714816
0.714805
0.714795
0.714784
0.714774
0.714763
0.714753
0.714742
0.714732
0.714721
0.714711
0.7147
0.71469
0.714679
0.714669
0.714658
0.714648
0.714637
0.714627
0.714616
0.714606
0.714595
0.714585
0.714574
0.714564
0.714553
0.714543
0.714533
0.714522
0.714512
0.714501
0.714491
0.71448
0.71447
0.714459
0.714449
0.714438
0.714428
0.714417
0.714407
0.714396
0.714386
0.714375
0.714365
0.714354
0.714344
0.714333
0.714323
0.714312
0.714302
0.714291
0.712612
0.712611
0.71261
0.71261
0.712609
0.712609
0.712608
0.712607
0.712606
0.712606
0.712605
0.712605
0.712605
0.712606
0.712607
0.712609
0.712614
0.71262
0.712628
0.712641
0.712657
0.712677
0.712703
0.712735
0.712773
0.712817
0.712869
0.712927
0.712993
0.713065
0.713144
0.713228
0.713318
0.713412
0.71351
0.71361
0.713712
0.713814
0.713915
0.714014
0.71411
0.714201
0.714287
0.714366
0.714439
0.714504
0.714562
0.714611
0.714653
0.714687
0.714714
0.714735
0.714751
0.714761
0.714768
0.714772
0.714774
0.714775
0.714775
0.714774
0.714774
0.714774
0.714775
0.714775
0.714776
0.714776
0.714776
0.714775
0.714774
0.714772
0.714769
0.714766
0.714764
0.714762
0.714761
0.714762
0.714765
0.71477
0.714777
0.714788
0.714802
0.71482
0.71484
0.714864
0.714891
0.714921
0.714954
0.714988
0.715023
0.715059
0.715095
0.715131
0.715165
0.715197
0.715226
0.715252
0.715274
0.715293
0.715307
0.715316
0.715322
0.715324
0.715322
0.715317
0.71531
0.7153
0.715289
0.715277
0.715264
0.715251
0.715238
0.715224
0.715211
0.715198
0.715186
0.715174
0.715162
0.71515
0.715139
0.715128
0.715118
0.715107
0.715097
0.715086
0.715076
0.715066
0.715056
0.715045
0.715035
0.715025
0.715015
0.715004
0.714994
0.714983
0.714973
0.714963
0.714952
0.714942
0.714931
0.714921
0.71491
0.7149
0.714889
0.714879
0.714868
0.714858
0.714847
0.714837
0.714826
0.714816
0.714805
0.714795
0.714784
0.714774
0.714763
0.714753
0.714742
0.714732
0.714721
0.714711
0.7147
0.71469
0.714679
0.714669
0.714658
0.714648
0.714637
0.714627
0.714616
0.714606
0.714595
0.714585
0.714574
0.714564
0.714553
0.714543
0.714533
0.714522
0.714512
0.714501
0.714491
0.71448
0.71447
0.714459
0.714449
0.714438
0.714428
0.714417
0.714407
0.714396
0.714386
0.714375
0.714365
0.714354
0.714344
0.714333
0.714323
0.714312
0.714302
0.714291
0.71261
0.71261
0.712607
0.712607
0.712605
0.712605
0.712604
0.712604
0.712603
0.712603
0.712603
0.712602
0.712602
0.712603
0.712604
0.712606
0.712609
0.712615
0.712623
0.712634
0.71265
0.71267
0.712695
0.712727
0.712764
0.712808
0.71286
0.712918
0.712983
0.713054
0.713132
0.713216
0.713305
0.713398
0.713494
0.713593
0.713692
0.713792
0.71389
0.713986
0.714078
0.714165
0.714247
0.714322
0.714391
0.714451
0.714504
0.714549
0.714586
0.714616
0.714639
0.714657
0.714669
0.714678
0.714684
0.714687
0.71469
0.714692
0.714694
0.714698
0.714702
0.714707
0.714714
0.714721
0.714728
0.714736
0.714744
0.71475
0.714756
0.714761
0.714764
0.714766
0.714768
0.714769
0.71477
0.714771
0.714774
0.714779
0.714786
0.714796
0.71481
0.714826
0.714847
0.71487
0.714896
0.714926
0.714957
0.71499
0.715025
0.71506
0.715096
0.71513
0.715164
0.715195
0.715224
0.715249
0.715271
0.715289
0.715303
0.715312
0.715318
0.715319
0.715317
0.715313
0.715306
0.715296
0.715286
0.715274
0.715262
0.715249
0.715236
0.715223
0.71521
0.715198
0.715185
0.715173
0.715162
0.71515
0.715139
0.715129
0.715118
0.715107
0.715097
0.715087
0.715076
0.715066
0.715056
0.715046
0.715035
0.715025
0.715015
0.715004
0.714994
0.714983
0.714973
0.714963
0.714952
0.714942
0.714931
0.714921
0.71491
0.7149
0.714889
0.714879
0.714868
0.714858
0.714847
0.714837
0.714826
0.714816
0.714805
0.714795
0.714784
0.714774
0.714763
0.714753
0.714742
0.714732
0.714721
0.714711
0.7147
0.71469
0.714679
0.714669
0.714658
0.714648
0.714637
0.714627
0.714616
0.714606
0.714595
0.714585
0.714574
0.714564
0.714553
0.714543
0.714533
0.714522
0.714512
0.714501
0.714491
0.71448
0.71447
0.714459
0.714449
0.714438
0.714428
0.714417
0.714407
0.714396
0.714386
0.714375
0.714365
0.714354
0.714344
0.714333
0.714323
0.714312
0.714302
0.714291
0.712578
0.712593
0.712593
0.712599
0.7126
0.712601
0.712602
0.712602
0.712603
0.712603
0.712602
0.712602
0.712602
0.712602
0.712603
0.712605
0.712608
0.712613
0.712621
0.712632
0.712648
0.712668
0.712693
0.712724
0.712762
0.712806
0.712857
0.712915
0.712979
0.71305
0.713127
0.71321
0.713297
0.713388
0.713482
0.713577
0.713674
0.713769
0.713863
0.713953
0.71404
0.714121
0.714196
0.714265
0.714325
0.714379
0.714424
0.714461
0.714491
0.714514
0.714531
0.714544
0.714552
0.714557
0.714561
0.714564
0.714567
0.714571
0.714576
0.714584
0.714593
0.714605
0.714619
0.714634
0.714651
0.714668
0.714686
0.714703
0.714719
0.714734
0.714748
0.714759
0.714768
0.714776
0.714783
0.714789
0.714795
0.714802
0.71481
0.71482
0.714833
0.714849
0.714867
0.714889
0.714914
0.714941
0.714971
0.715002
0.715035
0.715069
0.715102
0.715135
0.715166
0.715196
0.715223
0.715247
0.715268
0.715284
0.715297
0.715306
0.715311
0.715312
0.71531
0.715306
0.715299
0.71529
0.71528
0.715269
0.715257
0.715245
0.715233
0.715221
0.715209
0.715197
0.715185
0.715173
0.715162
0.715151
0.71514
0.715129
0.715118
0.715108
0.715097
0.715087
0.715077
0.715066
0.715056
0.715046
0.715035
0.715025
0.715015
0.715004
0.714994
0.714983
0.714973
0.714963
0.714952
0.714942
0.714931
0.714921
0.71491
0.7149
0.714889
0.714879
0.714868
0.714858
0.714847
0.714837
0.714826
0.714816
0.714805
0.714795
0.714784
0.714774
0.714763
0.714753
0.714742
0.714732
0.714721
0.714711
0.7147
0.71469
0.714679
0.714669
0.714658
0.714648
0.714637
0.714627
0.714616
0.714606
0.714595
0.714585
0.714574
0.714564
0.714553
0.714543
0.714533
0.714522
0.714512
0.714501
0.714491
0.71448
0.71447
0.714459
0.714449
0.714438
0.714428
0.714417
0.714407
0.714396
0.714386
0.714375
0.714365
0.714354
0.714344
0.714333
0.714323
0.714312
0.714302
0.714291
0.712578
0.712594
0.712593
0.712597
0.712597
0.712599
0.7126
0.712602
0.712602
0.712603
0.712603
0.712603
0.712603
0.712604
0.712605
0.712607
0.71261
0.712616
0.712625
0.712637
0.712653
0.712673
0.7127
0.712732
0.71277
0.712815
0.712866
0.712924
0.712989
0.713059
0.713135
0.713217
0.713302
0.71339
0.713481
0.713572
0.713663
0.713753
0.71384
0.713923
0.714002
0.714074
0.71414
0.714199
0.714249
0.714292
0.714327
0.714355
0.714376
0.71439
0.7144
0.714406
0.71441
0.714412
0.714414
0.714416
0.71442
0.714427
0.714436
0.714448
0.714464
0.714483
0.714504
0.714529
0.714555
0.714583
0.714611
0.71464
0.714668
0.714695
0.71472
0.714744
0.714764
0.714783
0.714799
0.714813
0.714826
0.714837
0.714849
0.714861
0.714875
0.714891
0.714908
0.714928
0.71495
0.714975
0.715002
0.71503
0.715059
0.715089
0.715119
0.715148
0.715177
0.715203
0.715227
0.715248
0.715266
0.715281
0.715292
0.715299
0.715303
0.715303
0.715301
0.715296
0.71529
0.715282
0.715273
0.715263
0.715252
0.715241
0.71523
0.715218
0.715207
0.715195
0.715184
0.715173
0.715162
0.715151
0.71514
0.71513
0.715119
0.715108
0.715098
0.715088
0.715077
0.715067
0.715056
0.715046
0.715036
0.715025
0.715015
0.715004
0.714994
0.714984
0.714973
0.714963
0.714952
0.714942
0.714931
0.714921
0.71491
0.7149
0.714889
0.714879
0.714868
0.714858
0.714847
0.714837
0.714826
0.714816
0.714805
0.714795
0.714784
0.714774
0.714763
0.714753
0.714742
0.714732
0.714721
0.714711
0.7147
0.71469
0.714679
0.714669
0.714658
0.714648
0.714637
0.714627
0.714616
0.714606
0.714595
0.714585
0.714574
0.714564
0.714553
0.714543
0.714533
0.714522
0.714512
0.714501
0.714491
0.71448
0.71447
0.714459
0.714449
0.714438
0.714428
0.714417
0.714407
0.714396
0.714386
0.714375
0.714365
0.714354
0.714344
0.714333
0.714323
0.714312
0.714302
0.714291
0.71242
0.712561
0.712579
0.712601
0.712604
0.712607
0.712608
0.712609
0.712609
0.712609
0.712609
0.712609
0.71261
0.712611
0.712612
0.712615
0.71262
0.712627
0.712637
0.712651
0.712669
0.712692
0.71272
0.712754
0.712794
0.712841
0.712893
0.712952
0.713017
0.713088
0.713163
0.713243
0.713325
0.71341
0.713496
0.713582
0.713667
0.713749
0.713827
0.713901
0.713968
0.71403
0.714084
0.71413
0.714168
0.714199
0.714223
0.71424
0.714251
0.714258
0.714261
0.714263
0.714263
0.714264
0.714265
0.714269
0.714276
0.714287
0.714301
0.714318
0.71434
0.714366
0.714395
0.714427
0.714462
0.7145
0.714538
0.714577
0.714616
0.714655
0.714692
0.714727
0.714759
0.714789
0.714816
0.71484
0.714862
0.714881
0.714899
0.714916
0.714932
0.714949
0.714966
0.714985
0.715005
0.715026
0.715049
0.715073
0.715097
0.715122
0.715147
0.715172
0.715195
0.715216
0.715236
0.715253
0.715267
0.715278
0.715286
0.715292
0.715294
0.715293
0.715291
0.715286
0.71528
0.715273
0.715265
0.715256
0.715246
0.715236
0.715226
0.715215
0.715205
0.715194
0.715183
0.715173
0.715162
0.715151
0.715141
0.71513
0.71512
0.715109
0.715099
0.715088
0.715078
0.715067
0.715057
0.715046
0.715036
0.715025
0.715015
0.715004
0.714994
0.714984
0.714973
0.714963
0.714952
0.714942
0.714931
0.714921
0.71491
0.7149
0.714889
0.714879
0.714868
0.714858
0.714847
0.714837
0.714826
0.714816
0.714805
0.714795
0.714784
0.714774
0.714763
0.714753
0.714742
0.714732
0.714721
0.714711
0.7147
0.71469
0.714679
0.714669
0.714658
0.714648
0.714637
0.714627
0.714616
0.714606
0.714595
0.714585
0.714574
0.714564
0.714553
0.714543
0.714533
0.714522
0.714512
0.714501
0.714491
0.71448
0.71447
0.714459
0.714449
0.714438
0.714428
0.714417
0.714407
0.714396
0.714386
0.714375
0.714365
0.714354
0.714344
0.714333
0.714323
0.714312
0.714302
0.714291
0.713161
0.713105
0.713042
0.712974
0.712901
0.712822
0.712734
0.712613
0.713168
0.713121
0.713058
0.712989
0.712915
0.712836
0.712744
0.712646
0.713173
0.713133
0.713075
0.713009
0.71294
0.712868
0.712796
0.712725
0.713183
0.713149
0.713096
0.713035
0.712971
0.712906
0.712843
0.712785
0.713197
0.713165
0.713116
0.713059
0.713
0.712943
0.71289
0.712842
0.713212
0.713179
0.713131
0.713077
0.713024
0.712972
0.712925
0.712884
0.713228
0.71319
0.713141
0.713089
0.713038
0.712991
0.712948
0.71291
0.713236
0.713189
0.713139
0.713089
0.713042
0.712997
0.712955
0.712917
0.712548
0.712568
0.712588
0.7126
0.712606
0.71261
0.712612
0.712613
0.712614
0.712616
0.712617
0.712618
0.71262
0.712623
0.712627
0.712633
0.71264
0.712651
0.712664
0.712682
0.712703
0.71273
0.712762
0.7128
0.712843
0.712893
0.712948
0.713009
0.713075
0.713145
0.713219
0.713297
0.713376
0.713456
0.713536
0.713614
0.71369
0.713761
0.713828
0.71389
0.713944
0.713992
0.714032
0.714065
0.71409
0.714109
0.714122
0.71413
0.714134
0.714136
0.714136
0.714136
0.714137
0.714139
0.714143
0.71415
0.714161
0.714176
0.714195
0.714218
0.714245
0.714276
0.714311
0.71435
0.714392
0.714436
0.714482
0.714529
0.714577
0.714624
0.714671
0.714715
0.714758
0.714798
0.714835
0.714869
0.714899
0.714927
0.714952
0.714974
0.714995
0.715014
0.715033
0.715051
0.715069
0.715088
0.715107
0.715126
0.715145
0.715164
0.715183
0.715201
0.715218
0.715234
0.715248
0.71526
0.71527
0.715277
0.715282
0.715285
0.715285
0.715284
0.715281
0.715276
0.715271
0.715264
0.715257
0.715248
0.71524
0.715231
0.715222
0.715212
0.715202
0.715192
0.715182
0.715172
0.715162
0.715152
0.715141
0.715131
0.71512
0.71511
0.715099
0.715089
0.715078
0.715068
0.715057
0.715047
0.715036
0.715026
0.715015
0.715005
0.714994
0.714984
0.714973
0.714963
0.714952
0.714942
0.714931
0.714921
0.71491
0.7149
0.714889
0.714879
0.714868
0.714858
0.714847
0.714837
0.714826
0.714816
0.714805
0.714795
0.714784
0.714774
0.714763
0.714753
0.714742
0.714732
0.714721
0.714711
0.7147
0.71469
0.714679
0.714669
0.714658
0.714648
0.714637
0.714627
0.714616
0.714606
0.714595
0.714585
0.714574
0.714564
0.714553
0.714543
0.714533
0.714522
0.714512
0.714501
0.714491
0.71448
0.71447
0.714459
0.714449
0.714438
0.714428
0.714417
0.714407
0.714396
0.714386
0.714375
0.714365
0.714354
0.714344
0.714333
0.714323
0.714312
0.714302
0.714291
0.712572
0.712581
0.712594
0.712607
0.712615
0.712621
0.712625
0.712628
0.71263
0.712633
0.712636
0.71264
0.712645
0.712651
0.712658
0.712668
0.71268
0.712696
0.712714
0.712737
0.712765
0.712797
0.712834
0.712877
0.712925
0.712978
0.713036
0.713099
0.713165
0.713235
0.713307
0.71338
0.713454
0.713527
0.713598
0.713666
0.71373
0.713788
0.713841
0.713888
0.713928
0.713961
0.713987
0.714007
0.714021
0.714031
0.714037
0.714041
0.714044
0.714045
0.714047
0.714049
0.714053
0.714058
0.714066
0.714077
0.714092
0.71411
0.714131
0.714158
0.714188
0.714223
0.714261
0.714303
0.714349
0.714398
0.714449
0.714501
0.714555
0.714608
0.714662
0.714714
0.714764
0.714812
0.714857
0.714898
0.714936
0.714971
0.715002
0.715029
0.715054
0.715077
0.715097
0.715115
0.715132
0.715148
0.715164
0.715179
0.715193
0.715207
0.71522
0.715232
0.715243
0.715252
0.715261
0.715267
0.715272
0.715276
0.715278
0.715278
0.715277
0.715275
0.715271
0.715267
0.715262
0.715256
0.715249
0.715242
0.715235
0.715227
0.715218
0.71521
0.715201
0.715191
0.715182
0.715172
0.715162
0.715152
0.715142
0.715131
0.715121
0.71511
0.7151
0.715089
0.715079
0.715068
0.715058
0.715047
0.715036
0.715026
0.715015
0.715005
0.714994
0.714984
0.714973
0.714963
0.714952
0.714942
0.714931
0.714921
0.71491
0.7149
0.714889
0.714879
0.714868
0.714858
0.714847
0.714837
0.714826
0.714816
0.714805
0.714795
0.714784
0.714774
0.714763
0.714753
0.714742
0.714732
0.714721
0.714711
0.7147
0.71469
0.714679
0.714669
0.714658
0.714648
0.714637
0.714627
0.714616
0.714606
0.714595
0.714585
0.714574
0.714564
0.714553
0.714543
0.714533
0.714522
0.714512
0.714501
0.714491
0.71448
0.71447
0.714459
0.714449
0.714438
0.714428
0.714417
0.714407
0.714396
0.714386
0.714375
0.714365
0.714354
0.714344
0.714333
0.714323
0.714312
0.714302
0.714291
0.712672
0.712647
0.712642
0.712642
0.712645
0.712647
0.71265
0.712653
0.712657
0.712661
0.712666
0.712673
0.712682
0.712692
0.712705
0.71272
0.712739
0.71276
0.712786
0.712816
0.71285
0.712889
0.712933
0.712981
0.713034
0.713091
0.713152
0.713215
0.713281
0.713348
0.713416
0.713483
0.713549
0.713612
0.713671
0.713726
0.713775
0.713818
0.713855
0.713886
0.713911
0.713932
0.713948
0.71396
0.713971
0.713978
0.713985
0.713989
0.713994
0.713998
0.714002
0.714008
0.714014
0.714023
0.714033
0.714046
0.714062
0.714081
0.714104
0.714131
0.714163
0.714198
0.714238
0.714282
0.71433
0.714381
0.714435
0.714491
0.714548
0.714605
0.714663
0.71472
0.714775
0.714828
0.714879
0.714926
0.714969
0.715008
0.715044
0.715076
0.715104
0.715128
0.71515
0.715169
0.715185
0.715199
0.715212
0.715223
0.715233
0.715242
0.71525
0.715256
0.715262
0.715267
0.71527
0.715273
0.715274
0.715275
0.715274
0.715273
0.71527
0.715267
0.715263
0.715259
0.715254
0.715249
0.715243
0.715237
0.71523
0.715223
0.715215
0.715207
0.715199
0.71519
0.715181
0.715172
0.715162
0.715152
0.715142
0.715132
0.715121
0.715111
0.7151
0.71509
0.715079
0.715068
0.715058
0.715047
0.715037
0.715026
0.715015
0.715005
0.714994
0.714984
0.714973
0.714963
0.714952
0.714942
0.714931
0.714921
0.71491
0.7149
0.714889
0.714879
0.714868
0.714858
0.714847
0.714837
0.714826
0.714816
0.714805
0.714795
0.714784
0.714774
0.714763
0.714753
0.714742
0.714732
0.714721
0.714711
0.7147
0.71469
0.714679
0.714669
0.714658
0.714648
0.714637
0.714627
0.714616
0.714606
0.714595
0.714585
0.714574
0.714564
0.714553
0.714543
0.714533
0.714522
0.714512
0.714501
0.714491
0.71448
0.71447
0.714459
0.714449
0.714438
0.714428
0.714417
0.714407
0.714396
0.714386
0.714375
0.714365
0.714354
0.714344
0.714333
0.714323
0.714312
0.714302
0.714291
0.712738
0.712711
0.712697
0.712691
0.712688
0.712687
0.712688
0.71269
0.712694
0.712699
0.712707
0.712716
0.712729
0.712743
0.712761
0.712782
0.712807
0.712835
0.712868
0.712905
0.712946
0.712991
0.713041
0.713095
0.713152
0.713212
0.713274
0.713337
0.713399
0.713461
0.713522
0.71358
0.713634
0.713685
0.713729
0.713769
0.713803
0.713832
0.713858
0.71388
0.713898
0.713913
0.713925
0.713934
0.713943
0.713951
0.713959
0.713967
0.713975
0.713983
0.71399
0.713998
0.714005
0.714014
0.714025
0.714038
0.714053
0.714073
0.714096
0.714123
0.714155
0.714192
0.714233
0.714277
0.714326
0.714379
0.714434
0.714492
0.714551
0.714611
0.714671
0.714731
0.714789
0.714845
0.714899
0.714949
0.714995
0.715038
0.715076
0.71511
0.71514
0.715166
0.715188
0.715207
0.715223
0.715236
0.715246
0.715255
0.715261
0.715267
0.715271
0.715274
0.715275
0.715276
0.715277
0.715276
0.715275
0.715273
0.715271
0.715268
0.715265
0.715262
0.715258
0.715253
0.715249
0.715244
0.715239
0.715233
0.715227
0.71522
0.715213
0.715206
0.715198
0.71519
0.715181
0.715172
0.715162
0.715153
0.715143
0.715132
0.715122
0.715111
0.715101
0.71509
0.715079
0.715069
0.715058
0.715047
0.715037
0.715026
0.715015
0.715005
0.714994
0.714984
0.714973
0.714963
0.714952
0.714942
0.714931
0.714921
0.71491
0.7149
0.714889
0.714879
0.714868
0.714858
0.714847
0.714837
0.714826
0.714816
0.714805
0.714795
0.714784
0.714774
0.714763
0.714753
0.714742
0.714732
0.714721
0.714711
0.7147
0.71469
0.714679
0.714669
0.714658
0.714648
0.714637
0.714627
0.714616
0.714606
0.714595
0.714585
0.714574
0.714564
0.714553
0.714543
0.714533
0.714522
0.714512
0.714501
0.714491
0.71448
0.71447
0.714459
0.714449
0.714438
0.714428
0.714417
0.714407
0.714396
0.714386
0.714375
0.714365
0.714354
0.714344
0.714333
0.714323
0.714312
0.714302
0.714291
0.712804
0.712776
0.712757
0.712745
0.712738
0.712733
0.712731
0.712731
0.712734
0.712739
0.712748
0.71276
0.712775
0.712793
0.712816
0.712842
0.712872
0.712906
0.712944
0.712987
0.713034
0.713085
0.713139
0.713197
0.713256
0.713315
0.713375
0.713433
0.713489
0.713542
0.713593
0.713642
0.713686
0.713727
0.713762
0.713791
0.713815
0.713834
0.713849
0.713863
0.713876
0.71389
0.713905
0.71392
0.713934
0.713947
0.713958
0.713967
0.713975
0.713982
0.713989
0.713996
0.714004
0.714013
0.714024
0.714037
0.714054
0.714074
0.714097
0.714125
0.714158
0.714195
0.714236
0.714281
0.714331
0.714384
0.71444
0.714498
0.714558
0.71462
0.714681
0.714742
0.714802
0.714859
0.714914
0.714966
0.715014
0.715058
0.715098
0.715133
0.715164
0.71519
0.715212
0.715231
0.715246
0.715257
0.715266
0.715273
0.715278
0.715281
0.715283
0.715283
0.715283
0.715282
0.71528
0.715278
0.715275
0.715272
0.715269
0.715265
0.715262
0.715258
0.715254
0.71525
0.715245
0.715241
0.715236
0.71523
0.715225
0.715218
0.715212
0.715205
0.715197
0.715189
0.715181
0.715172
0.715162
0.715153
0.715143
0.715133
0.715122
0.715112
0.715101
0.71509
0.71508
0.715069
0.715058
0.715048
0.715037
0.715026
0.715015
0.715005
0.714994
0.714984
0.714973
0.714963
0.714952
0.714942
0.714931
0.714921
0.71491
0.7149
0.714889
0.714879
0.714868
0.714858
0.714847
0.714837
0.714826
0.714816
0.714805
0.714795
0.714784
0.714774
0.714763
0.714753
0.714742
0.714732
0.714721
0.714711
0.7147
0.71469
0.714679
0.714669
0.714658
0.714648
0.714637
0.714627
0.714616
0.714606
0.714595
0.714585
0.714574
0.714564
0.714553
0.714543
0.714533
0.714522
0.714512
0.714501
0.714491
0.71448
0.71447
0.714459
0.714449
0.714438
0.714428
0.714417
0.714407
0.714396
0.714386
0.714375
0.714365
0.714354
0.714344
0.714333
0.714323
0.714312
0.714302
0.714291
0.712849
0.712822
0.712801
0.712786
0.712774
0.712766
0.712761
0.71276
0.712762
0.712768
0.712777
0.712791
0.712808
0.71283
0.712855
0.712884
0.712918
0.712956
0.712998
0.713044
0.713093
0.713146
0.713201
0.713259
0.713317
0.713376
0.713432
0.713486
0.713537
0.713583
0.713626
0.713665
0.713698
0.713725
0.713748
0.713768
0.713789
0.713811
0.713834
0.713856
0.713876
0.713894
0.713909
0.713922
0.713934
0.713944
0.713954
0.713963
0.713972
0.71398
0.713988
0.713996
0.714005
0.714015
0.714027
0.714041
0.714058
0.714079
0.714103
0.714132
0.714165
0.714202
0.714244
0.71429
0.71434
0.714393
0.714449
0.714508
0.714569
0.71463
0.714692
0.714753
0.714813
0.714871
0.714927
0.714979
0.715027
0.715071
0.715111
0.715146
0.715177
0.715203
0.715225
0.715243
0.715257
0.715269
0.715277
0.715282
0.715286
0.715288
0.715289
0.715288
0.715287
0.715284
0.715282
0.715278
0.715275
0.715271
0.715267
0.715264
0.71526
0.715256
0.715252
0.715248
0.715243
0.715239
0.715234
0.715229
0.715223
0.715217
0.715211
0.715204
0.715197
0.715189
0.71518
0.715171
0.715162
0.715153
0.715143
0.715133
0.715122
0.715112
0.715101
0.715091
0.71508
0.715069
0.715058
0.715048
0.715037
0.715026
0.715016
0.715005
0.714994
0.714984
0.714973
0.714963
0.714952
0.714942
0.714931
0.714921
0.71491
0.7149
0.714889
0.714879
0.714868
0.714858
0.714847
0.714837
0.714826
0.714816
0.714805
0.714795
0.714784
0.714774
0.714763
0.714753
0.714742
0.714732
0.714721
0.714711
0.7147
0.71469
0.714679
0.714669
0.714658
0.714648
0.714637
0.714627
0.714616
0.714606
0.714595
0.714585
0.714574
0.714564
0.714553
0.714543
0.714533
0.714522
0.714512
0.714501
0.714491
0.71448
0.71447
0.714459
0.714449
0.714438
0.714428
0.714417
0.714407
0.714396
0.714386
0.714375
0.714365
0.714354
0.714344
0.714333
0.714323
0.714312
0.714302
0.714291
0.712877
0.712849
0.712826
0.712808
0.712794
0.712784
0.712777
0.712775
0.712777
0.712783
0.712794
0.712808
0.712827
0.71285
0.712877
0.712908
0.712943
0.712983
0.713026
0.713073
0.713123
0.713176
0.713231
0.713286
0.713341
0.713394
0.713442
0.713487
0.713527
0.713566
0.713604
0.713642
0.71368
0.713715
0.713746
0.713773
0.713797
0.713819
0.713838
0.713856
0.713873
0.713888
0.713903
0.713917
0.71393
0.713942
0.713953
0.713962
0.713971
0.713979
0.713988
0.713996
0.714006
0.714016
0.714029
0.714044
0.714062
0.714084
0.714109
0.714138
0.714171
0.714209
0.714251
0.714297
0.714347
0.714401
0.714457
0.714516
0.714576
0.714638
0.714699
0.71476
0.71482
0.714878
0.714933
0.714985
0.715033
0.715077
0.715117
0.715152
0.715182
0.715208
0.71523
0.715247
0.715261
0.715272
0.71528
0.715285
0.715289
0.71529
0.71529
0.715289
0.715287
0.715285
0.715282
0.715278
0.715274
0.715271
0.715267
0.715263
0.715259
0.715255
0.715251
0.715247
0.715243
0.715238
0.715233
0.715228
0.715223
0.715217
0.715211
0.715204
0.715196
0.715188
0.71518
0.715171
0.715162
0.715152
0.715143
0.715132
0.715122
0.715112
0.715101
0.715091
0.71508
0.715069
0.715058
0.715048
0.715037
0.715026
0.715016
0.715005
0.714994
0.714984
0.714973
0.714963
0.714952
0.714942
0.714931
0.714921
0.71491
0.7149
0.714889
0.714879
0.714868
0.714858
0.714847
0.714837
0.714826
0.714816
0.714805
0.714795
0.714784
0.714774
0.714763
0.714753
0.714742
0.714732
0.714721
0.714711
0.7147
0.71469
0.714679
0.714669
0.714658
0.714648
0.714637
0.714627
0.714616
0.714606
0.714595
0.714585
0.714574
0.714564
0.714553
0.714543
0.714533
0.714522
0.714512
0.714501
0.714491
0.71448
0.71447
0.714459
0.714449
0.714438
0.714428
0.714417
0.714407
0.714396
0.714386
0.714375
0.714365
0.714354
0.714344
0.714333
0.714323
0.714312
0.714302
0.714291
0.712884
0.712855
0.71283
0.712809
0.712793
0.712782
0.712775
0.712772
0.712774
0.71278
0.712791
0.712805
0.712824
0.712847
0.712873
0.712904
0.712938
0.712976
0.713017
0.713062
0.71311
0.71316
0.713212
0.713266
0.71332
0.713373
0.713424
0.713473
0.71352
0.713563
0.713605
0.713644
0.71368
0.713712
0.713739
0.713765
0.713788
0.713811
0.713832
0.713852
0.713871
0.713887
0.713903
0.713916
0.713929
0.71394
0.71395
0.713959
0.713968
0.713977
0.713985
0.713994
0.714004
0.714016
0.714029
0.714045
0.714064
0.714086
0.714112
0.714142
0.714176
0.714215
0.714257
0.714304
0.714354
0.714408
0.714465
0.714524
0.714584
0.714646
0.714707
0.714768
0.714828
0.714885
0.71494
0.714992
0.715039
0.715083
0.715122
0.715156
0.715186
0.715212
0.715233
0.71525
0.715264
0.715274
0.715281
0.715286
0.715289
0.71529
0.71529
0.715289
0.715287
0.715284
0.715281
0.715278
0.715274
0.71527
0.715266
0.715263
0.715259
0.715255
0.715251
0.715247
0.715243
0.715238
0.715233
0.715228
0.715223
0.715217
0.71521
0.715204
0.715196
0.715188
0.71518
0.715171
0.715162
0.715152
0.715142
0.715132
0.715122
0.715112
0.715101
0.71509
0.71508
0.715069
0.715058
0.715048
0.715037
0.715026
0.715016
0.715005
0.714994
0.714984
0.714973
0.714963
0.714952
0.714942
0.714931
0.714921
0.71491
0.7149
0.714889
0.714879
0.714868
0.714858
0.714847
0.714837
0.714826
0.714816
0.714805
0.714795
0.714784
0.714774
0.714763
0.714753
0.714742
0.714732
0.714721
0.714711
0.7147
0.71469
0.714679
0.714669
0.714658
0.714648
0.714637
0.714627
0.714616
0.714606
0.714595
0.714585
0.714574
0.714564
0.714553
0.714543
0.714533
0.714522
0.714512
0.714501
0.714491
0.71448
0.71447
0.714459
0.714449
0.714438
0.714428
0.714417
0.714407
0.714396
0.714386
0.714375
0.714365
0.714354
0.714344
0.714333
0.714323
0.714312
0.714302
0.714291
)
;

boundaryField
{
    inlet
    {
        type            zeroGradient;
    }
    outlet
    {