/*--------------------------------*- C++ -*----------------------------------*\
| =========                 |                                                 |
| \\      /  F ield         | OpenFOAM: The Open Source CFD Toolbox           |
|  \\    /   O peration     | Version:  4.1                                   |
|   \\  /    A nd           | Web:      www.OpenFOAM.org                      |
|    \\/     M anipulation  |                                                 |
\*---------------------------------------------------------------------------*/
FoamFile
{
    version     2.0;
    format      ascii;
    class       volScalarField;
    location    "120";
    object      p;
}
// * * * * * * * * * * * * * * * * * * * * * * * * * * * * * * * * * * * * * //

dimensions      [1 -1 -2 0 0 0 0];

internalField   nonuniform List<scalar> 
1275
(
0.712013
0.712019
0.712018
0.712016
0.712005
0.711987
0.711957
0.711917
0.711864
0.711804
0.711744
0.711695
0.71166
0.711636
0.711629
0.711634
0.711589
0.711491
0.71141
0.711335
0.711186
0.710971
0.710766
0.710633
0.710606
0.710687
0.710864
0.711116
0.711423
0.711767
0.712133
0.71251
0.712892
0.713269
0.713635
0.713983
0.714302
0.714585
0.714822
0.715008
0.715138
0.715212
0.715231
0.715203
0.715135
0.715038
0.714923
0.714801
0.714682
0.71457
0.714467
0.714373
0.714284
0.714203
0.714132
0.714077
0.714045
0.714027
0.71401
0.713986
0.713952
0.713914
0.713877
0.713849
0.713835
0.713839
0.713861
0.7139
0.713957
0.714029
0.714116
0.714216
0.714326
0.714444
0.714563
0.71468
0.714788
0.714886
0.71497
0.715039
0.715095
0.715139
0.715172
0.715195
0.715211
0.71522
0.715225
0.715227
0.715225
0.715222
0.715217
0.715211
0.715205
0.715198
0.715191
0.715184
0.715176
0.715169
0.715162
0.715155
0.715148
0.715141
0.715134
0.715128
0.715121
0.715115
0.715109
0.715102
0.715096
0.71509
0.715084
0.715078
0.715072
0.715066
0.715061
0.715055
0.715049
0.715043
0.715037
0.715032
0.715026
0.71502
0.712007
0.712012
0.71201
0.712007
0.711996
0.711978
0.711948
0.711906
0.711849
0.711786
0.711723
0.711675
0.711649
0.711643
0.711654
0.711669
0.711676
0.711602
0.711429
0.711234
0.711004
0.710756
0.710554
0.710444
0.710446
0.710557
0.710761
0.711035
0.711357
0.711711
0.712082
0.712463
0.712845
0.713223
0.713589
0.713937
0.714257
0.714541
0.71478
0.714968
0.7151
0.715175
0.715195
0.715167
0.715098
0.715001
0.714885
0.714761
0.714639
0.714524
0.71442
0.714325
0.714241
0.714175
0.714132
0.714106
0.714086
0.71406
0.71403
0.713999
0.713961
0.713917
0.713874
0.71384
0.713823
0.713825
0.713846
0.713886
0.713942
0.714013
0.7141
0.7142
0.714313
0.714433
0.714556
0.714676
0.714787
0.714887
0.714972
0.715043
0.715099
0.715143
0.715175
0.715198
0.715213
0.715222
0.715227
0.715228
0.715226
0.715222
0.715217
0.715211
0.715205
0.715198
0.715191
0.715183
0.715176
0.715169
0.715162
0.715155
0.715148
0.715141
0.715134
0.715128
0.715121
0.715115
0.715109
0.715102
0.715096
0.71509
0.715084
0.715078
0.715072
0.715066
0.715061
0.715055
0.715049
0.715043
0.715037
0.715032
0.715026
0.71502
0.712009
0.712011
0.712008
0.712003
0.71199
0.711972
0.711939
0.711893
0.711829
0.711757
0.711685
0.711631
0.711607
0.711615
0.711651
0.711678
0.711621
0.711477
0.711248
0.710959
0.710655
0.710389
0.71021
0.710145
0.710198
0.710358
0.710603
0.710907
0.711251
0.711616
0.711994
0.712376
0.712757
0.713133
0.713498
0.713844
0.714162
0.714445
0.714682
0.714867
0.714995
0.715066
0.715082
0.71505
0.714976
0.714874
0.714752
0.714623
0.714496
0.714379
0.714276
0.714188
0.714118
0.714067
0.714031
0.714009
0.714003
0.714008
0.714004
0.713981
0.713943
0.713897
0.713852
0.713817
0.7138
0.713803
0.713826
0.713866
0.713923
0.713994
0.714081
0.714182
0.714297
0.714422
0.714549
0.714674
0.714789
0.714892
0.714979
0.71505
0.715106
0.715149
0.71518
0.715202
0.715216
0.715224
0.715228
0.715229
0.715226
0.715223
0.715217
0.715211
0.715205
0.715198
0.71519
0.715183
0.715176
0.715169
0.715161
0.715154
0.715148
0.715141
0.715134
0.715128
0.715121
0.715115
0.715108
0.715102
0.715096
0.71509
0.715084
0.715078
0.715072
0.715066
0.715061
0.715055
0.715049
0.715043
0.715037
0.715032
0.715026
0.71502
0.712
0.712
0.711995
0.71199
0.711977
0.711959
0.711927
0.711882
0.711817
0.711742
0.711665
0.711608
0.711586
0.711599
0.711621
0.71163
0.711564
0.711356
0.711031
0.71067
0.710333
0.710071
0.709919
0.709892
0.709987
0.710184
0.710459
0.710786
0.711143
0.711515
0.711895
0.712275
0.712653
0.713025
0.713384
0.713724
0.714036
0.71431
0.714537
0.714712
0.714828
0.714886
0.714889
0.714843
0.714756
0.71464
0.714506
0.714366
0.714229
0.714105
0.713999
0.713915
0.713857
0.713827
0.713822
0.713839
0.713867
0.713893
0.713909
0.713912
0.713895
0.713861
0.713822
0.713792
0.71378
0.713786
0.713811
0.713851
0.713905
0.713973
0.714057
0.714159
0.714275
0.714404
0.714537
0.714668
0.714788
0.714895
0.714984
0.715056
0.715111
0.715153
0.715183
0.715204
0.715217
0.715225
0.715228
0.715228
0.715225
0.715221
0.715216
0.71521
0.715203
0.715196
0.715189
0.715182
0.715175
0.715168
0.715161
0.715154
0.715147
0.71514
0.715134
0.715127
0.715121
0.715114
0.715108
0.715102
0.715096
0.71509
0.715084
0.715078
0.715072
0.715066
0.71506
0.715055
0.715049
0.715043
0.715037
0.715032
0.715026
0.71502
0.712007
0.712004
0.711997
0.711988
0.711973
0.711953
0.711922
0.711882
0.711828
0.711768
0.71171
0.711671
0.711663
0.711688
0.711722
0.711702
0.711551
0.711258
0.710868
0.71046
0.710099
0.709836
0.709699
0.709696
0.709816
0.710038
0.710333
0.710672
0.711036
0.71141
0.711787
0.712163
0.712535
0.712899
0.713249
0.713578
0.713876
0.714133
0.714341
0.714493
0.714586
0.714619
0.714597
0.714527
0.714416
0.714278
0.714123
0.713963
0.71381
0.713674
0.713563
0.713484
0.713439
0.71343
0.713454
0.713503
0.713571
0.713647
0.713715
0.713765
0.713789
0.713792
0.713781
0.713768
0.713764
0.713776
0.713802
0.713841
0.713891
0.713954
0.714033
0.714132
0.71425
0.714383
0.714523
0.714661
0.714788
0.714898
0.71499
0.715062
0.715117
0.715157
0.715186
0.715205
0.715217
0.715224
0.715226
0.715226
0.715223
0.715219
0.715214
0.715208
0.715201
0.715195
0.715188
0.715181
0.715174
0.715167
0.71516
0.715153
0.715146
0.71514
0.715133
0.715127
0.71512
0.715114
0.715108
0.715102
0.715096
0.71509
0.715084
0.715078
0.715072
0.715066
0.71506
0.715055
0.715049
0.715043
0.715037
0.715032
0.715026
0.71502
0.711987
0.711985
0.711975
0.711966
0.711947
0.711929
0.711903
0.711879
0.711852
0.711831
0.711822
0.711836
0.711877
0.711931
0.711955
0.711888
0.71167
0.711302
0.710852
0.710405
0.710022
0.709751
0.709613
0.709615
0.709742
0.709968
0.710262
0.710599
0.710957
0.711324
0.711693
0.712062
0.712424
0.712777
0.713113
0.713423
0.713698
0.713928
0.714104
0.714222
0.714279
0.714277
0.71422
0.714116
0.713975
0.713807
0.713623
0.713436
0.713259
0.713104
0.712982
0.7129
0.712864
0.712877
0.712934
0.713031
0.713154
0.713289
0.71342
0.713536
0.713625
0.713685
0.713719
0.713738
0.713754
0.713775
0.713803
0.713838
0.71388
0.713935
0.714006
0.7141
0.714218
0.714355
0.714503
0.71465
0.714785
0.714901
0.714996
0.715069
0.715123
0.715162
0.715189
0.715206
0.715217
0.715222
0.715224
0.715223
0.715221
0.715216
0.715211
0.715205
0.715199
0.715192
0.715186
0.715179
0.715172
0.715165
0.715159
0.715152
0.715145
0.715139
0.715132
0.715126
0.71512
0.715114
0.715108
0.715102
0.715096
0.71509
0.715084
0.715078
0.715072
0.715066
0.71506
0.715055
0.715049
0.715043
0.715037
0.715031
0.715026
0.71502
0.711989
0.711983
0.711968
0.71195
0.711924
0.7119
0.711876
0.711863
0.711864
0.711887
0.711934
0.712011
0.712107
0.712195
0.712223
0.712123
0.711852
0.711438
0.710956
0.710487
0.710091
0.709811
0.709667
0.70966
0.709775
0.709985
0.710262
0.71058
0.710921
0.711273
0.711629
0.711984
0.712332
0.712668
0.712982
0.713264
0.713505
0.713697
0.713832
0.713908
0.713923
0.713882
0.71379
0.713654
0.71348
0.713281
0.713066
0.712849
0.712643
0.712461
0.712317
0.712223
0.712186
0.71221
0.712292
0.712426
0.712601
0.712801
0.713009
0.713207
0.713381
0.713521
0.713624
0.713695
0.713744
0.71378
0.713813
0.713845
0.71388
0.713925
0.713988
0.714075
0.714191
0.714332
0.714488
0.714644
0.714787
0.714909
0.715005
0.715078
0.715131
0.715168
0.715193
0.715208
0.715217
0.715222
0.715223
0.715221
0.715218
0.715213
0.715208
0.715202
0.715196
0.71519
0.715183
0.715177
0.71517
0.715164
0.715157
0.715151
0.715144
0.715138
0.715132
0.715126
0.715119
0.715113
0.715107
0.715101
0.715095
0.715089
0.715084
0.715078
0.715072
0.715066
0.71506
0.715054
0.715049
0.715043
0.715037
0.715031
0.715026
0.71502
0.711939
0.711947
0.711922
0.711909
0.711875
0.711852
0.711828
0.711828
0.711852
0.711917
0.71202
0.712156
0.712301
0.712418
0.712451
0.712342
0.712061
0.711643
0.711161
0.710693
0.710296
0.710011
0.709855
0.709829
0.709917
0.710096
0.710341
0.710629
0.710945
0.711277
0.711615
0.711952
0.712281
0.712592
0.712874
0.713121
0.713319
0.713466
0.713554
0.713587
0.713564
0.713491
0.713371
0.713212
0.713019
0.712797
0.712557
0.71231
0.712072
0.711859
0.711686
0.711569
0.711518
0.711538
0.71163
0.711788
0.712001
0.712254
0.71253
0.712811
0.713075
0.713308
0.713497
0.713637
0.713734
0.713798
0.713841
0.713872
0.7139
0.713935
0.713988
0.714069
0.714182
0.714325
0.714486
0.714649
0.714798
0.714923
0.71502
0.715092
0.715142
0.715176
0.715198
0.715211
0.715219
0.715221
0.715221
0.715219
0.715215
0.71521
0.715205
0.715199
0.715193
0.715187
0.715181
0.715174
0.715168
0.715162
0.715156
0.715149
0.715143
0.715137
0.715131
0.715125
0.715119
0.715113
0.715107
0.715101
0.715095
0.715089
0.715083
0.715078
0.715072
0.715066
0.71506
0.715054
0.715049
0.715043
0.715037
0.715031
0.715026
0.71502
0.711956
0.711955
0.711925
0.711896
0.711854
0.711819
0.711791
0.711791
0.711827
0.711912
0.712042
0.712207
0.712379
0.712516
0.712562
0.712468
0.712212
0.711829
0.711385
0.710947
0.71057
0.71029
0.710126
0.710078
0.710135
0.71028
0.710491
0.710749
0.71104
0.71135
0.711667
0.711981
0.712282
0.712559
0.7128
0.713001
0.71315
0.713251
0.713301
0.713304
0.713259
0.713174
0.713051
0.712887
0.712684
0.712454
0.712199
0.711929
0.711658
0.711407
0.711197
0.711047
0.710971
0.710976
0.711062
0.711225
0.711453
0.711734
0.712052
0.712393
0.712735
0.713059
0.713342
0.71357
0.713734
0.713842
0.713906
0.713943
0.713968
0.713995
0.714039
0.71411
0.714216
0.714354
0.714514
0.714677
0.714826
0.714949
0.715044
0.715111
0.715157
0.715187
0.715206
0.715216
0.715221
0.715222
0.71522
0.715217
0.715213
0.715208
0.715202
0.715197
0.715191
0.715185
0.715178
0.715172
0.715166
0.71516
0.715154
0.715148
0.715142
0.715136
0.71513
0.715124
0.715118
0.715112
0.715106
0.715101
0.715095
0.715089
0.715083
0.715077
0.715072
0.715066
0.71506
0.715054
0.715049
0.715043
0.715037
0.715031
0.715026
0.71502
0.71184
0.711922
0.711892
0.711884
0.711838
0.711808
0.711779
0.711782
0.711822
0.711917
0.71206
0.71224
0.71242
0.712555
0.712593
0.712498
0.712264
0.711924
0.711532
0.711145
0.710808
0.710554
0.710399
0.710348
0.710392
0.710518
0.710709
0.710948
0.711219
0.711507
0.711799
0.712084
0.712346
0.712581
0.712773
0.712927
0.713031
0.713095
0.713114
0.713101
0.713058
0.712977
0.712863
0.712719
0.712535
0.712302
0.712028
0.711722
0.71141
0.711115
0.710862
0.710674
0.71057
0.710558
0.710638
0.710803
0.711041
0.711338
0.711679
0.712053
0.712445
0.712837
0.713203
0.713519
0.713763
0.713929
0.714028
0.714078
0.714104
0.714124
0.714157
0.714216
0.714309
0.714436
0.714585
0.714739
0.714878
0.714992
0.715077
0.715136
0.715176
0.7152
0.715214
0.715221
0.715223
0.715222
0.715219
0.715215
0.71521
0.715205
0.715199
0.715194
0.715188
0.715182
0.715176
0.71517
0.715164
0.715158
0.715152
0.715146
0.715141
0.715135
0.715129
0.715123
0.715117
0.715112
0.715106
0.7151
0.715094
0.715089
0.715083
0.715077
0.715071
0.715066
0.71506
0.715054
0.715049
0.715043
0.715037
0.715031
0.715026
0.71502
0.712287
0.712245
0.712237
0.712194
0.712179
0.712131
0.71211
0.712049
0.712029
0.711939
0.711942
0.711958
0.711923
0.711895
0.71185
0.711819
0.711796
0.711806
0.711849
0.711938
0.712065
0.712219
0.712371
0.712485
0.712519
0.712441
0.712244
0.711956
0.711625
0.711299
0.711018
0.71081
0.710689
0.710658
0.710711
0.710837
0.711021
0.711246
0.711498
0.711758
0.712015
0.712256
0.712468
0.71265
0.712787
0.712892
0.712952
0.712992
0.71301
0.713002
0.712968
0.712918
0.712845
0.71271
0.712509
)
;

boundaryField
{
    inlet
    {
        type            zeroGradient;
    }
    outlet
    {
        type            fixedValue;
        value           nonuniform 0();
    }
    walls
    {
        type            zeroGradient;
    }
    symwall
    {
        type            empty;
    }
    procBoundary0to1
    {
        type            processor;
        value           nonuniform List<scalar> 10(0.715014 0.715014 0.715014 0.715014 0.715014 0.715014 0.715014 0.715014 0.715014 0.715014);
    }
    procBoundary0to2
    {
        type            processor;
        value           nonuniform List<scalar> 
133
(
0.712255
0.711949
0.711596
0.711221
0.710857
0.710544
0.710312
0.710185
0.71017
0.710266
0.710457
0.710724
0.711048
0.711413
0.711811
0.712235
0.712673
0.713105
0.713502
0.713831
0.714071
0.714221
0.714299
0.714332
0.714347
0.714366
0.714406
0.714478
0.714581
0.714707
0.714838
0.714957
0.715052
0.715121
0.715168
0.715198
0.715215
0.715223
0.715226
0.715226
0.715223
0.715218
0.715213
0.715208
0.715202
0.715196
0.715191
0.715185
0.715179
0.715173
0.715168
0.715162
0.715156
0.715151
0.715145
0.715139
0.715134
0.715128
0.715122
0.715117
0.715111
0.715105
0.7151
0.715094
0.715088
0.715083
0.715077
0.715071
0.715066
0.71506
0.715054
0.715048
0.715043
0.715037
0.715031
0.715026
0.71502
0.712298
0.71225
0.712242
0.712198
0.712183
0.712134
0.712112
0.712052
0.712026
0.711943
0.711893
0.711935
0.711903
0.711901
0.711866
0.711853
0.711841
0.711861
0.711908
0.711994
0.712108
0.71224
0.712361
0.712443
0.712455
0.712382
0.712223
0.712002
0.711752
0.711508
0.711302
0.711155
0.71108
0.711078
0.711147
0.711274
0.711446
0.711647
0.711864
0.712081
0.712288
0.712472
0.712624
0.712748
0.712832
0.712899
0.712936
0.712957
0.71296
0.712965
0.712974
0.712933
0.712847
0.712713
0.712255
0.712515
)
;
    }
}


// ************************************************************************* //
