/*--------------------------------*- C++ -*----------------------------------*\
| =========                 |                                                 |
| \\      /  F ield         | OpenFOAM: The Open Source CFD Toolbox           |
|  \\    /   O peration     | Version:  4.1                                   |
|   \\  /    A nd           | Web:      www.OpenFOAM.org                      |
|    \\/     M anipulation  |                                                 |
\*---------------------------------------------------------------------------*/
FoamFile
{
    version     2.0;
    format      ascii;
    class       volScalarField;
    location    "207";
    object      p;
}
// * * * * * * * * * * * * * * * * * * * * * * * * * * * * * * * * * * * * * //

dimensions      [1 -1 -2 0 0 0 0];

internalField   nonuniform List<scalar> 
3264
(
0.712568
0.712567
0.712565
0.712565
0.712564
0.712564
0.712565
0.712565
0.712566
0.712568
0.71257
0.712572
0.712575
0.712579
0.712584
0.712589
0.712596
0.712605
0.712615
0.712628
0.712643
0.712661
0.712683
0.71271
0.71274
0.712776
0.712817
0.712863
0.712916
0.712974
0.713038
0.713108
0.713183
0.713264
0.713349
0.713437
0.713529
0.713624
0.713719
0.713815
0.71391
0.714004
0.714094
0.714181
0.714264
0.714341
0.714412
0.714476
0.714533
0.714583
0.714626
0.714662
0.714691
0.714713
0.71473
0.714741
0.714748
0.714751
0.714751
0.714749
0.714745
0.71474
0.714735
0.71473
0.714725
0.71472
0.714716
0.714713
0.71471
0.714708
0.714706
0.714705
0.714703
0.714702
0.7147
0.714699
0.714697
0.714696
0.714694
0.714693
0.714692
0.714692
0.714692
0.714692
0.714694
0.714698
0.714703
0.71471
0.71472
0.714731
0.714745
0.714762
0.71478
0.714802
0.714825
0.714849
0.714876
0.714903
0.714931
0.714959
0.714987
0.715014
0.71504
0.715064
0.715087
0.715107
0.715124
0.715139
0.715151
0.71516
0.715166
0.715169
0.71517
0.715168
0.715163
0.715157
0.715149
0.715139
0.715129
0.715117
0.715105
0.715093
0.71508
0.715068
0.715056
0.715044
0.715032
0.71502
0.715009
0.714999
0.714988
0.714978
0.714968
0.714958
0.714949
0.714939
0.714929
0.71492
0.71491
0.7149
0.71489
0.714881
0.714871
0.714861
0.714851
0.714841
0.714831
0.714821
0.71481
0.7148
0.71479
0.71478
0.71477
0.714759
0.714749
0.714739
0.714729
0.714719
0.714708
0.714698
0.714688
0.714678
0.714668
0.714657
0.714647
0.714637
0.714627
0.714617
0.714607
0.714596
0.714586
0.714576
0.714566
0.714556
0.714545
0.714535
0.714525
0.714515
0.714505
0.714495
0.714484
0.714474
0.714464
0.714454
0.714444
0.714434
0.714423
0.714413
0.714403
0.714393
0.714383
0.714373
0.714362
0.714352
0.714342
0.714332
0.714322
0.714311
0.714301
0.714291
0.71257
0.712568
0.712567
0.712567
0.712567
0.712567
0.712567
0.712568
0.712569
0.712571
0.712573
0.712576
0.712579
0.712583
0.712587
0.712593
0.7126
0.712608
0.712618
0.71263
0.712645
0.712663
0.712684
0.712709
0.712739
0.712774
0.712813
0.712859
0.71291
0.712968
0.713031
0.7131
0.713175
0.713254
0.713339
0.713427
0.713519
0.713613
0.713708
0.713804
0.713899
0.713992
0.714083
0.71417
0.714252
0.71433
0.714401
0.714465
0.714523
0.714573
0.714617
0.714653
0.714682
0.714705
0.714722
0.714734
0.714742
0.714746
0.714747
0.714746
0.714743
0.71474
0.714736
0.714732
0.714728
0.714724
0.714721
0.714718
0.714715
0.714713
0.714711
0.714709
0.714707
0.714705
0.714704
0.714702
0.714701
0.714699
0.714697
0.714696
0.714694
0.714693
0.714693
0.714693
0.714695
0.714698
0.714702
0.714709
0.714718
0.714729
0.714742
0.714758
0.714777
0.714798
0.71482
0.714845
0.714871
0.714899
0.714926
0.714955
0.714983
0.71501
0.715036
0.715061
0.715084
0.715104
0.715122
0.715138
0.71515
0.715159
0.715166
0.715169
0.71517
0.715168
0.715164
0.715158
0.71515
0.71514
0.715129
0.715118
0.715106
0.715093
0.715081
0.715068
0.715056
0.715044
0.715032
0.71502
0.715009
0.714999
0.714988
0.714978
0.714968
0.714958
0.714948
0.714939
0.714929
0.71492
0.71491
0.7149
0.71489
0.714881
0.714871
0.714861
0.714851
0.714841
0.714831
0.714821
0.71481
0.7148
0.71479
0.71478
0.71477
0.714759
0.714749
0.714739
0.714729
0.714719
0.714708
0.714698
0.714688
0.714678
0.714668
0.714657
0.714647
0.714637
0.714627
0.714617
0.714607
0.714596
0.714586
0.714576
0.714566
0.714556
0.714545
0.714535
0.714525
0.714515
0.714505
0.714495
0.714484
0.714474
0.714464
0.714454
0.714444
0.714434
0.714423
0.714413
0.714403
0.714393
0.714383
0.714373
0.714362
0.714352
0.714342
0.714332
0.714322
0.714311
0.714301
0.714291
0.712571
0.712569
0.712568
0.712568
0.712567
0.712567
0.712567
0.712568
0.712569
0.712571
0.712573
0.712575
0.712578
0.712582
0.712586
0.712592
0.712598
0.712606
0.712615
0.712627
0.712641
0.712658
0.712678
0.712703
0.712732
0.712766
0.712805
0.71285
0.712901
0.712957
0.71302
0.713089
0.713163
0.713243
0.713327
0.713415
0.713507
0.7136
0.713695
0.713791
0.713886
0.713979
0.71407
0.714157
0.714239
0.714316
0.714387
0.714451
0.714508
0.714559
0.714602
0.714638
0.714667
0.71469
0.714707
0.714719
0.714727
0.714731
0.714732
0.714732
0.71473
0.714727
0.714724
0.714721
0.714718
0.714716
0.714715
0.714713
0.714712
0.714712
0.714711
0.71471
0.714709
0.714707
0.714706
0.714704
0.714702
0.7147
0.714698
0.714697
0.714695
0.714694
0.714693
0.714693
0.714694
0.714697
0.714701
0.714707
0.714716
0.714727
0.71474
0.714756
0.714774
0.714795
0.714817
0.714842
0.714868
0.714895
0.714923
0.714952
0.71498
0.715007
0.715034
0.715059
0.715082
0.715103
0.715121
0.715136
0.715149
0.715159
0.715165
0.715169
0.71517
0.715168
0.715164
0.715158
0.71515
0.71514
0.71513
0.715118
0.715106
0.715093
0.715081
0.715068
0.715056
0.715044
0.715032
0.71502
0.715009
0.714999
0.714988
0.714978
0.714968
0.714958
0.714948
0.714939
0.714929
0.71492
0.71491
0.7149
0.714891
0.714881
0.714871
0.714861
0.714851
0.714841
0.714831
0.714821
0.71481
0.7148
0.71479
0.71478
0.71477
0.714759
0.714749
0.714739
0.714729
0.714719
0.714708
0.714698
0.714688
0.714678
0.714668
0.714657
0.714647
0.714637
0.714627
0.714617
0.714607
0.714596
0.714586
0.714576
0.714566
0.714556
0.714545
0.714535
0.714525
0.714515
0.714505
0.714495
0.714484
0.714474
0.714464
0.714454
0.714444
0.714434
0.714423
0.714413
0.714403
0.714393
0.714383
0.714373
0.714362
0.714352
0.714342
0.714332
0.714322
0.714311
0.714301
0.714291
0.712566
0.712565
0.712564
0.712565
0.712564
0.712565
0.712565
0.712566
0.712567
0.712569
0.712571
0.712574
0.712577
0.712581
0.712585
0.71259
0.712596
0.712603
0.712612
0.712623
0.712636
0.712652
0.712671
0.712695
0.712723
0.712756
0.712794
0.712839
0.712889
0.712945
0.713007
0.713076
0.713149
0.713228
0.713312
0.713399
0.71349
0.713583
0.713677
0.713772
0.713866
0.713958
0.714047
0.714132
0.714213
0.714288
0.714358
0.71442
0.714476
0.714524
0.714566
0.7146
0.714628
0.71465
0.714666
0.714677
0.714685
0.714689
0.714691
0.714691
0.71469
0.714689
0.714688
0.714687
0.714687
0.714688
0.714689
0.714691
0.714694
0.714697
0.714699
0.714702
0.714704
0.714706
0.714706
0.714706
0.714705
0.714704
0.714702
0.7147
0.714698
0.714696
0.714695
0.714695
0.714696
0.714698
0.714702
0.714708
0.714716
0.714726
0.714739
0.714754
0.714772
0.714793
0.714815
0.714839
0.714865
0.714892
0.71492
0.714948
0.714976
0.715004
0.71503
0.715055
0.715078
0.715099
0.715117
0.715133
0.715146
0.715155
0.715162
0.715166
0.715167
0.715166
0.715162
0.715156
0.715148
0.715139
0.715129
0.715117
0.715105
0.715093
0.71508
0.715068
0.715056
0.715044
0.715032
0.71502
0.715009
0.714999
0.714988
0.714978
0.714968
0.714958
0.714949
0.714939
0.714929
0.71492
0.71491
0.7149
0.714891
0.714881
0.714871
0.714861
0.714851
0.714841
0.714831
0.714821
0.71481
0.7148
0.71479
0.71478
0.71477
0.714759
0.714749
0.714739
0.714729
0.714719
0.714708
0.714698
0.714688
0.714678
0.714668
0.714657
0.714647
0.714637
0.714627
0.714617
0.714607
0.714596
0.714586
0.714576
0.714566
0.714556
0.714545
0.714535
0.714525
0.714515
0.714505
0.714495
0.714484
0.714474
0.714464
0.714454
0.714444
0.714434
0.714423
0.714413
0.714403
0.714393
0.714383
0.714373
0.714362
0.714352
0.714342
0.714332
0.714322
0.714311
0.714301
0.714291
0.712564
0.712563
0.712561
0.712561
0.71256
0.71256
0.712561
0.712562
0.712564
0.712566
0.712568
0.712571
0.712575
0.712578
0.712582
0.712587
0.712593
0.7126
0.712608
0.712618
0.712631
0.712646
0.712665
0.712689
0.712716
0.712749
0.712787
0.712831
0.712881
0.712937
0.712999
0.713066
0.713139
0.713218
0.7133
0.713387
0.713476
0.713567
0.71366
0.713752
0.713844
0.713933
0.714019
0.714102
0.714179
0.714251
0.714316
0.714375
0.714426
0.714471
0.714508
0.714539
0.714564
0.714582
0.714596
0.714605
0.714611
0.714614
0.714616
0.714616
0.714616
0.714617
0.714618
0.71462
0.714623
0.714628
0.714634
0.714641
0.714649
0.714658
0.714666
0.714675
0.714683
0.71469
0.714696
0.7147
0.714704
0.714706
0.714707
0.714707
0.714706
0.714705
0.714704
0.714703
0.714704
0.714705
0.714709
0.714714
0.714722
0.714732
0.714744
0.714759
0.714776
0.714796
0.714818
0.714841
0.714867
0.714893
0.71492
0.714948
0.714975
0.715002
0.715027
0.715052
0.715074
0.715094
0.715112
0.715127
0.71514
0.71515
0.715156
0.71516
0.715161
0.71516
0.715157
0.715151
0.715144
0.715135
0.715125
0.715115
0.715103
0.715091
0.715079
0.715067
0.715055
0.715044
0.715032
0.715021
0.71501
0.714999
0.714989
0.714979
0.714969
0.714959
0.714949
0.714939
0.71493
0.71492
0.71491
0.714901
0.714891
0.714881
0.714871
0.714861
0.714851
0.714841
0.714831
0.714821
0.71481
0.7148
0.71479
0.71478
0.71477
0.714759
0.714749
0.714739
0.714729
0.714719
0.714708
0.714698
0.714688
0.714678
0.714668
0.714657
0.714647
0.714637
0.714627
0.714617
0.714607
0.714596
0.714586
0.714576
0.714566
0.714556
0.714545
0.714535
0.714525
0.714515
0.714505
0.714495
0.714484
0.714474
0.714464
0.714454
0.714444
0.714434
0.714423
0.714413
0.714403
0.714393
0.714383
0.714373
0.714362
0.714352
0.714342
0.714332
0.714322
0.714311
0.714301
0.714291
0.712531
0.712546
0.712546
0.712552
0.712554
0.712556
0.712558
0.71256
0.712562
0.712565
0.712567
0.712571
0.712574
0.712578
0.712582
0.712586
0.712592
0.712599
0.712607
0.712617
0.712629
0.712645
0.712664
0.712687
0.712714
0.712747
0.712785
0.712829
0.712879
0.712935
0.712996
0.713063
0.713136
0.713213
0.713294
0.713379
0.713466
0.713555
0.713644
0.713733
0.713821
0.713906
0.713987
0.714064
0.714136
0.714201
0.71426
0.714313
0.714358
0.714396
0.714428
0.714453
0.714472
0.714486
0.714496
0.714502
0.714506
0.714508
0.714508
0.714509
0.714511
0.714513
0.714517
0.714523
0.71453
0.71454
0.714551
0.714564
0.714579
0.714594
0.71461
0.714627
0.714643
0.714658
0.714672
0.714684
0.714695
0.714704
0.714711
0.714716
0.714719
0.714721
0.714722
0.714723
0.714724
0.714726
0.714729
0.714734
0.71474
0.714749
0.71476
0.714774
0.71479
0.714809
0.714829
0.714851
0.714875
0.7149
0.714925
0.714951
0.714977
0.715002
0.715026
0.715049
0.71507
0.715089
0.715106
0.71512
0.715132
0.715141
0.715147
0.715151
0.715152
0.715151
0.715148
0.715143
0.715137
0.715129
0.71512
0.71511
0.715099
0.715089
0.715077
0.715066
0.715055
0.715043
0.715032
0.715021
0.715011
0.715
0.71499
0.71498
0.71497
0.71496
0.71495
0.71494
0.71493
0.71492
0.714911
0.714901
0.714891
0.714881
0.714871
0.714861
0.714851
0.714841
0.714831
0.714821
0.71481
0.7148
0.71479
0.71478
0.71477
0.714759
0.714749
0.714739
0.714729
0.714719
0.714708
0.714698
0.714688
0.714678
0.714668
0.714657
0.714647
0.714637
0.714627
0.714617
0.714607
0.714596
0.714586
0.714576
0.714566
0.714556
0.714545
0.714535
0.714525
0.714515
0.714505
0.714495
0.714484
0.714474
0.714464
0.714454
0.714444
0.714434
0.714423
0.714413
0.714403
0.714393
0.714383
0.714373
0.714362
0.714352
0.714342
0.714332
0.714322
0.714311
0.714301
0.714291
0.712531
0.712548
0.712546
0.71255
0.71255
0.712553
0.712555
0.712558
0.712561
0.712564
0.712567
0.712571
0.712574
0.712578
0.712583
0.712588
0.712593
0.7126
0.712609
0.712619
0.712633
0.712649
0.712668
0.712692
0.712721
0.712754
0.712793
0.712838
0.712888
0.712944
0.713005
0.713072
0.713144
0.71322
0.7133
0.713382
0.713466
0.713552
0.713637
0.713721
0.713803
0.713881
0.713955
0.714025
0.714088
0.714146
0.714196
0.71424
0.714277
0.714307
0.71433
0.714348
0.714361
0.71437
0.714376
0.714379
0.71438
0.714381
0.714382
0.714384
0.714387
0.714392
0.7144
0.714409
0.714422
0.714437
0.714454
0.714473
0.714494
0.714517
0.714541
0.714566
0.71459
0.714614
0.714637
0.714659
0.714679
0.714697
0.714712
0.714725
0.714735
0.714743
0.71475
0.714755
0.714759
0.714762
0.714766
0.714771
0.714777
0.714785
0.714795
0.714806
0.71482
0.714836
0.714854
0.714874
0.714895
0.714917
0.71494
0.714963
0.714986
0.715008
0.715029
0.71505
0.715068
0.715085
0.7151
0.715112
0.715123
0.715131
0.715136
0.71514
0.715141
0.71514
0.715137
0.715133
0.715127
0.715121
0.715113
0.715104
0.715095
0.715085
0.715075
0.715064
0.715054
0.715043
0.715033
0.715022
0.715012
0.715001
0.714991
0.714981
0.714971
0.714961
0.714951
0.714941
0.714931
0.714921
0.714911
0.714901
0.714891
0.714881
0.714871
0.714861
0.714851
0.714841
0.714831
0.71482
0.71481
0.7148
0.71479
0.71478
0.714769
0.714759
0.714749
0.714739
0.714729
0.714719
0.714708
0.714698
0.714688
0.714678
0.714668
0.714657
0.714647
0.714637
0.714627
0.714617
0.714607
0.714596
0.714586
0.714576
0.714566
0.714556
0.714545
0.714535
0.714525
0.714515
0.714505
0.714495
0.714484
0.714474
0.714464
0.714454
0.714444
0.714434
0.714423
0.714413
0.714403
0.714393
0.714383
0.714373
0.714362
0.714352
0.714342
0.714332
0.714322
0.714311
0.714301
0.714291
0.712375
0.712514
0.712532
0.712553
0.712557
0.71256
0.712562
0.712564
0.712567
0.712569
0.712572
0.712576
0.712579
0.712583
0.712588
0.712594
0.7126
0.712608
0.712618
0.71263
0.712645
0.712663
0.712684
0.71271
0.71274
0.712776
0.712816
0.712863
0.712914
0.712971
0.713033
0.7131
0.713171
0.713246
0.713323
0.713402
0.713483
0.713563
0.713642
0.71372
0.713794
0.713864
0.713929
0.713988
0.714042
0.714088
0.714128
0.714162
0.714189
0.714209
0.714225
0.714236
0.714243
0.714248
0.71425
0.714252
0.714253
0.714255
0.714257
0.714262
0.714268
0.714277
0.714288
0.714302
0.714319
0.714339
0.714361
0.714387
0.714414
0.714443
0.714474
0.714506
0.714538
0.714571
0.714602
0.714633
0.714662
0.714689
0.714713
0.714735
0.714753
0.714769
0.714783
0.714794
0.714803
0.71481
0.714817
0.714824
0.71483
0.714838
0.714846
0.714856
0.714867
0.71488
0.714895
0.714911
0.714928
0.714945
0.714964
0.714983
0.715001
0.715019
0.715037
0.715053
0.715068
0.715082
0.715094
0.715104
0.715112
0.715119
0.715123
0.715126
0.715127
0.715127
0.715125
0.715121
0.715117
0.715111
0.715105
0.715097
0.715089
0.715081
0.715072
0.715063
0.715053
0.715043
0.715033
0.715023
0.715013
0.715003
0.714993
0.714982
0.714972
0.714962
0.714952
0.714942
0.714932
0.714922
0.714912
0.714901
0.714891
0.714881
0.714871
0.714861
0.714851
0.714841
0.71483
0.71482
0.71481
0.7148
0.71479
0.71478
0.714769
0.714759
0.714749
0.714739
0.714729
0.714719
0.714708
0.714698
0.714688
0.714678
0.714668
0.714657
0.714647
0.714637
0.714627
0.714617
0.714607
0.714596
0.714586
0.714576
0.714566
0.714556
0.714546
0.714535
0.714525
0.714515
0.714505
0.714495
0.714484
0.714474
0.714464
0.714454
0.714444
0.714434
0.714423
0.714413
0.714403
0.714393
0.714383
0.714373
0.714362
0.714352
0.714342
0.714332
0.714322
0.714311
0.714301
0.714291
0.713111
0.713055
0.712992
0.712925
0.712851
0.712773
0.712685
0.712565
0.713118
0.713071
0.713008
0.712939
0.712865
0.712786
0.712695
0.712597
0.713122
0.713083
0.713025
0.712959
0.71289
0.712818
0.712746
0.712676
0.713133
0.713098
0.713046
0.712985
0.71292
0.712856
0.712793
0.712734
0.713146
0.713114
0.713065
0.713008
0.712949
0.712892
0.712839
0.712791
0.71316
0.713128
0.71308
0.713026
0.712972
0.712921
0.712874
0.712832
0.713176
0.713139
0.713089
0.713037
0.712986
0.712939
0.712895
0.712857
0.713184
0.713137
0.713088
0.713038
0.71299
0.712945
0.712903
0.712864
0.712501
0.712521
0.712541
0.712553
0.712559
0.712563
0.712566
0.712568
0.712571
0.712574
0.712578
0.712583
0.712587
0.712593
0.712599
0.712607
0.712616
0.712626
0.712638
0.712653
0.712671
0.712692
0.712717
0.712747
0.712781
0.712819
0.712863
0.712912
0.712965
0.713024
0.713087
0.713154
0.713224
0.713296
0.713371
0.713446
0.713521
0.713595
0.713666
0.713734
0.713798
0.713858
0.713911
0.713959
0.714
0.714034
0.714063
0.714086
0.714103
0.714116
0.714125
0.714131
0.714135
0.714138
0.714141
0.714143
0.714146
0.71415
0.714156
0.714164
0.714174
0.714186
0.714201
0.714219
0.71424
0.714264
0.714291
0.71432
0.714352
0.714386
0.714423
0.71446
0.714498
0.714537
0.714576
0.714614
0.71465
0.714685
0.714717
0.714747
0.714774
0.714798
0.714818
0.714836
0.714851
0.714864
0.714875
0.714884
0.714892
0.7149
0.714908
0.714917
0.714926
0.714935
0.714946
0.714957
0.71497
0.714982
0.714996
0.715009
0.715022
0.715035
0.715048
0.715059
0.71507
0.71508
0.715088
0.715095
0.715101
0.715106
0.71511
0.715112
0.715113
0.715113
0.715112
0.715109
0.715106
0.715102
0.715097
0.715091
0.715084
0.715077
0.715069
0.715061
0.715052
0.715043
0.715034
0.715024
0.715014
0.715004
0.714994
0.714984
0.714974
0.714963
0.714953
0.714943
0.714933
0.714922
0.714912
0.714902
0.714892
0.714881
0.714871
0.714861
0.714851
0.714841
0.71483
0.71482
0.71481
0.7148
0.71479
0.71478
0.714769
0.714759
0.714749
0.714739
0.714729
0.714718
0.714708
0.714698
0.714688
0.714678
0.714668
0.714657
0.714647
0.714637
0.714627
0.714617
0.714607
0.714596
0.714586
0.714576
0.714566
0.714556
0.714546
0.714535
0.714525
0.714515
0.714505
0.714495
0.714484
0.714474
0.714464
0.714454
0.714444
0.714434
0.714423
0.714413
0.714403
0.714393
0.714383
0.714373
0.714362
0.714352
0.714342
0.714332
0.714322
0.714311
0.714301
0.714291
0.712524
0.712533
0.712546
0.712559
0.712568
0.712573
0.712577
0.712581
0.712585
0.712589
0.712594
0.7126
0.712606
0.712614
0.712623
0.712634
0.712646
0.71266
0.712677
0.712696
0.712718
0.712745
0.712775
0.712809
0.712848
0.712891
0.712938
0.712991
0.713047
0.713107
0.71317
0.713236
0.713305
0.713374
0.713444
0.713513
0.71358
0.713645
0.713706
0.713762
0.713814
0.71386
0.7139
0.713935
0.713963
0.713986
0.714005
0.714019
0.714029
0.714038
0.714044
0.71405
0.714055
0.71406
0.714065
0.714071
0.714077
0.714085
0.714094
0.714105
0.714117
0.714132
0.71415
0.71417
0.714193
0.714219
0.714248
0.71428
0.714315
0.714352
0.714391
0.714433
0.714475
0.714518
0.714562
0.714605
0.714647
0.714688
0.714727
0.714763
0.714796
0.714827
0.714854
0.714878
0.714898
0.714916
0.714931
0.714943
0.714954
0.714963
0.714971
0.714978
0.714985
0.714992
0.714999
0.715006
0.715014
0.715021
0.715029
0.715037
0.715044
0.715052
0.715059
0.715065
0.715072
0.715077
0.715082
0.715087
0.715091
0.715094
0.715097
0.715098
0.715099
0.7151
0.715099
0.715098
0.715096
0.715093
0.71509
0.715085
0.71508
0.715074
0.715067
0.71506
0.715052
0.715043
0.715034
0.715025
0.715016
0.715006
0.714996
0.714985
0.714975
0.714965
0.714954
0.714944
0.714933
0.714923
0.714913
0.714902
0.714892
0.714882
0.714871
0.714861
0.714851
0.714841
0.71483
0.71482
0.71481
0.7148
0.71479
0.714779
0.714769
0.714759
0.714749
0.714739
0.714729
0.714718
0.714708
0.714698
0.714688
0.714678
0.714668
0.714657
0.714647
0.714637
0.714627
0.714617
0.714607
0.714596
0.714586
0.714576
0.714566
0.714556
0.714546
0.714535
0.714525
0.714515
0.714505
0.714495
0.714484
0.714474
0.714464
0.714454
0.714444
0.714434
0.714423
0.714413
0.714403
0.714393
0.714383
0.714373
0.714362
0.714352
0.714342
0.714332
0.714322
0.714311
0.714301
0.714291
0.712623
0.712598
0.712593
0.712593
0.712595
0.712598
0.7126
0.712604
0.712608
0.712613
0.712619
0.712627
0.712636
0.712646
0.712659
0.712673
0.71269
0.712709
0.712731
0.712756
0.712785
0.712817
0.712853
0.712893
0.712938
0.712986
0.713038
0.713093
0.713152
0.713213
0.713276
0.71334
0.713404
0.713468
0.713531
0.713591
0.713648
0.713701
0.71375
0.713793
0.71383
0.713862
0.71389
0.713912
0.713931
0.713946
0.713959
0.71397
0.71398
0.713989
0.713997
0.714005
0.714013
0.714021
0.714029
0.714037
0.714046
0.714056
0.714067
0.714079
0.714093
0.714108
0.714127
0.714148
0.714171
0.714198
0.714228
0.714261
0.714297
0.714336
0.714378
0.714421
0.714466
0.714512
0.714559
0.714605
0.714651
0.714696
0.714739
0.71478
0.714818
0.714854
0.714886
0.714914
0.714939
0.71496
0.714979
0.714994
0.715006
0.715016
0.715025
0.715031
0.715037
0.715041
0.715045
0.715048
0.715051
0.715054
0.715057
0.71506
0.715062
0.715065
0.715067
0.71507
0.715072
0.715075
0.715077
0.715079
0.715081
0.715084
0.715086
0.715087
0.715089
0.715089
0.71509
0.71509
0.715089
0.715087
0.715084
0.715081
0.715077
0.715071
0.715066
0.715059
0.715052
0.715044
0.715035
0.715026
0.715017
0.715007
0.714997
0.714987
0.714976
0.714966
0.714955
0.714945
0.714934
0.714924
0.714913
0.714903
0.714892
0.714882
0.714871
0.714861
0.714851
0.71484
0.71483
0.71482
0.71481
0.7148
0.71479
0.714779
0.714769
0.714759
0.714749
0.714739
0.714729
0.714718
0.714708
0.714698
0.714688
0.714678
0.714668
0.714657
0.714647
0.714637
0.714627
0.714617
0.714607
0.714596
0.714586
0.714576
0.714566
0.714556
0.714546
0.714535
0.714525
0.714515
0.714505
0.714495
0.714484
0.714474
0.714464
0.714454
0.714444
0.714434
0.714423
0.714413
0.714403
0.714393
0.714383
0.714373
0.714362
0.714352
0.714342
0.714332
0.714322
0.714311
0.714301
0.714291
0.712688
0.712661
0.712646
0.71264
0.712636
0.712635
0.712636
0.712637
0.712641
0.712646
0.712653
0.712662
0.712673
0.712686
0.712702
0.712721
0.712742
0.712766
0.712794
0.712825
0.71286
0.712898
0.71294
0.712986
0.713035
0.713088
0.713144
0.713202
0.713261
0.713321
0.713382
0.713441
0.7135
0.713556
0.713609
0.713658
0.713703
0.713743
0.713777
0.713808
0.713835
0.713858
0.713878
0.713895
0.71391
0.713922
0.713933
0.713944
0.713955
0.713966
0.713977
0.713988
0.713999
0.714009
0.714019
0.714028
0.714038
0.714048
0.714059
0.714071
0.714085
0.714101
0.71412
0.714141
0.714165
0.714192
0.714223
0.714256
0.714293
0.714333
0.714375
0.71442
0.714466
0.714514
0.714563
0.714612
0.71466
0.714707
0.714753
0.714797
0.714838
0.714877
0.714912
0.714943
0.714971
0.714995
0.715015
0.715032
0.715045
0.715056
0.715064
0.71507
0.715074
0.715077
0.715078
0.715078
0.715078
0.715077
0.715076
0.715075
0.715074
0.715073
0.715072
0.715072
0.715072
0.715072
0.715072
0.715073
0.715074
0.715076
0.715078
0.715079
0.715081
0.715082
0.715083
0.715084
0.715083
0.715082
0.715081
0.715078
0.715074
0.71507
0.715065
0.715059
0.715052
0.715044
0.715036
0.715027
0.715018
0.715008
0.714998
0.714988
0.714977
0.714967
0.714956
0.714945
0.714935
0.714924
0.714913
0.714903
0.714892
0.714882
0.714871
0.714861
0.714851
0.71484
0.71483
0.71482
0.71481
0.7148
0.714789
0.714779
0.714769
0.714759
0.714749
0.714739
0.714729
0.714718
0.714708
0.714698
0.714688
0.714678
0.714668
0.714657
0.714647
0.714637
0.714627
0.714617
0.714607
0.714596
0.714586
0.714576
0.714566
0.714556
0.714546
0.714535
0.714525
0.714515
0.714505
0.714495
0.714484
0.714474
0.714464
0.714454
0.714444
0.714434
0.714423
0.714413
0.714403
0.714393
0.714383
0.714373
0.714362
0.714352
0.714342
0.714332
0.714322
0.714311
0.714301
0.714291
0.712752
0.712724
0.712705
0.712692
0.712684
0.712678
0.712675
0.712674
0.712676
0.71268
0.712687
0.712697
0.71271
0.712726
0.712744
0.712766
0.712792
0.712821
0.712853
0.712889
0.712929
0.712972
0.713019
0.713069
0.713123
0.713178
0.713235
0.713293
0.71335
0.713407
0.713461
0.713514
0.713564
0.713611
0.713656
0.713696
0.713732
0.713763
0.71379
0.713811
0.71383
0.713845
0.71386
0.713875
0.71389
0.713906
0.713922
0.713937
0.713951
0.713964
0.713976
0.713987
0.713997
0.714007
0.714016
0.714026
0.714036
0.714046
0.714058
0.71407
0.714085
0.714101
0.71412
0.714141
0.714166
0.714194
0.714224
0.714259
0.714296
0.714336
0.714379
0.714424
0.714472
0.71452
0.71457
0.71462
0.714669
0.714718
0.714765
0.714811
0.714853
0.714893
0.71493
0.714962
0.714991
0.715017
0.715038
0.715056
0.71507
0.71508
0.715088
0.715094
0.715097
0.715098
0.715097
0.715096
0.715093
0.71509
0.715087
0.715084
0.71508
0.715077
0.715075
0.715072
0.715071
0.71507
0.715069
0.71507
0.71507
0.715071
0.715073
0.715075
0.715076
0.715078
0.715079
0.71508
0.71508
0.71508
0.715078
0.715076
0.715073
0.715069
0.715064
0.715058
0.715052
0.715044
0.715036
0.715028
0.715018
0.715009
0.714999
0.714988
0.714978
0.714967
0.714957
0.714946
0.714935
0.714924
0.714914
0.714903
0.714892
0.714882
0.714871
0.714861
0.714851
0.71484
0.71483
0.71482
0.71481
0.7148
0.714789
0.714779
0.714769
0.714759
0.714749
0.714739
0.714729
0.714718
0.714708
0.714698
0.714688
0.714678
0.714668
0.714657
0.714647
0.714637
0.714627
0.714617
0.714607
0.714596
0.714586
0.714576
0.714566
0.714556
0.714546
0.714535
0.714525
0.714515
0.714505
0.714495
0.714484
0.714474
0.714464
0.714454
0.714444
0.714434
0.714423
0.714413
0.714403
0.714393
0.714383
0.714373
0.714362
0.714352
0.714342
0.714332
0.714322
0.714311
0.714301
0.714291
0.712797
0.712769
0.712747
0.712731
0.712718
0.712709
0.712703
0.7127
0.7127
0.712704
0.712711
0.712722
0.712736
0.712753
0.712774
0.712799
0.712827
0.712859
0.712894
0.712933
0.712976
0.713022
0.713071
0.713123
0.713177
0.713232
0.713289
0.713345
0.713399
0.713452
0.713502
0.713549
0.713592
0.713632
0.713667
0.713697
0.713723
0.713746
0.713768
0.713791
0.713813
0.713836
0.713857
0.713876
0.713893
0.713908
0.713923
0.713936
0.713949
0.713961
0.713972
0.713984
0.713995
0.714005
0.714015
0.714025
0.714036
0.714047
0.714059
0.714072
0.714087
0.714104
0.714124
0.714146
0.714171
0.714199
0.71423
0.714265
0.714302
0.714343
0.714386
0.714432
0.71448
0.714529
0.714579
0.714629
0.714679
0.714728
0.714776
0.714821
0.714864
0.714904
0.714941
0.714974
0.715004
0.715029
0.71505
0.715068
0.715082
0.715093
0.7151
0.715105
0.715107
0.715107
0.715106
0.715103
0.7151
0.715096
0.715092
0.715087
0.715083
0.715079
0.715075
0.715073
0.71507
0.715069
0.715068
0.715068
0.715069
0.71507
0.715071
0.715073
0.715074
0.715076
0.715077
0.715078
0.715079
0.715078
0.715077
0.715075
0.715072
0.715068
0.715064
0.715058
0.715051
0.715044
0.715036
0.715028
0.715018
0.715009
0.714999
0.714989
0.714978
0.714968
0.714957
0.714946
0.714935
0.714924
0.714914
0.714903
0.714892
0.714882
0.714871
0.714861
0.714851
0.71484
0.71483
0.71482
0.71481
0.7148
0.714789
0.714779
0.714769
0.714759
0.714749
0.714739
0.714729
0.714718
0.714708
0.714698
0.714688
0.714678
0.714668
0.714657
0.714647
0.714637
0.714627
0.714617
0.714607
0.714596
0.714586
0.714576
0.714566
0.714556
0.714546
0.714535
0.714525
0.714515
0.714505
0.714495
0.714484
0.714474
0.714464
0.714454
0.714444
0.714434
0.714423
0.714413
0.714403
0.714393
0.714383
0.714373
0.714362
0.714352
0.714342
0.714332
0.714322
0.714311
0.714301
0.714291
0.712823
0.712795
0.712771
0.712752
0.712737
0.712725
0.712717
0.712713
0.712713
0.712716
0.712724
0.712735
0.71275
0.712768
0.712791
0.712817
0.712846
0.71288
0.712916
0.712957
0.713
0.713047
0.713096
0.713147
0.7132
0.713254
0.713307
0.713359
0.713407
0.713453
0.713495
0.713536
0.713575
0.713613
0.713651
0.713686
0.713718
0.713747
0.713773
0.713796
0.713817
0.713837
0.713855
0.713872
0.713888
0.713904
0.713919
0.713933
0.713947
0.71396
0.713972
0.713983
0.713994
0.714004
0.714015
0.714025
0.714036
0.714048
0.71406
0.714074
0.714089
0.714107
0.714127
0.714149
0.714175
0.714204
0.714235
0.71427
0.714308
0.714349
0.714392
0.714438
0.714486
0.714535
0.714585
0.714635
0.714685
0.714734
0.714781
0.714827
0.71487
0.71491
0.714946
0.714979
0.715008
0.715033
0.715055
0.715072
0.715086
0.715096
0.715103
0.715108
0.71511
0.71511
0.715108
0.715106
0.715102
0.715097
0.715093
0.715088
0.715084
0.715079
0.715076
0.715073
0.71507
0.715069
0.715068
0.715068
0.715068
0.715069
0.715071
0.715072
0.715074
0.715075
0.715077
0.715078
0.715078
0.715078
0.715076
0.715074
0.715072
0.715068
0.715063
0.715057
0.715051
0.715044
0.715036
0.715027
0.715018
0.715009
0.714999
0.714989
0.714978
0.714968
0.714957
0.714946
0.714935
0.714925
0.714914
0.714903
0.714893
0.714882
0.714872
0.714861
0.714851
0.71484
0.71483
0.71482
0.71481
0.7148
0.714789
0.714779
0.714769
0.714759
0.714749
0.714739
0.714729
0.714718
0.714708
0.714698
0.714688
0.714678
0.714668
0.714657
0.714647
0.714637
0.714627
0.714617
0.714607
0.714596
0.714586
0.714576
0.714566
0.714556
0.714546
0.714535
0.714525
0.714515
0.714505
0.714495
0.714484
0.714474
0.714464
0.714454
0.714444
0.714434
0.714423
0.714413
0.714403
0.714393
0.714383
0.714373
0.714362
0.714352
0.714342
0.714332
0.714322
0.714311
0.714301
0.714291
0.71283
0.7128
0.712774
0.712753
0.712736
0.712723
0.712714
0.71271
0.712709
0.712713
0.71272
0.712732
0.712746
0.712765
0.712787
0.712813
0.712842
0.712875
0.71291
0.712949
0.712991
0.713036
0.713084
0.713133
0.713184
0.713237
0.713289
0.713341
0.713392
0.713441
0.713487
0.713531
0.713573
0.713613
0.71365
0.713683
0.713713
0.71374
0.713765
0.713789
0.713811
0.713832
0.713852
0.713871
0.713888
0.713904
0.713918
0.713932
0.713946
0.713958
0.71397
0.713981
0.713992
0.714003
0.714013
0.714024
0.714035
0.714047
0.71406
0.714074
0.71409
0.714108
0.714129
0.714152
0.714178
0.714207
0.71424
0.714275
0.714313
0.714355
0.714398
0.714444
0.714492
0.714542
0.714592
0.714642
0.714692
0.71474
0.714788
0.714833
0.714876
0.714915
0.714951
0.714984
0.715013
0.715037
0.715058
0.715075
0.715088
0.715098
0.715105
0.715109
0.715111
0.71511
0.715109
0.715106
0.715102
0.715097
0.715092
0.715088
0.715083
0.715079
0.715076
0.715073
0.715071
0.715069
0.715068
0.715068
0.715069
0.71507
0.715071
0.715073
0.715074
0.715076
0.715077
0.715078
0.715078
0.715078
0.715077
0.715075
0.715072
0.715068
0.715063
0.715057
0.715051
0.715044
0.715036
0.715027
0.715018
0.715009
0.714999
0.714988
0.714978
0.714967
0.714957
0.714946
0.714935
0.714925
0.714914
0.714903
0.714893
0.714882
0.714872
0.714861
0.714851
0.71484
0.71483
0.71482
0.71481
0.7148
0.714789
0.714779
0.714769
0.714759
0.714749
0.714739
0.714729
0.714718
0.714708
0.714698
0.714688
0.714678
0.714668
0.714657
0.714647
0.714637
0.714627
0.714617
0.714607
0.714596
0.714586
0.714576
0.714566
0.714556
0.714546
0.714535
0.714525
0.714515
0.714505
0.714495
0.714484
0.714474
0.714464
0.714454
0.714444
0.714434
0.714423
0.714413
0.714403
0.714393
0.714383
0.714373
0.714362
0.714352
0.714342
0.714332
0.714322
0.714311
0.714301
0.714291
)
;

boundaryField
{
    inlet
    {
        type            zeroGradient;
    }
    outlet
    {
        type            fixedValue;