/*--------------------------------*- C++ -*----------------------------------*\
| =========                 |                                                 |
| \\      /  F ield         | OpenFOAM: The Open Source CFD Toolbox           |
|  \\    /   O peration     | Version:  4.1                                   |
|   \\  /    A nd           | Web:      www.OpenFOAM.org                      |
|    \\/     M anipulation  |                                                 |
\*---------------------------------------------------------------------------*/
FoamFile
{
    version     2.0;
    format      ascii;
    class       volScalarField;
    location    "24";
    object      p;
}
// * * * * * * * * * * * * * * * * * * * * * * * * * * * * * * * * * * * * * //

dimensions      [1 -1 -2 0 0 0 0];

internalField   nonuniform List<scalar> 
3264
(
0.715166
0.71515
0.71515
0.715173
0.71524
0.715364
0.715555
0.715813
0.716126
0.716478
0.716842
0.717192
0.717506
0.717769
0.717974
0.718124
0.718225
0.718286
0.718318
0.718327
0.71832
0.718304
0.718281
0.718255
0.718227
0.718198
0.718169
0.71814
0.718113
0.718085
0.718059
0.718033
0.718007
0.717983
0.717958
0.717934
0.717911
0.717887
0.717864
0.717841
0.717818
0.717796
0.717773
0.71775
0.717728
0.717706
0.717683
0.717661
0.717639
0.717617
0.717594
0.717572
0.71755
0.717528
0.717506
0.717484
0.717461
0.717439
0.717417
0.717395
0.717373
0.717351
0.717329
0.717306
0.717284
0.717262
0.71724
0.717218
0.717196
0.717174
0.717152
0.717129
0.717107
0.717085
0.717063
0.717041
0.717019
0.716997
0.716974
0.716952
0.71693
0.716908
0.716886
0.716864
0.716842
0.71682
0.716797
0.716775
0.716753
0.716731
0.716709
0.716687
0.716665
0.716643
0.71662
0.716598
0.716576
0.716554
0.716532
0.71651
0.716488
0.716466
0.716443
0.716421
0.716399
0.716377
0.716355
0.716333
0.716311
0.716289
0.716266
0.716244
0.716222
0.7162
0.716178
0.716156
0.716134
0.716112
0.716089
0.716067
0.716045
0.716023
0.716001
0.715979
0.715957
0.715934
0.715912
0.71589
0.715868
0.715846
0.715824
0.715802
0.71578
0.715757
0.715735
0.715713
0.715691
0.715669
0.715647
0.715625
0.715603
0.71558
0.715558
0.715536
0.715514
0.715492
0.71547
0.715448
0.715426
0.715403
0.715381
0.715359
0.715337
0.715315
0.715293
0.715271
0.715249
0.715226
0.715204
0.715182
0.71516
0.715138
0.715116
0.715094
0.715072
0.715049
0.715027
0.715005
0.714983
0.714961
0.714939
0.714917
0.714895
0.714872
0.71485
0.714828
0.714806
0.714784
0.714762
0.71474
0.714717
0.714695
0.714673
0.714651
0.714629
0.714607
0.714585
0.714563
0.71454
0.714518
0.714496
0.714474
0.714452
0.71443
0.714408
0.714386
0.714363
0.714341
0.714319
0.714297
0.715166
0.715142
0.715127
0.715135
0.715187
0.715299
0.715481
0.715733
0.716046
0.716402
0.716775
0.717138
0.717467
0.717743
0.717958
0.718115
0.71822
0.718283
0.718315
0.718324
0.718318
0.718302
0.718279
0.718253
0.718225
0.718196
0.718168
0.718139
0.718112
0.718084
0.718058
0.718032
0.718007
0.717982
0.717958
0.717934
0.71791
0.717887
0.717864
0.717841
0.717818
0.717795
0.717773
0.71775
0.717728
0.717706
0.717683
0.717661
0.717639
0.717617
0.717594
0.717572
0.71755
0.717528
0.717506
0.717484
0.717461
0.717439
0.717417
0.717395
0.717373
0.717351
0.717329
0.717306
0.717284
0.717262
0.71724
0.717218
0.717196
0.717174
0.717152
0.717129
0.717107
0.717085
0.717063
0.717041
0.717019
0.716997
0.716974
0.716952
0.71693
0.716908
0.716886
0.716864
0.716842
0.71682
0.716797
0.716775
0.716753
0.716731
0.716709
0.716687
0.716665
0.716643
0.71662
0.716598
0.716576
0.716554
0.716532
0.71651
0.716488
0.716466
0.716443
0.716421
0.716399
0.716377
0.716355
0.716333
0.716311
0.716289
0.716266
0.716244
0.716222
0.7162
0.716178
0.716156
0.716134
0.716112
0.716089
0.716067
0.716045
0.716023
0.716001
0.715979
0.715957
0.715934
0.715912
0.71589
0.715868
0.715846
0.715824
0.715802
0.71578
0.715757
0.715735
0.715713
0.715691
0.715669
0.715647
0.715625
0.715603
0.71558
0.715558
0.715536
0.715514
0.715492
0.71547
0.715448
0.715426
0.715403
0.715381
0.715359
0.715337
0.715315
0.715293
0.715271
0.715249
0.715226
0.715204
0.715182
0.71516
0.715138
0.715116
0.715094
0.715072
0.715049
0.715027
0.715005
0.714983
0.714961
0.714939
0.714917
0.714895
0.714872
0.71485
0.714828
0.714806
0.714784
0.714762
0.71474
0.714717
0.714695
0.714673
0.714651
0.714629
0.714607
0.714585
0.714563
0.71454
0.714518
0.714496
0.714474
0.714452
0.71443
0.714408
0.714386
0.714363
0.714341
0.714319
0.714297
0.715123
0.715092
0.715061
0.715049
0.71508
0.715173
0.71534
0.715582
0.715891
0.716252
0.716641
0.717029
0.717386
0.71769
0.717927
0.718097
0.71821
0.718277
0.71831
0.718319
0.718313
0.718296
0.718274
0.718248
0.718221
0.718192
0.718164
0.718136
0.718109
0.718083
0.718056
0.718031
0.718006
0.717981
0.717957
0.717933
0.71791
0.717887
0.717864
0.717841
0.717818
0.717795
0.717773
0.71775
0.717728
0.717706
0.717683
0.717661
0.717639
0.717617
0.717594
0.717572
0.71755
0.717528
0.717506
0.717484
0.717461
0.717439
0.717417
0.717395
0.717373
0.717351
0.717329
0.717306
0.717284
0.717262
0.71724
0.717218
0.717196
0.717174
0.717152
0.717129
0.717107
0.717085
0.717063
0.717041
0.717019
0.716997
0.716974
0.716952
0.71693
0.716908
0.716886
0.716864
0.716842
0.71682
0.716797
0.716775
0.716753
0.716731
0.716709
0.716687
0.716665
0.716643
0.71662
0.716598
0.716576
0.716554
0.716532
0.71651
0.716488
0.716466
0.716443
0.716421
0.716399
0.716377
0.716355
0.716333
0.716311
0.716289
0.716266
0.716244
0.716222
0.7162
0.716178
0.716156
0.716134
0.716112
0.716089
0.716067
0.716045
0.716023
0.716001
0.715979
0.715957
0.715934
0.715912
0.71589
0.715868
0.715846
0.715824
0.715802
0.71578
0.715757
0.715735
0.715713
0.715691
0.715669
0.715647
0.715625
0.715603
0.71558
0.715558
0.715536
0.715514
0.715492
0.71547
0.715448
0.715426
0.715403
0.715381
0.715359
0.715337
0.715315
0.715293
0.715271
0.715249
0.715226
0.715204
0.715182
0.71516
0.715138
0.715116
0.715094
0.715072
0.715049
0.715027
0.715005
0.714983
0.714961
0.714939
0.714917
0.714895
0.714872
0.71485
0.714828
0.714806
0.714784
0.714762
0.71474
0.714717
0.714695
0.714673
0.714651
0.714629
0.714607
0.714585
0.714563
0.71454
0.714518
0.714496
0.714474
0.714452
0.71443
0.714408
0.714386
0.714363
0.714341
0.714319
0.714297
0.715045
0.715002
0.714945
0.714907
0.714913
0.714984
0.715131
0.715358
0.715661
0.716027
0.716434
0.716853
0.717251
0.717596
0.717869
0.718065
0.718193
0.718267
0.718302
0.718312
0.718305
0.718289
0.718267
0.718241
0.718214
0.718187
0.718159
0.718132
0.718106
0.718079
0.718054
0.718029
0.718004
0.71798
0.717956
0.717933
0.717909
0.717886
0.717863
0.71784
0.717818
0.717795
0.717773
0.71775
0.717728
0.717705
0.717683
0.717661
0.717639
0.717617
0.717594
0.717572
0.71755
0.717528
0.717506
0.717484
0.717461
0.717439
0.717417
0.717395
0.717373
0.717351
0.717329
0.717306
0.717284
0.717262
0.71724
0.717218
0.717196
0.717174
0.717152
0.717129
0.717107
0.717085
0.717063
0.717041
0.717019
0.716997
0.716974
0.716952
0.71693
0.716908
0.716886
0.716864
0.716842
0.71682
0.716797
0.716775
0.716753
0.716731
0.716709
0.716687
0.716665
0.716643
0.71662
0.716598
0.716576
0.716554
0.716532
0.71651
0.716488
0.716466
0.716443
0.716421
0.716399
0.716377
0.716355
0.716333
0.716311
0.716289
0.716266
0.716244
0.716222
0.7162
0.716178
0.716156
0.716134
0.716112
0.716089
0.716067
0.716045
0.716023
0.716001
0.715979
0.715957
0.715934
0.715912
0.71589
0.715868
0.715846
0.715824
0.715802
0.71578
0.715757
0.715735
0.715713
0.715691
0.715669
0.715647
0.715625
0.715603
0.71558
0.715558
0.715536
0.715514
0.715492
0.71547
0.715448
0.715426
0.715403
0.715381
0.715359
0.715337
0.715315
0.715293
0.715271
0.715249
0.715226
0.715204
0.715182
0.71516
0.715138
0.715116
0.715094
0.715072
0.715049
0.715027
0.715005
0.714983
0.714961
0.714939
0.714917
0.714895
0.714872
0.71485
0.714828
0.714806
0.714784
0.714762
0.71474
0.714717
0.714695
0.714673
0.714651
0.714629
0.714607
0.714585
0.714563
0.71454
0.714518
0.714496
0.714474
0.714452
0.71443
0.714408
0.714386
0.714363
0.714341
0.714319
0.714297
0.714958
0.714904
0.714826
0.714762
0.714742
0.71479
0.714917
0.715128
0.715422
0.715788
0.716209
0.716655
0.717093
0.717483
0.717799
0.718026
0.718174
0.718257
0.718296
0.718306
0.718299
0.718282
0.718259
0.718234
0.718207
0.71818
0.718153
0.718127
0.718101
0.718076
0.718051
0.718026
0.718002
0.717978
0.717955
0.717931
0.717908
0.717885
0.717863
0.71784
0.717817
0.717795
0.717772
0.71775
0.717728
0.717705
0.717683
0.717661
0.717639
0.717616
0.717594
0.717572
0.71755
0.717528
0.717506
0.717483
0.717461
0.717439
0.717417
0.717395
0.717373
0.717351
0.717329
0.717306
0.717284
0.717262
0.71724
0.717218
0.717196
0.717174
0.717152
0.717129
0.717107
0.717085
0.717063
0.717041
0.717019
0.716997
0.716974
0.716952
0.71693
0.716908
0.716886
0.716864
0.716842
0.71682
0.716797
0.716775
0.716753
0.716731
0.716709
0.716687
0.716665
0.716643
0.71662
0.716598
0.716576
0.716554
0.716532
0.71651
0.716488
0.716466
0.716443
0.716421
0.716399
0.716377
0.716355
0.716333
0.716311
0.716289
0.716266
0.716244
0.716222
0.7162
0.716178
0.716156
0.716134
0.716112
0.716089
0.716067
0.716045
0.716023
0.716001
0.715979
0.715957
0.715934
0.715912
0.71589
0.715868
0.715846
0.715824
0.715802
0.71578
0.715757
0.715735
0.715713
0.715691
0.715669
0.715647
0.715625
0.715603
0.71558
0.715558
0.715536
0.715514
0.715492
0.71547
0.715448
0.715426
0.715403
0.715381
0.715359
0.715337
0.715315
0.715293
0.715271
0.715249
0.715226
0.715204
0.715182
0.71516
0.715138
0.715116
0.715094
0.715072
0.715049
0.715027
0.715005
0.714983
0.714961
0.714939
0.714917
0.714895
0.714872
0.71485
0.714828
0.714806
0.714784
0.714762
0.71474
0.714717
0.714695
0.714673
0.714651
0.714629
0.714607
0.714585
0.714563
0.71454
0.714518
0.714496
0.714474
0.714452
0.71443
0.714408
0.714386
0.714363
0.714341
0.714319
0.714297
0.714859
0.71481
0.714709
0.714628
0.71459
0.714623
0.714738
0.714939
0.715225
0.71559
0.716017
0.716481
0.716948
0.717377
0.717731
0.717991
0.718158
0.718251
0.718292
0.718301
0.718292
0.718274
0.71825
0.718225
0.718199
0.718172
0.718147
0.718121
0.718096
0.718071
0.718047
0.718023
0.718
0.717976
0.717953
0.71793
0.717907
0.717884
0.717862
0.717839
0.717817
0.717794
0.717772
0.71775
0.717727
0.717705
0.717683
0.717661
0.717639
0.717616
0.717594
0.717572
0.71755
0.717528
0.717506
0.717483
0.717461
0.717439
0.717417
0.717395
0.717373
0.717351
0.717329
0.717306
0.717284
0.717262
0.71724
0.717218
0.717196
0.717174
0.717152
0.717129
0.717107
0.717085
0.717063
0.717041
0.717019
0.716997
0.716974
0.716952
0.71693
0.716908
0.716886
0.716864
0.716842
0.71682
0.716797
0.716775
0.716753
0.716731
0.716709
0.716687
0.716665
0.716643
0.71662
0.716598
0.716576
0.716554
0.716532
0.71651
0.716488
0.716466
0.716443
0.716421
0.716399
0.716377
0.716355
0.716333
0.716311
0.716289
0.716266
0.716244
0.716222
0.7162
0.716178
0.716156
0.716134
0.716112
0.716089
0.716067
0.716045
0.716023
0.716001
0.715979
0.715957
0.715934
0.715912
0.71589
0.715868
0.715846
0.715824
0.715802
0.71578
0.715757
0.715735
0.715713
0.715691
0.715669
0.715647
0.715625
0.715603
0.71558
0.715558
0.715536
0.715514
0.715492
0.71547
0.715448
0.715426
0.715403
0.715381
0.715359
0.715337
0.715315
0.715293
0.715271
0.715249
0.715226
0.715204
0.715182
0.71516
0.715138
0.715116
0.715094
0.715072
0.715049
0.715027
0.715005
0.714983
0.714961
0.714939
0.714917
0.714895
0.714872
0.71485
0.714828
0.714806
0.714784
0.714762
0.71474
0.714717
0.714695
0.714673
0.714651
0.714629
0.714607
0.714585
0.714563
0.71454
0.714518
0.714496
0.714474
0.714452
0.71443
0.714408
0.714386
0.714363
0.714341
0.714319
0.714297
0.714862
0.714812
0.714682
0.714573
0.714513
0.714531
0.714633
0.714825
0.715105
0.715465
0.715893
0.716365
0.716848
0.717303
0.717686
0.717971
0.718154
0.718252
0.718292
0.718298
0.718286
0.718265
0.718241
0.718215
0.71819
0.718164
0.718139
0.718115
0.71809
0.718067
0.718043
0.71802
0.717997
0.717974
0.717951
0.717928
0.717906
0.717883
0.717861
0.717839
0.717816
0.717794
0.717772
0.717749
0.717727
0.717705
0.717683
0.717661
0.717638
0.717616
0.717594
0.717572
0.71755
0.717528
0.717506
0.717483
0.717461
0.717439
0.717417
0.717395
0.717373
0.717351
0.717329
0.717306
0.717284
0.717262
0.71724
0.717218
0.717196
0.717174
0.717152
0.717129
0.717107
0.717085
0.717063
0.717041
0.717019
0.716997
0.716974
0.716952
0.71693
0.716908
0.716886
0.716864
0.716842
0.71682
0.716797
0.716775
0.716753
0.716731
0.716709
0.716687
0.716665
0.716643
0.71662
0.716598
0.716576
0.716554
0.716532
0.71651
0.716488
0.716466
0.716443
0.716421
0.716399
0.716377
0.716355
0.716333
0.716311
0.716289
0.716266
0.716244
0.716222
0.7162
0.716178
0.716156
0.716134
0.716112
0.716089
0.716067
0.716045
0.716023
0.716001
0.715979
0.715957
0.715934
0.715912
0.71589
0.715868
0.715846
0.715824
0.715802
0.71578
0.715757
0.715735
0.715713
0.715691
0.715669
0.715647
0.715625
0.715603
0.71558
0.715558
0.715536
0.715514
0.715492
0.71547
0.715448
0.715426
0.715403
0.715381
0.715359
0.715337
0.715315
0.715293
0.715271
0.715249
0.715226
0.715204
0.715182
0.71516
0.715138
0.715116
0.715094
0.715072
0.715049
0.715027
0.715005
0.714983
0.714961
0.714939
0.714917
0.714895
0.714872
0.71485
0.714828
0.714806
0.714784
0.714762
0.71474
0.714717
0.714695
0.714673
0.714651
0.714629
0.714607
0.714585
0.714563
0.71454
0.714518
0.714496
0.714474
0.714452
0.71443
0.714408
0.714386
0.714363
0.714341
0.714319
0.714297
0.714756
0.714822
0.714682
0.714568
0.714498
0.714508
0.714606
0.714794
0.71507
0.715426
0.71585
0.716322
0.716809
0.717273
0.717671
0.717969
0.718159
0.718257
0.718293
0.718293
0.718277
0.718254
0.718229
0.718203
0.718179
0.718154
0.718131
0.718107
0.718084
0.718061
0.718039
0.718016
0.717994
0.717971
0.717949
0.717927
0.717905
0.717882
0.71786
0.717838
0.717816
0.717793
0.717771
0.717749
0.717727
0.717705
0.717683
0.717661
0.717638
0.717616
0.717594
0.717572
0.71755
0.717528
0.717506
0.717483
0.717461
0.717439
0.717417
0.717395
0.717373
0.717351
0.717329
0.717306
0.717284
0.717262
0.71724
0.717218
0.717196
0.717174
0.717152
0.717129
0.717107
0.717085
0.717063
0.717041
0.717019
0.716997
0.716974
0.716952
0.71693
0.716908
0.716886
0.716864
0.716842
0.71682
0.716797
0.716775
0.716753
0.716731
0.716709
0.716687
0.716665
0.716643
0.71662
0.716598
0.716576
0.716554
0.716532
0.71651
0.716488
0.716466
0.716443
0.716421
0.716399
0.716377
0.716355
0.716333
0.716311
0.716289
0.716266
0.716244
0.716222
0.7162
0.716178
0.716156
0.716134
0.716112
0.716089
0.716067
0.716045
0.716023
0.716001
0.715979
0.715957
0.715934
0.715912
0.71589
0.715868
0.715846
0.715824
0.715802
0.71578
0.715757
0.715735
0.715713
0.715691
0.715669
0.715647
0.715625
0.715603
0.71558
0.715558
0.715536
0.715514
0.715492
0.71547
0.715448
0.715426
0.715403
0.715381
0.715359
0.715337
0.715315
0.715293
0.715271
0.715249
0.715226
0.715204
0.715182
0.71516
0.715138
0.715116
0.715094
0.715072
0.715049
0.715027
0.715005
0.714983
0.714961
0.714939
0.714917
0.714895
0.714872
0.71485
0.714828
0.714806
0.714784
0.714762
0.71474
0.714717
0.714695
0.714673
0.714651
0.714629
0.714607
0.714585
0.714563
0.71454
0.714518
0.714496
0.714474
0.714452
0.71443
0.714408
0.714386
0.714363
0.714341
0.714319
0.714297
0.715686
0.715625
0.715555
0.715478
0.715391
0.715295
0.71519
0.715044
0.715702
0.71565
0.715579
0.715499
0.715412
0.715317
0.715205
0.715081
0.715718
0.715674
0.715611
0.715538
0.715459
0.715376
0.715293
0.715207
0.715743
0.715707
0.715652
0.715588
0.71552
0.715452
0.715386
0.715324
0.715771
0.71574
0.715692
0.715638
0.715582
0.715528
0.715482
0.715445
0.7158
0.715771
0.715728
0.715681
0.715634
0.715592
0.715559
0.71554
0.715827
0.715796
0.715754
0.715709
0.715666
0.715632
0.71561
0.715604
0.715844
0.715803
0.715761
0.715719
0.715679
0.715647
0.715626
0.71562
0.714974
0.714884
0.714735
0.714612
0.71455
0.714567
0.714671
0.714862
0.715136
0.715486
0.715899
0.716357
0.716831
0.717285
0.717676
0.717972
0.71816
0.718254
0.718285
0.718281
0.718262
0.718238
0.718214
0.71819
0.718166
0.718144
0.718122
0.7181
0.718078
0.718056
0.718034
0.718013
0.717991
0.717969
0.717947
0.717925
0.717903
0.717881
0.717859
0.717837
0.717815
0.717793
0.717771
0.717749
0.717727
0.717705
0.717682
0.71766
0.717638
0.717616
0.717594
0.717572
0.71755
0.717528
0.717506
0.717483
0.717461
0.717439
0.717417
0.717395
0.717373
0.717351
0.717329
0.717306
0.717284
0.717262
0.71724
0.717218
0.717196
0.717174
0.717152
0.717129
0.717107
0.717085
0.717063
0.717041
0.717019
0.716997
0.716974
0.716952
0.71693
0.716908
0.716886
0.716864
0.716842
0.71682
0.716797
0.716775
0.716753
0.716731
0.716709
0.716687
0.716665
0.716643
0.71662
0.716598
0.716576
0.716554
0.716532
0.71651
0.716488
0.716466
0.716443
0.716421
0.716399
0.716377
0.716355
0.716333
0.716311
0.716289
0.716266
0.716244
0.716222
0.7162
0.716178
0.716156
0.716134
0.716112
0.716089
0.716067
0.716045
0.716023
0.716001
0.715979
0.715957
0.715934
0.715912
0.71589
0.715868
0.715846
0.715824
0.715802
0.71578
0.715757
0.715735
0.715713
0.715691
0.715669
0.715647
0.715625
0.715603
0.71558
0.715558
0.715536
0.715514
0.715492
0.71547
0.715448
0.715426
0.715403
0.715381
0.715359
0.715337
0.715315
0.715293
0.715271
0.715249
0.715226
0.715204
0.715182
0.71516
0.715138
0.715116
0.715094
0.715072
0.715049
0.715027
0.715005
0.714983
0.714961
0.714939
0.714917
0.714895
0.714872
0.71485
0.714828
0.714806
0.714784
0.714762
0.71474
0.714717
0.714695
0.714673
0.714651
0.714629
0.714607
0.714585
0.714563
0.71454
0.714518
0.714496
0.714474
0.714452
0.71443
0.714408
0.714386
0.714363
0.714341
0.714319
0.714297
0.714973
0.714912
0.714822
0.714746
0.714718
0.714755
0.714867
0.715055
0.715318
0.715648
0.716034
0.71646
0.716898
0.717317
0.717679
0.717954
0.718131
0.718222
0.718253
0.71825
0.718234
0.718214
0.718192
0.718172
0.718152
0.718132
0.718112
0.718092
0.718071
0.718051
0.71803
0.718009
0.717988
0.717966
0.717945
0.717923
0.717902
0.71788
0.717858
0.717836
0.717814
0.717792
0.71777
0.717748
0.717726
0.717704
0.717682
0.71766
0.717638
0.717616
0.717594
0.717572
0.71755
0.717528
0.717506
0.717483
0.717461
0.717439
0.717417
0.717395
0.717373
0.717351
0.717329
0.717306
0.717284
0.717262
0.71724
0.717218
0.717196
0.717174
0.717152
0.717129
0.717107
0.717085
0.717063
0.717041
0.717019
0.716997
0.716974
0.716952
0.71693
0.716908
0.716886
0.716864
0.716842
0.71682
0.716797
0.716775
0.716753
0.716731
0.716709
0.716687
0.716665
0.716643
0.71662
0.716598
0.716576
0.716554
0.716532
0.71651
0.716488
0.716466
0.716443
0.716421
0.716399
0.716377
0.716355
0.716333
0.716311
0.716289
0.716266
0.716244
0.716222
0.7162
0.716178
0.716156
0.716134
0.716112
0.716089
0.716067
0.716045
0.716023
0.716001
0.715979
0.715957
0.715934
0.715912
0.71589
0.715868
0.715846
0.715824
0.715802
0.71578
0.715757
0.715735
0.715713
0.715691
0.715669
0.715647
0.715625
0.715603
0.71558
0.715558
0.715536
0.715514
0.715492
0.71547
0.715448
0.715426
0.715403
0.715381
0.715359
0.715337
0.715315
0.715293
0.715271
0.715249
0.715226
0.715204
0.715182
0.71516
0.715138
0.715116
0.715094
0.715072
0.715049
0.715027
0.715005
0.714983
0.714961
0.714939
0.714917
0.714895
0.714872
0.71485
0.714828
0.714806
0.714784
0.714762
0.71474
0.714717
0.714695
0.714673
0.714651
0.714629
0.714607
0.714585
0.714563
0.71454
0.714518
0.714496
0.714474
0.714452
0.71443
0.714408
0.714386
0.714363
0.714341
0.714319
0.714297
0.715134
0.715072
0.715017
0.714981
0.714983
0.715038
0.715155
0.715336
0.715581
0.715881
0.716228
0.716603
0.716984
0.717343
0.717653
0.717892
0.718054
0.718146
0.718187
0.718198
0.718193
0.718182
0.718168
0.718152
0.718136
0.718119
0.718102
0.718084
0.718065
0.718045
0.718026
0.718005
0.717985
0.717964
0.717943
0.717922
0.7179
0.717879
0.717857
0.717836
0.717814
0.717792
0.71777
0.717748
0.717726
0.717704
0.717682
0.71766
0.717638
0.717616
0.717594
0.717572
0.71755
0.717528
0.717505
0.717483
0.717461
0.717439
0.717417
0.717395
0.717373
0.717351
0.717329
0.717306
0.717284
0.717262
0.71724
0.717218
0.717196
0.717174
0.717152
0.717129
0.717107
0.717085
0.717063
0.717041
0.717019
0.716997
0.716974
0.716952
0.71693
0.716908
0.716886
0.716864
0.716842
0.71682
0.716797
0.716775
0.716753
0.716731
0.716709
0.716687
0.716665
0.716643
0.71662
0.716598
0.716576
0.716554
0.716532
0.71651
0.716488
0.716466
0.716443
0.716421
0.716399
0.716377
0.716355
0.716333
0.716311
0.716289
0.716266
0.716244
0.716222
0.7162
0.716178
0.716156
0.716134
0.716112
0.716089
0.716067
0.716045
0.716023
0.716001
0.715979
0.715957
0.715934
0.715912
0.71589
0.715868
0.715846
0.715824
0.715802
0.71578
0.715757
0.715735
0.715713
0.715691
0.715669
0.715647
0.715625
0.715603
0.71558
0.715558
0.715536
0.715514
0.715492
0.71547
0.715448
0.715426
0.715403
0.715381
0.715359
0.715337
0.715315
0.715293
0.715271
0.715249
0.715226
0.715204
0.715182
0.71516
0.715138
0.715116
0.715094
0.715072
0.715049
0.715027
0.715005
0.714983
0.714961
0.714939
0.714917
0.714895
0.714872
0.71485
0.714828
0.714806
0.714784
0.714762
0.71474
0.714717
0.714695
0.714673
0.714651
0.714629
0.714607
0.714585
0.714563
0.71454
0.714518
0.714496
0.714474
0.714452
0.71443
0.714408
0.714386
0.714363
0.714341
0.714319
0.714297
0.715273
0.71524
0.715221
0.715225
0.715262
0.715341
0.715467
0.715642
0.715863
0.716126
0.71642
0.71673
0.717038
0.717326
0.717579
0.717783
0.717934
0.718035
0.718094
0.718126
0.718139
0.718142
0.718139
0.718131
0.71812
0.718107
0.718092
0.718076
0.718059
0.71804
0.718022
0.718002
0.717982
0.717962
0.717941
0.71792
0.717899
0.717878
0.717857
0.717835
0.717813
0.717792
0.71777
0.717748
0.717726
0.717704
0.717682
0.71766
0.717638
0.717616
0.717594
0.717572
0.71755
0.717528
0.717505
0.717483
0.717461
0.717439
0.717417
0.717395
0.717373
0.717351
0.717329
0.717306
0.717284
0.717262
0.71724
0.717218
0.717196
0.717174
0.717152
0.717129
0.717107
0.717085
0.717063
0.717041
0.717019
0.716997
0.716974
0.716952
0.71693
0.716908
0.716886
0.716864
0.716842
0.71682
0.716797
0.716775
0.716753
0.716731
0.716709
0.716687
0.716665
0.716643
0.71662
0.716598
0.716576
0.716554
0.716532
0.71651
0.716488
0.716466
0.716443
0.716421
0.716399
0.716377
0.716355
0.716333
0.716311
0.716289
0.716266
0.716244
0.716222
0.7162
0.716178
0.716156
0.716134
0.716112
0.716089
0.716067
0.716045
0.716023
0.716001
0.715979
0.715957
0.715934
0.715912
0.71589
0.715868
0.715846
0.715824
0.715802
0.71578
0.715757
0.715735
0.715713
0.715691
0.715669
0.715647
0.715625
0.715603
0.71558
0.715558
0.715536
0.715514
0.715492
0.71547
0.715448
0.715426
0.715403
0.715381
0.715359
0.715337
0.715315
0.715293
0.715271
0.715249
0.715226
0.715204
0.715182
0.71516
0.715138
0.715116
0.715094
0.715072
0.715049
0.715027
0.715005
0.714983
0.714961
0.714939
0.714917
0.714895
0.714872
0.71485
0.714828
0.714806
0.714784
0.714762
0.71474
0.714717
0.714695
0.714673
0.714651
0.714629
0.714607
0.714585
0.714563
0.71454
0.714518
0.714496
0.714474
0.714452
0.71443
0.714408
0.714386
0.714363
0.714341
0.714319
0.714297
0.715423
0.715417
0.715429
0.715463
0.715522
0.715613
0.715738
0.715897
0.716089
0.716307
0.716542
0.716784
0.717024
0.717254
0.717467
0.717656
0.717811
0.717929
0.71801
0.718062
0.718093
0.718108
0.718114
0.718112
0.718106
0.718096
0.718084
0.718069
0.718053
0.718036
0.718018
0.717999
0.71798
0.71796
0.71794
0.717919
0.717898
0.717877
0.717856
0.717835
0.717813
0.717791
0.71777
0.717748
0.717726
0.717704
0.717682
0.71766
0.717638
0.717616
0.717594
0.717572
0.71755
0.717528
0.717505
0.717483
0.717461
0.717439
0.717417
0.717395
0.717373
0.717351
0.717329
0.717306
0.717284
0.717262
0.71724
0.717218
0.717196
0.717174
0.717152
0.717129
0.717107
0.717085
0.717063
0.717041
0.717019
0.716997
0.716974
0.716952
0.71693
0.716908
0.716886
0.716864
0.716842
0.71682
0.716797
0.716775
0.716753
0.716731
0.716709
0.716687
0.716665
0.716643
0.71662
0.716598
0.716576
0.716554
0.716532
0.71651
0.716488
0.716466
0.716443
0.716421
0.716399
0.716377
0.716355
0.716333
0.716311
0.716289
0.716266
0.716244
0.716222
0.7162
0.716178
0.716156
0.716134
0.716112
0.716089
0.716067
0.716045
0.716023
0.716001
0.715979
0.715957
0.715934
0.715912
0.71589
0.715868
0.715846
0.715824
0.715802
0.71578
0.715757
0.715735
0.715713
0.715691
0.715669
0.715647
0.715625
0.715603
0.71558
0.715558
0.715536
0.715514
0.715492
0.71547
0.715448
0.715426
0.715403
0.715381
0.715359
0.715337
0.715315
0.715293
0.715271
0.715249
0.715226
0.715204
0.715182
0.71516
0.715138
0.715116
0.715094
0.715072
0.715049
0.715027
0.715005
0.714983
0.714961
0.714939
0.714917
0.714895
0.714872
0.71485
0.714828
0.714806
0.714784
0.714762
0.71474
0.714717
0.714695
0.714673
0.714651
0.714629
0.714607
0.714585
0.714563
0.71454
0.714518
0.714496
0.714474
0.714452
0.71443
0.714408
0.714386
0.714363
0.714341
0.714319
0.714297
0.715536
0.71555
0.715584
0.715637
0.715711
0.715807
0.715925
0.716062
0.716216
0.716383
0.716561
0.716751
0.716952
0.717161
0.717367
0.717558
0.717722
0.717852
0.717948
0.718013
0.718056
0.718081
0.718094
0.718097
0.718095
0.718088
0.718077
0.718064
0.718049
0.718033
0.718016
0.717997
0.717978
0.717959
0.717939
0.717918
0.717898
0.717877
0.717856
0.717834
0.717813
0.717791
0.717769
0.717748
0.717726
0.717704
0.717682
0.71766
0.717638
0.717616
0.717594
0.717572
0.71755
0.717528
0.717505
0.717483
0.717461
0.717439
0.717417
0.717395
0.717373
0.717351
0.717329
0.717306
0.717284
0.717262
0.71724
0.717218
0.717196
0.717174
0.717152
0.717129
0.717107
0.717085
0.717063
0.717041
0.717019
0.716997
0.716974
0.716952
0.71693
0.716908
0.716886
0.716864
0.716842
0.71682
0.716797
0.716775
0.716753
0.716731
0.716709
0.716687
0.716665
0.716643
0.71662
0.716598
0.716576
0.716554
0.716532
0.71651
0.716488
0.716466
0.716443
0.716421
0.716399
0.716377
0.716355
0.716333
0.716311
0.716289
0.716266
0.716244
0.716222
0.7162
0.716178
0.716156
0.716134
0.716112
0.716089
0.716067
0.716045
0.716023
0.716001
0.715979
0.715957
0.715934
0.715912
0.71589
0.715868
0.715846
0.715824
0.715802
0.71578
0.715757
0.715735
0.715713
0.715691
0.715669
0.715647
0.715625
0.715603
0.71558
0.715558
0.715536
0.715514
0.715492
0.71547
0.715448
0.715426
0.715403
0.715381
0.715359
0.715337
0.715315
0.715293
0.715271
0.715249
0.715226
0.715204
0.715182
0.71516
0.715138
0.715116
0.715094
0.715072
0.715049
0.715027
0.715005
0.714983
0.714961
0.714939
0.714917
0.714895
0.714872
0.71485
0.714828
0.714806
0.714784
0.714762
0.71474
0.714717
0.714695
0.714673
0.714651
0.714629
0.714607
0.714585
0.714563
0.71454
0.714518
0.714496
0.714474
0.714452
0.71443
0.714408
0.714386
0.714363
0.714341
0.714319
0.714297
0.715615
0.715645
0.71569
0.715748
0.715817
0.715894
0.715983
0.716086
0.71621
0.716357
0.716527
0.716717
0.716921
0.717128
0.717331
0.717519
0.717682
0.717814
0.717915
0.717987
0.718036
0.718066
0.718082
0.718089
0.718088
0.718083
0.718073
0.718061
0.718047
0.718031
0.718014
0.717996
0.717977
0.717958
0.717938
0.717918
0.717897
0.717876
0.717855
0.717834
0.717813
0.717791
0.717769
0.717747
0.717726
0.717704
0.717682
0.71766
0.717638
0.717616
0.717594
0.717572
0.71755
0.717528
0.717505
0.717483
0.717461
0.717439
0.717417
0.717395
0.717373
0.717351
0.717329
0.717306
0.717284
0.717262
0.71724
0.717218
0.717196
0.717174
0.717152
0.717129
0.717107
0.717085
0.717063
0.717041
0.717019
0.716997
0.716974
0.716952
0.71693
0.716908
0.716886
0.716864
0.716842
0.71682
0.716797
0.716775
0.716753
0.716731
0.716709
0.716687
0.716665
0.716643
0.71662
0.716598
0.716576
0.716554
0.716532
0.71651
0.716488
0.716466
0.716443
0.716421
0.716399
0.716377
0.716355
0.716333
0.716311
0.716289
0.716266
0.716244
0.716222
0.7162
0.716178
0.716156
0.716134
0.716112
0.716089
0.716067
0.716045
0.716023
0.716001
0.715979
0.715957
0.715934
0.715912
0.71589
0.715868
0.715846
0.715824
0.715802
0.71578
0.715757
0.715735
0.715713
0.715691
0.715669
0.715647
0.715625
0.715603
0.71558
0.715558
0.715536
0.715514
0.715492
0.71547
0.715448
0.715426
0.715403
0.715381
0.715359
0.715337
0.715315
0.715293
0.715271
0.715249
0.715226
0.715204
0.715182
0.71516
0.715138
0.715116
0.715094
0.715072
0.715049
0.715027
0.715005
0.714983
0.714961
0.714939
0.714917
0.714895
0.714872
0.71485
0.714828
0.714806
0.714784
0.714762
0.71474
0.714717
0.714695
0.714673
0.714651
0.714629
0.714607
0.714585
0.714563
0.71454
0.714518
0.714496
0.714474
0.714452
0.71443
0.714408
0.714386
0.714363
0.714341
0.714319
0.714297
0.715631
0.715657
0.715697
0.715749
0.715811
0.715885
0.715975
0.716083
0.716212
0.716363
0.716533
0.716719
0.716918
0.717122
0.717321
0.717506
0.717667
0.717798
0.7179
0.717974
0.718025
0.718057
0.718075
0.718084
0.718084
0.71808
0.718071
0.718059
0.718046
0.71803
0.718013
0.717995
0.717977
0.717958
0.717938
0.717918
0.717897
0.717876
0.717855
0.717834
0.717812
0.717791
0.717769
0.717747
0.717726
0.717704
0.717682
0.71766
0.717638
0.717616
0.717594
0.717572
0.71755
0.717528
0.717505
0.717483
0.717461
0.717439
0.717417
0.717395
0.717373
0.717351
0.717329
0.717306
0.717284
0.717262
0.71724
0.717218
0.717196
0.717174
0.717152
0.717129
0.717107
0.717085
0.717063
0.717041
0.717019
0.716997
0.716974
0.716952
0.71693
0.716908
0.716886
0.716864
0.716842
0.71682
0.716797
0.716775
0.716753
0.716731
0.716709
0.716687
0.716665
0.716643
0.71662
0.716598
0.716576
0.716554
0.716532
0.71651
0.716488
0.716466
0.716443
0.716421
0.716399
0.716377
0.716355
0.716333
0.716311
0.716289
0.716266
0.716244
0.716222
0.7162
0.716178
0.716156
0.716134
0.716112
0.716089
0.716067
0.716045
0.716023
0.716001
0.715979
0.715957
0.715934
0.715912
0.71589
0.715868
0.715846
0.715824
0.715802
0.71578
0.715757
0.715735
0.715713
0.715691
0.715669
0.715647
0.715625
0.715603
0.71558
0.715558
0.715536
0.715514
0.715492
0.71547
0.715448
0.715426
0.715403
0.715381
0.715359
0.715337
0.715315
0.715293
0.715271
0.715249
0.715226
0.715204
0.715182
0.71516
0.715138
0.715116
0.715094
0.715072
0.715049
0.715027
0.715005
0.714983
0.714961
0.714939
0.714917
0.714895
0.714872
0.71485
0.714828
0.714806
0.714784
0.714762
0.71474
0.714717
0.714695
0.714673
0.714651
0.714629
0.714607
0.714585
0.714563
0.71454
0.714518
0.714496
0.714474
0.714452
0.71443
0.714408
0.714386
0.714363
0.714341
0.714319
0.714297
)
;

boundaryField
{
    inlet
    {
        type            zeroGradient;
    }
    outlet
    {