/*--------------------------------*- C++ -*----------------------------------*\
| =========                 |                                                 |
| \\      /  F ield         | OpenFOAM: The Open Source CFD Toolbox           |
|  \\    /   O peration     | Version:  4.1                                   |
|   \\  /    A nd           | Web:      www.OpenFOAM.org                      |
|    \\/     M anipulation  |                                                 |
\*---------------------------------------------------------------------------*/
FoamFile
{
    version     2.0;
    format      ascii;
    class       volScalarField;
    location    "4710";
    object      p;
}
// * * * * * * * * * * * * * * * * * * * * * * * * * * * * * * * * * * * * * //

dimensions      [1 -1 -2 0 0 0 0];

internalField   nonuniform List<scalar> 
1275
(
0.712254
0.712206
0.712199
0.712156
0.712144
0.7121
0.712084
0.712033
0.712018
0.711949
0.712266
0.712214
0.712208
0.712163
0.712152
0.712109
0.712096
0.71205
0.712042
0.711995
0.712283
0.712229
0.712224
0.712177
0.712168
0.712124
0.712112
0.712069
0.712057
0.712019
0.712303
0.712247
0.712243
0.712196
0.712188
0.712145
0.712136
0.712096
0.712089
0.712055
0.712322
0.712266
0.712262
0.712215
0.712208
0.712167
0.712157
0.712121
0.712111
0.712081
0.712338
0.712283
0.712279
0.712234
0.712226
0.712187
0.712178
0.712144
0.712134
0.712106
0.712346
0.712294
0.712289
0.712246
0.712238
0.712201
0.712191
0.712159
0.712147
0.712121
0.712349
0.7123
0.712295
0.712255
0.712245
0.71221
0.712199
0.712168
0.712156
0.712129
0.712342
0.7123
0.712294
0.712256
0.712245
0.712211
0.712199
0.712169
0.712156
0.71213
0.712073
0.712079
0.712085
0.712091
0.712097
0.712103
0.71211
0.712117
0.712125
0.712132
0.71214
0.712148
0.712157
0.712166
0.712175
0.712185
0.712195
0.712206
0.712217
0.712228
0.712241
0.712253
0.712267
0.712281
0.712295
0.712311
0.712327
0.712345
0.712363
0.712382
0.712402
0.712424
0.712447
0.712471
0.712496
0.712523
0.712551
0.71258
0.712611
0.712643
0.712677
0.712711
0.712746
0.712782
0.712819
0.712855
0.712891
0.712927
0.712962
0.712996
0.713029
0.71306
0.713089
0.713115
0.71314
0.713162
0.713182
0.713199
0.713214
0.713226
0.713237
0.713246
0.713253
0.713258
0.713263
0.713266
0.713269
0.713271
0.713273
0.713275
0.713276
0.713277
0.713279
0.71328
0.713282
0.713283
0.713286
0.713288
0.711926
0.711977
0.71197
0.711992
0.711987
0.711995
0.711992
0.711995
0.711993
0.711994
0.711993
0.711993
0.711992
0.711993
0.711992
0.711993
0.711993
0.711994
0.711994
0.711995
0.711996
0.711997
0.711998
0.712
0.712001
0.712003
0.712005
0.712007
0.712009
0.712012
0.712015
0.712018
0.712021
0.712024
0.712027
0.712031
0.712035
0.712039
0.712043
0.712048
0.712052
0.712058
0.712062
0.712068
0.712073
0.71208
0.712085
0.712092
0.712099
0.712106
0.712113
0.712121
0.712128
0.712137
0.712145
0.712154
0.712164
0.712173
0.712184
0.712194
0.712205
0.712217
0.712229
0.712242
0.712255
0.712269
0.712284
0.712299
0.712315
0.712332
0.71235
0.712369
0.712388
0.712408
0.71243
0.712452
0.712476
0.7125
0.712525
0.712552
0.71258
0.712608
0.712638
0.712668
0.712699
0.712731
0.712763
0.712795
0.712827
0.71286
0.712891
0.712922
0.712952
0.712981
0.713009
0.713035
0.713059
0.713081
0.713101
0.713119
0.713135
0.713149
0.713162
0.713172
0.713182
0.713189
0.713196
0.713202
0.713207
0.713211
0.713215
0.713218
0.713221
0.713224
0.713227
0.71323
0.713233
0.713237
0.71324
0.713244
0.713247
0.713251
0.713255
0.711999
0.712003
0.711997
0.712003
0.711996
0.711999
0.711994
0.711996
0.711993
0.711993
0.711991
0.711992
0.711991
0.711992
0.711991
0.711992
0.711992
0.711993
0.711994
0.711995
0.711996
0.711997
0.711999
0.712001
0.712002
0.712004
0.712007
0.712009
0.712012
0.712015
0.712018
0.712021
0.712024
0.712028
0.712032
0.712036
0.71204
0.712045
0.712049
0.712054
0.71206
0.712065
0.712071
0.712077
0.712084
0.71209
0.712097
0.712104
0.712112
0.71212
0.712128
0.712137
0.712146
0.712155
0.712165
0.712176
0.712187
0.712198
0.71221
0.712222
0.712235
0.712249
0.712263
0.712278
0.712293
0.712309
0.712326
0.712344
0.712362
0.712381
0.712401
0.712422
0.712444
0.712466
0.712489
0.712513
0.712538
0.712564
0.71259
0.712617
0.712645
0.712673
0.712701
0.71273
0.712759
0.712788
0.712817
0.712846
0.712874
0.712901
0.712928
0.712953
0.712977
0.713
0.713021
0.713041
0.713059
0.713076
0.713091
0.713104
0.713116
0.713127
0.713136
0.713144
0.713151
0.713158
0.713164
0.713169
0.713174
0.713179
0.713183
0.713188
0.713192
0.713196
0.713201
0.713205
0.71321
0.713214
0.713219
0.713224
0.713229
0.713234
0.713239
0.712008
0.712008
0.712002
0.712007
0.712003
0.712006
0.712002
0.712003
0.711999
0.712
0.711997
0.711997
0.711996
0.711995
0.711995
0.711995
0.711995
0.711995
0.711996
0.711997
0.711998
0.711999
0.712
0.712002
0.712004
0.712007
0.712009
0.712012
0.712015
0.712018
0.712021
0.712025
0.712029
0.712033
0.712037
0.712042
0.712046
0.712052
0.712057
0.712063
0.712069
0.712075
0.712081
0.712089
0.712095
0.712103
0.712111
0.71212
0.712128
0.712137
0.712147
0.712157
0.712167
0.712178
0.71219
0.712202
0.712214
0.712227
0.712241
0.712255
0.71227
0.712286
0.712302
0.712319
0.712336
0.712355
0.712374
0.712393
0.712414
0.712435
0.712457
0.712479
0.712502
0.712526
0.712551
0.712576
0.712601
0.712627
0.712653
0.71268
0.712707
0.712734
0.71276
0.712787
0.712813
0.712839
0.712864
0.712889
0.712912
0.712935
0.712957
0.712977
0.712997
0.713015
0.713031
0.713046
0.71306
0.713073
0.713084
0.713094
0.713104
0.713112
0.71312
0.713128
0.713134
0.713141
0.713147
0.713153
0.713159
0.713164
0.713169
0.713174
0.71318
0.713185
0.71319
0.713195
0.7132
0.713205
0.713211
0.713216
0.713221
0.713227
0.713233
0.712053
0.71204
0.712035
0.712029
0.712022
0.712019
0.712013
0.71201
0.712006
0.712003
0.712
0.711999
0.711997
0.711996
0.711995
0.711995
0.711995
0.711995
0.711996
0.711997
0.711998
0.712
0.712002
0.712004
0.712006
0.712009
0.712011
0.712015
0.712018
0.712022
0.712025
0.712029
0.712034
0.712038
0.712043
0.712049
0.712054
0.71206
0.712066
0.712072
0.712079
0.712086
0.712093
0.712101
0.712109
0.712118
0.712127
0.712137
0.712146
0.712157
0.712168
0.712179
0.712191
0.712203
0.712216
0.71223
0.712244
0.712259
0.712274
0.71229
0.712307
0.712324
0.712342
0.712361
0.71238
0.7124
0.712421
0.712442
0.712464
0.712487
0.71251
0.712534
0.712558
0.712582
0.712607
0.712632
0.712658
0.712683
0.712709
0.712734
0.712759
0.712784
0.712809
0.712833
0.712856
0.712879
0.7129
0.712921
0.712941
0.71296
0.712977
0.712994
0.713009
0.713023
0.713037
0.713049
0.713061
0.713071
0.713081
0.71309
0.713099
0.713107
0.713115
0.713122
0.713128
0.713135
0.713141
0.713147
0.713153
0.713158
0.713164
0.71317
0.713175
0.713181
0.713187
0.713192
0.713198
0.713203
0.713209
0.713214
0.71322
0.713225
0.713231
0.712072
0.712055
0.712048
0.712038
0.712032
0.712026
0.71202
0.712016
0.712011
0.712008
0.712004
0.712002
0.712
0.711998
0.711997
0.711996
0.711996
0.711996
0.711997
0.711998
0.711999
0.712001
0.712003
0.712005
0.712007
0.71201
0.712013
0.712017
0.71202
0.712024
0.712029
0.712033
0.712038
0.712043
0.712049
0.712054
0.71206
0.712067
0.712074
0.712081
0.712088
0.712096
0.712104
0.712113
0.712122
0.712131
0.712141
0.712151
0.712162
0.712174
0.712186
0.712198
0.712211
0.712225
0.712239
0.712254
0.712269
0.712285
0.712302
0.712319
0.712337
0.712356
0.712375
0.712395
0.712416
0.712437
0.712459
0.712481
0.712504
0.712527
0.712551
0.712575
0.712599
0.712624
0.712649
0.712673
0.712698
0.712722
0.712747
0.71277
0.712794
0.712817
0.712839
0.71286
0.712881
0.712901
0.71292
0.712938
0.712955
0.712972
0.712987
0.713001
0.713015
0.713028
0.713039
0.71305
0.713061
0.71307
0.713079
0.713087
0.713096
0.713103
0.713111
0.713118
0.713125
0.713132
0.713139
0.713145
0.713151
0.713158
0.713163
0.713169
0.713175
0.713181
0.713186
0.713192
0.713197
0.713203
0.713208
0.713214
0.713219
0.713225
0.713231
0.712098
0.712078
0.71207
0.712056
0.712048
0.712038
0.712031
0.712023
0.712018
0.712012
0.712008
0.712004
0.712001
0.711999
0.711998
0.711997
0.711996
0.711996
0.711997
0.711998
0.711999
0.712001
0.712003
0.712006
0.712009
0.712012
0.712015
0.712019
0.712023
0.712027
0.712032
0.712037
0.712042
0.712048
0.712053
0.71206
0.712066
0.712073
0.71208
0.712088
0.712096
0.712104
0.712113
0.712122
0.712132
0.712142
0.712152
0.712163
0.712175
0.712187
0.7122
0.712213
0.712227
0.712241
0.712256
0.712272
0.712288
0.712305
0.712323
0.712341
0.71236
0.71238
0.7124
0.71242
0.712442
0.712463
0.712486
0.712508
0.712531
0.712555
0.712578
0.712602
0.712626
0.71265
0.712674
0.712698
0.712722
0.712745
0.712768
0.71279
0.712812
0.712834
0.712854
0.712874
0.712893
0.712912
0.712929
0.712946
0.712961
0.712976
0.71299
0.713003
0.713015
0.713027
0.713038
0.713048
0.713059
0.713068
0.713078
0.713087
0.713095
0.713103
0.713111
0.713118
0.713125
0.713132
0.713138
0.713145
0.713151
0.713157
0.713163
0.713169
0.713174
0.71318
0.713186
0.713191
0.713197
0.713203
0.713208
0.713214
0.713219
0.713225
0.713231
0.71211
0.712088
0.712078
0.712062
0.712053
0.712041
0.712034
0.712025
0.712019
0.712013
0.712008
0.712004
0.712001
0.711998
0.711997
0.711996
0.711995
0.711995
0.711996
0.711997
0.711998
0.712
0.712003
0.712005
0.712008
0.712012
0.712015
0.712019
0.712023
0.712028
0.712033
0.712038
0.712043
0.712049
0.712055
0.712062
0.712069
0.712076
0.712083
0.712091
0.712099
0.712108
0.712117
0.712127
0.712137
0.712147
0.712158
0.712169
0.712181
0.712194
0.712207
0.712221
0.712235
0.71225
0.712265
0.712281
0.712298
0.712315
0.712333
0.712351
0.71237
0.71239
0.71241
0.712431
0.712452
0.712474
0.712496
0.712519
0.712542
0.712565
0.712589
0.712612
0.712636
0.712659
0.712683
0.712706
0.712729
0.712752
0.712774
0.712795
0.712816
0.712837
0.712856
0.712875
0.712894
0.712911
0.712928
0.712944
0.712959
0.712974
0.712988
0.713001
0.713014
0.713026
0.713037
0.713048
0.713058
0.713068
0.713077
0.713085
0.713094
0.713102
0.713109
0.713117
0.713124
0.713131
0.713137
0.713144
0.71315
0.713157
0.713163
0.713168
0.713174
0.71318
0.713186
0.713191
0.713197
0.713202
0.713208
0.713214
0.713219
0.713225
0.713231
0.712118
0.712096
0.712085
0.712068
0.712059
0.712045
0.712037
0.712027
0.712021
0.712014
0.71201
0.712005
0.712002
0.711999
0.711997
0.711996
0.711996
0.711995
0.711996
0.711997
0.711999
0.712001
0.712003
0.712006
0.712009
0.712012
0.712016
0.71202
0.712024
0.712029
0.712034
0.712039
0.712044
0.71205
0.712057
0.712063
0.71207
0.712077
0.712085
0.712093
0.712101
0.71211
0.712119
0.712129
0.712139
0.71215
0.712161
0.712172
0.712184
0.712197
0.71221
0.712224
0.712238
0.712253
0.712269
0.712285
0.712302
0.712319
0.712337
0.712355
0.712375
0.712394
0.712415
0.712435
0.712457
0.712478
0.7125
0.712523
0.712546
0.712569
0.712592
0.712615
0.712638
0.712661
0.712684
0.712707
0.71273
0.712752
0.712774
0.712795
0.712816
0.712836
0.712856
0.712875
0.712893
0.71291
0.712927
0.712943
0.712959
0.712973
0.712987
0.713
0.713013
0.713025
0.713036
0.713046
0.713057
0.713066
0.713076
0.713085
0.713093
0.713101
0.713109
0.713117
0.713124
0.713131
0.713137
0.713144
0.71315
0.713156
0.713162
0.713168
0.713174
0.71318
0.713185
0.713191
0.713197
0.713202
0.713208
0.713214
0.713219
0.713225
0.713231
0.712118
0.712096
0.712085
0.712067
0.712057
0.712044
0.712036
0.712026
0.712019
0.712012
0.712007
0.712002
0.711999
0.711996
0.711995
0.711994
0.711993
0.711993
0.711994
0.711995
0.711997
0.711999
0.712001
0.712004
0.712007
0.71201
0.712014
0.712018
0.712022
0.712027
0.712032
0.712037
0.712043
0.712049
0.712055
0.712062
0.712069
0.712076
0.712083
0.712091
0.7121
0.712109
0.712118
0.712127
0.712137
0.712148
0.712159
0.712171
0.712183
0.712195
0.712208
0.712222
0.712236
0.712251
0.712267
0.712283
0.712299
0.712316
0.712334
0.712353
0.712372
0.712391
0.712411
0.712432
0.712453
0.712475
0.712497
0.712519
0.712542
0.712565
0.712588
0.712611
0.712634
0.712657
0.71268
0.712703
0.712726
0.712748
0.71277
0.712792
0.712813
0.712833
0.712853
0.712872
0.71289
0.712908
0.712924
0.712941
0.712956
0.712971
0.712985
0.712998
0.713011
0.713023
0.713035
0.713046
0.713056
0.713066
0.713075
0.713084
0.713092
0.713101
0.713108
0.713116
0.713123
0.71313
0.713137
0.713143
0.71315
0.713156
0.713162
0.713168
0.713174
0.713179
0.713185
0.713191
0.713196
0.713202
0.713208
0.713213
0.713219
0.713225
0.713231
)
;

boundaryField
{
    inlet
    {
        type            zeroGradient;
    }
    outlet
    {
        type            fixedValue;
        value           nonuniform 0();
    }
    walls
    {
        type            zeroGradient;
    }
    symwall
    {
        type            empty;
    }
    procBoundary2to0
    {
        type            processor;
        value           nonuniform List<scalar> 
133
(
0.71207
0.712075
0.712081
0.712086
0.712092
0.712098
0.712104
0.712111
0.712118
0.712125
0.712132
0.71214
0.712147
0.712156
0.712164
0.712173
0.712182
0.712191
0.712201
0.712212
0.712222
0.712234
0.712245
0.712258
0.712271
0.712285
0.712299
0.712315
0.712331
0.712348
0.712367
0.712386
0.712407
0.712429
0.712453
0.712479
0.712506
0.712534
0.712565
0.712597
0.712631
0.712666
0.712703
0.712742
0.712781
0.712822
0.712862
0.712904
0.712944
0.712985
0.713024
0.713062
0.713098
0.713132
0.713164
0.713193
0.713219
0.713242
0.713263
0.713281
0.713296
0.713308
0.713318
0.713326
0.713332
0.713336
0.713339
0.713341
0.713342
0.713342
0.713342
0.713341
0.71334
0.713339
0.713339
0.713338
0.713337
0.712245
0.712202
0.712195
0.712154
0.712141
0.712098
0.712083
0.712032
0.712022
0.711949
0.711967
0.711993
0.711987
0.711992
0.711987
0.711989
0.711986
0.711988
0.711986
0.711988
0.711987
0.711988
0.711987
0.711988
0.711989
0.711989
0.71199
0.711991
0.711992
0.711993
0.711994
0.711995
0.711996
0.711998
0.712
0.712002
0.712003
0.712006
0.712008
0.71201
0.712013
0.712016
0.712019
0.712022
0.712025
0.712028
0.712032
0.712036
0.71204
0.712044
0.712048
0.712053
0.712058
0.712063
0.712068
0.712068
)
;
    }
    procBoundary2to1
    {
        type            processor;
        value           uniform 0.713338;
    }
    procBoundary2to3
    {
        type            processor;
        value           nonuniform List<scalar> 10(0.71329 0.71326 0.713244 0.713238 0.713237 0.713236 0.713237 0.713237 0.713237 0.713236);
    }
}


// ************************************************************************* //
