/*--------------------------------*- C++ -*----------------------------------*\
| =========                 |                                                 |
| \\      /  F ield         | OpenFOAM: The Open Source CFD Toolbox           |
|  \\    /   O peration     | Version:  4.1                                   |
|   \\  /    A nd           | Web:      www.OpenFOAM.org                      |
|    \\/     M anipulation  |                                                 |
\*---------------------------------------------------------------------------*/
FoamFile
{
    version     2.0;
    format      ascii;
    class       volVectorField;
    location    "0.0189";
    object      U;
}
// * * * * * * * * * * * * * * * * * * * * * * * * * * * * * * * * * * * * * //

dimensions      [0 1 -1 0 0 0 0];

internalField   nonuniform List<vector> 
441
(
(-0.000112728 9.7809e-05 0)
(-0.000533703 0.000293562 0)
(-0.0011281 0.000468699 0)
(-0.00183481 0.000574487 0)
(-0.00258345 0.000609643 0)
(-0.00331058 0.000585573 0)
(-0.00396546 0.000516111 0)
(-0.00451043 0.000413902 0)
(-0.00491908 0.000289366 0)
(-0.005174 0.000150819 0)
(-0.00526499 5.10055e-06 0)
(-0.00518798 -0.000141616 0)
(-0.0049448 -0.000282973 0)
(-0.00454381 -0.000411595 0)
(-0.00400138 -0.000518352 0)
(-0.0033439 -0.000591859 0)
(-0.00261011 -0.000618545 0)
(-0.00185269 -0.000583935 0)
(-0.00113746 -0.000476513 0)
(-0.00053685 -0.000298159 0)
(-0.000112971 -9.89257e-05 0)
(-0.000345538 0.00049978 0)
(-0.00151747 0.00136946 0)
(-0.00307459 0.00203979 0)
(-0.0048676 0.00242516 0)
(-0.00673467 0.00253494 0)
(-0.00853087 0.00241463 0)
(-0.0101395 0.00211771 0)
(-0.0114735 0.00169319 0)
(-0.0124713 0.00118159 0)
(-0.0130924 0.00061532 0)
(-0.0133131 2.1027e-05 0)
(-0.0131241 -0.000577221 0)
(-0.0125298 -0.00115463 0)
(-0.0115498 -0.00168243 0)
(-0.0102224 -0.00212503 0)
(-0.00860865 -0.0024381 0)
(-0.00679807 -0.00256899 0)
(-0.00491146 -0.00246174 0)
(-0.00309888 -0.00207041 0)
(-0.00152672 -0.0013879 0)
(-0.000346753 -0.000504661 0)
(-0.000576984 0.00110951 0)
(-0.00240188 0.00290226 0)
(-0.0047396 0.00419144 0)
(-0.00737576 0.00490161 0)
(-0.0100879 0.00507617 0)
(-0.0126786 0.00480872 0)
(-0.0149886 0.00420302 0)
(-0.0168987 0.00335312 0)
(-0.018325 0.00233664 0)
(-0.019212 0.0012156 0)
(-0.0195274 4.09487e-05 0)
(-0.0192583 -0.00114137 0)
(-0.0184106 -0.00228402 0)
(-0.017011 -0.00333201 0)
(-0.0151113 -0.00421718 0)
(-0.0127951 -0.00485457 0)
(-0.0101844 -0.00514306 0)
(-0.00744402 -0.00497392 0)
(-0.00477886 -0.00425252 0)
(-0.00241802 -0.00293959 0)
(-0.000579695 -0.00111974 0)
(-0.000779907 0.00190546 0)
(-0.00317143 0.00484363 0)
(-0.00617232 0.00686185 0)
(-0.00951017 0.0079324 0)
(-0.0129118 0.00815666 0)
(-0.0161393 0.00769187 0)
(-0.0190035 0.00670297 0)
(-0.0213643 0.00533706 0)
(-0.0231237 0.00371467 0)
(-0.0242177 0.00193153 0)
(-0.0246089 6.58773e-05 0)
(-0.0242821 -0.00181205 0)
(-0.0232433 -0.00362984 0)
(-0.0215221 -0.00530295 0)
(-0.0191775 -0.00672593 0)
(-0.0163064 -0.00776656 0)
(-0.0130524 -0.00826627 0)
(-0.00961198 -0.00805178 0)
(-0.00623286 -0.00696366 0)
(-0.00319778 -0.00490666 0)
(-0.000784912 -0.00192311 0)
(-0.000964657 0.00287168 0)
(-0.00387787 0.00716418 0)
(-0.00748861 0.010019 0)
(-0.0114667 0.0114829 0)
(-0.0154887 0.0117385 0)
(-0.0192803 0.0110244 0)
(-0.0226278 0.00957953 0)
(-0.0253765 0.00761276 0)
(-0.0274207 0.00529299 0)
(-0.0286925 0.00275278 0)
(-0.0291526 9.91016e-05 0)
(-0.0287842 -0.00257276 0)
(-0.0275916 -0.00516442 0)
(-0.0256035 -0.00755989 0)
(-0.0228807 -0.00961255 0)
(-0.0195267 -0.0111363 0)
(-0.0156999 -0.0119049 0)
(-0.0116234 -0.0116663 0)
(-0.0075851 -0.0101775 0)
(-0.0039221 -0.00726389 0)
(-0.000973796 -0.00290046 0)
(-0.00114941 0.00400736 0)
(-0.0045912 0.00986647 0)
(-0.00882039 0.0136694 0)
(-0.0134433 0.015559 0)
(-0.0180823 0.015823 0)
(-0.0224255 0.0148021 0)
(-0.0262375 0.0128246 0)
(-0.0293536 0.0101713 0)
(-0.0316656 0.00706526 0)
(-0.0331061 0.00367826 0)
(-0.0336365 0.00014602 0)
(-0.0332389 -0.0034122 0)
(-0.0319143 -0.00687297 0)
(-0.0296867 -0.0100882 0)
(-0.0266128 -0.0128669 0)
(-0.0227966 -0.0149617 0)
(-0.0184066 -0.0160662 0)
(-0.01369 -0.0158319 0)
(-0.00897732 -0.0139096 0)
(-0.00466643 -0.0100211 0)
(-0.00116588 -0.00405401 0)
(-0.00135237 0.00532934 0)
(-0.00538029 0.0129886 0)
(-0.0102916 0.0178597 0)
(-0.0156172 0.0202053 0)
(-0.020917 0.0204458 0)
(-0.0258391 0.019049 0)
(-0.0301283 0.0164519 0)
(-0.0336151 0.0130197 0)
(-0.0361944 0.00903607 0)
(-0.0378049 0.00471323 0)
(-0.0384118 0.000214034 0)
(-0.037997 -0.00432153 0)
(-0.0365561 -0.00874806 0)
(-0.0341035 -0.0128867 0)
(-0.030685 -0.0164992 0)
(-0.0263978 -0.0192686 0)
(-0.0214145 -0.0207932 0)
(-0.0160046 -0.0206048 0)
(-0.0105452 -0.0182199 0)
(-0.00550627 -0.0132274 0)
(-0.00138106 -0.00540548 0)
(-0.00158954 0.00687153 0)
(-0.00630555 0.0166017 0)
(-0.0120076 0.0226725 0)
(-0.018132 0.0254972 0)
(-0.0241649 0.0256655 0)
(-0.0297119 0.0238047 0)
(-0.0345018 0.0204848 0)
(-0.0383677 0.0161707 0)
(-0.0412162 0.0112131 0)
(-0.0429989 0.00586506 0)
(-0.04369 0.00031244 0)
(-0.0432722 -0.0052902 0)
(-0.0417332 -0.0107816 0)
(-0.0390716 -0.0159559 0)
(-0.0353136 -0.0205263 0)
(-0.0305389 -0.0240972 0)
(-0.0249147 -0.0261526 0)
(-0.0187287 -0.0260751 0)
(-0.0124081 -0.0232086 0)
(-0.00651025 -0.0169694 0)
(-0.00163742 -0.00699588 0)
(-0.00187353 0.00868331 0)
(-0.00741471 0.0208053 0)
(-0.0140469 0.0282166 0)
(-0.0210852 0.0315278 0)
(-0.0279289 0.0315478 0)
(-0.0341405 0.0291071 0)
(-0.0394415 0.0249398 0)
(-0.0436792 0.0196283 0)
(-0.0467845 0.0135969 0)
(-0.0487323 0.00713764 0)
(-0.049512 0.000451984 0)
(-0.0491096 -0.00630113 0)
(-0.0475022 -0.012955 0)
(-0.044665 -0.0192839 0)
(-0.0405922 -0.0249544 0)
(-0.035331 -0.0294834 0)
(-0.029028 -0.0322177 0)
(-0.0219782 -0.0323523 0)
(-0.0146603 -0.0290068 0)
(-0.00773588 -0.0213672 0)
(-0.00195016 -0.0088845 0)
(-0.0022117 0.0108274 0)
(-0.00873546 0.0257189 0)
(-0.0164459 0.0346128 0)
(-0.0245035 0.0383872 0)
(-0.0322082 0.0381419 0)
(-0.0390853 0.0349686 0)
(-0.0448637 0.0298045 0)
(-0.0494246 0.0233698 0)
(-0.0527405 0.0161677 0)
(-0.0548234 0.00852397 0)
(-0.0556869 0.000643584 0)
(-0.0553238 -0.00732544 0)
(-0.0536981 -0.0152267 0)
(-0.050753 -0.0228281 0)
(-0.0464351 -0.0297553 0)
(-0.0407381 -0.0354313 0)
(-0.0337641 -0.0390408 0)
(-0.025795 -0.0395426 0)
(-0.0173535 -0.0357604 0)
(-0.0092213 -0.0265663 0)
(-0.00232951 -0.0111473 0)
(-0.00260205 0.013376 0)
(-0.0102601 0.0314686 0)
(-0.0191687 0.0419696 0)
(-0.028296 0.0461311 0)
(-0.036836 0.0454452 0)
(-0.044293 0.0413415 0)
(-0.050431 0.0350074 0)
(-0.055192 0.0273217 0)
(-0.0586138 0.0188684 0)
(-0.0607628 0.00999605 0)
(-0.0616878 0.00089562 0)
(-0.061393 -0.00831735 0)
(-0.0598282 -0.0175193 0)
(-0.0568957 -0.0264923 0)
(-0.0524775 -0.0348348 0)
(-0.0464867 -0.0418755 0)
(-0.0389463 -0.0466125 0)
(-0.0300899 -0.0477105 0)
(-0.0204605 -0.0436021 0)
(-0.0109674 -0.0327222 0)
(-0.00277621 -0.0138733 0)
(-0.00302562 0.0164031 0)
(-0.0119167 0.0381626 0)
(-0.0220527 0.050342 0)
(-0.0321725 0.0547296 0)
(-0.0413735 0.0533508 0)
(-0.0491751 0.0480705 0)
(-0.0554179 0.0403786 0)
(-0.0601424 0.0313297 0)
(-0.0634793 0.021583 0)
(-0.0655679 0.0114921 0)
(-0.0665039 0.00120926 0)
(-0.066309 -0.00921022 0)
(-0.0649196 -0.0197051 0)
(-0.0621913 -0.0301008 0)
(-0.0579255 -0.0399933 0)
(-0.0519251 -0.0486282 0)
(-0.0440889 -0.0548001 0)
(-0.0345465 -0.0568175 0)
(-0.0238113 -0.0526002 0)
(-0.0129048 -0.0399708 0)
(-0.00327292 -0.0171555 0)
(-0.00343355 0.0199702 0)
(-0.0135217 0.0458477 0)
(-0.0247206 0.0596655 0)
(-0.0355185 0.0639904 0)
(-0.0449574 0.0615732 0)
(-0.0526362 0.0548296 0)
(-0.0585327 0.0456013 0)
(-0.06283 0.035124 0)
(-0.0657789 0.0241142 0)
(-0.067607 0.0129025 0)
(-0.0684652 0.00157179 0)
(-0.068399 -0.00991525 0)
(-0.0673358 -0.0215944 0)
(-0.0650858 -0.0333722 0)
(-0.0613623 -0.0448806 0)
(-0.0558329 -0.0553125 0)
(-0.0482217 -0.0632621 0)
(-0.0384764 -0.066628 0)
(-0.0269911 -0.0626758 0)
(-0.0148386 -0.0483743 0)
(-0.00376988 -0.0210746 0)
(-0.00372596 0.0241009 0)
(-0.0147034 0.0544386 0)
(-0.0264475 0.0696523 0)
(-0.0372175 0.0734488 0)
(-0.0460961 0.069552 0)
(-0.0528649 0.061049 0)
(-0.0577149 0.0501623 0)
(-0.0610132 0.0382887 0)
(-0.0631471 0.0261644 0)
(-0.0644353 0.0140584 0)
(-0.0650836 0.00194919 0)
(-0.0651645 -0.0103253 0)
(-0.064606 -0.0229324 0)
(-0.0631869 -0.0359026 0)
(-0.0605429 -0.0489564 0)
(-0.0562004 -0.0612911 0)
(-0.0496679 -0.0713419 0)
(-0.0406189 -0.0765791 0)
(-0.0291886 -0.0734749 0)
(-0.016363 -0.0578314 0)
(-0.00416186 -0.0256677 0)
(-0.00371585 0.028739 0)
(-0.0147769 0.0636071 0)
(-0.0259589 0.0796435 0)
(-0.0354055 0.0822252 0)
(-0.0424208 0.0763438 0)
(-0.0471105 0.065849 0)
(-0.0499512 0.0533201 0)
(-0.0515122 0.0402515 0)
(-0.052304 0.0273356 0)
(-0.0527137 0.0147313 0)
(-0.0529847 0.00228078 0)
(-0.0532126 -0.0103263 0)
(-0.0533406 -0.0234138 0)
(-0.0531476 -0.0371738 0)
(-0.0522334 -0.0514773 0)
(-0.0500184 -0.0656147 0)
(-0.0457936 -0.077962 0)
(-0.0388808 -0.0856217 0)
(-0.0289751 -0.0841884 0)
(-0.0167237 -0.0679387 0)
(-0.00424984 -0.0308786 0)
(-0.00305946 0.0336802 0)
(-0.0125134 0.0726145 0)
(-0.0211001 0.0884083 0)
(-0.0271274 0.0888672 0)
(-0.0303991 0.0805369 0)
(-0.0314868 0.0680183 0)
(-0.0311758 0.0541249 0)
(-0.0301925 0.040321 0)
(-0.029103 0.0271645 0)
(-0.0282998 0.0146555 0)
(-0.0280215 0.00248118 0)
(-0.0283723 -0.00981865 0)
(-0.0293269 -0.0227254 0)
(-0.0307147 -0.0366104 0)
(-0.0321818 -0.0515498 0)
(-0.0331432 -0.0670389 0)
(-0.0327575 -0.0815687 0)
(-0.0299994 -0.0920679 0)
(-0.0239604 -0.093328 0)
(-0.0145746 -0.0777865 0)
(-0.00366915 -0.0364754 0)
(-0.00109075 0.0384397 0)
(-0.00565183 0.0800396 0)
(-0.00823592 0.0938891 0)
(-0.00782302 0.0912203 0)
(-0.00501204 0.0802552 0)
(-0.000858864 0.0661057 0)
(0.00366486 0.0515428 0)
(0.00783662 0.0378061 0)
(0.0111801 0.0252175 0)
(0.0134054 0.0135861 0)
(0.0143474 0.00245619 0)
(0.0139215 -0.0087482 0)
(0.0121079 -0.0206274 0)
(0.00896653 -0.0337084 0)
(0.00468799 -0.0482926 0)
(-0.000316632 -0.0641833 0)
(-0.00529963 -0.0802188 0)
(-0.00909135 -0.0935261 0)
(-0.0102033 -0.0984806 0)
(-0.00748034 -0.0856505 0)
(-0.0017224 -0.0419008 0)
(0.00365603 0.0420071 0)
(0.0102728 0.0833731 0)
(0.0189421 0.0929648 0)
(0.0294818 0.0864748 0)
(0.0405885 0.0734003 0)
(0.0511116 0.0587284 0)
(0.0602958 0.0447472 0)
(0.0677365 0.0322511 0)
(0.0732615 0.0212568 0)
(0.0768185 0.0113989 0)
(0.078392 0.0021377 0)
(0.0779525 -0.00713985 0)
(0.0754337 -0.0170664 0)
(0.0707378 -0.028244 0)
(0.0637762 -0.041148 0)
(0.0545609 -0.0559231 0)
(0.043367 -0.0719657 0)
(0.0309708 -0.0871151 0)
(0.018888 -0.0961823 0)
(0.00923636 -0.0885799 0)
(0.00310256 -0.045997 0)
(0.015338 0.0420052 0)
(0.0449474 0.0780028 0)
(0.0717502 0.0812447 0)
(0.0953306 0.0716023 0)
(0.115292 0.0583185 0)
(0.131593 0.0452033 0)
(0.144432 0.0336107 0)
(0.154119 0.0237793 0)
(0.16098 0.0154629 0)
(0.16529 0.00821923 0)
(0.167224 0.00153628 0)
(0.16683 -0.00511965 0)
(0.164011 -0.012291 0)
(0.158518 -0.0205198 0)
(0.149948 -0.0303138 0)
(0.137764 -0.0420436 0)
(0.121371 -0.0556855 0)
(0.100294 -0.0701985 0)
(0.0745824 -0.082038 0)
(0.0453839 -0.0815357 0)
(0.0150285 -0.0461635 0)
(0.049292 0.0344012 0)
(0.121415 0.0577782 0)
(0.170905 0.0548356 0)
(0.20506 0.0453716 0)
(0.229625 0.035427 0)
(0.247539 0.0266498 0)
(0.26058 0.0193807 0)
(0.269888 0.0134801 0)
(0.276233 0.0086453 0)
(0.280128 0.00453061 0)
(0.28187 0.000789878 0)
(0.281565 -0.00291509 0)
(0.279122 -0.00692038 0)
(0.274237 -0.0115677 0)
(0.266344 -0.0172035 0)
(0.254519 -0.0241569 0)
(0.237319 -0.0326682 0)
(0.212465 -0.0426702 0)
(0.17644 -0.0530735 0)
(0.123518 -0.0584661 0)
(0.0493757 -0.0379217 0)
(0.182821 0.00458692 0)
(0.296491 0.00796269 0)
(0.349998 0.0112296 0)
(0.376736 0.0107836 0)
(0.392706 0.00887313 0)
(0.403037 0.00679725 0)
(0.410016 0.00496391 0)
(0.414753 0.00344446 0)
(0.41787 0.00219237 0)
(0.419734 0.00112656 0)
(0.420546 0.000159249 0)
(0.420381 -0.000795787 0)
(0.419199 -0.00182128 0)
(0.416829 -0.00299371 0)
(0.412927 -0.00437269 0)
(0.406853 -0.00597065 0)
(0.397382 -0.00767566 0)
(0.381887 -0.00908218 0)
(0.35444 -0.00915359 0)
(0.298 -0.00673045 0)
(0.181096 -0.00722329 0)
)
;

boundaryField
{
    movingWall
    {
        type            fixedValue;
        value           uniform (0.5 0 0);
    }
    fixedWalls
    {
        type            noSlip;
    }
    frontAndBack
    {
        type            empty;
    }
}


// ************************************************************************* //
