/*--------------------------------*- C++ -*----------------------------------*\
| =========                 |                                                 |
| \\      /  F ield         | OpenFOAM: The Open Source CFD Toolbox           |
|  \\    /   O peration     | Version:  4.1                                   |
|   \\  /    A nd           | Web:      www.OpenFOAM.org                      |
|    \\/     M anipulation  |                                                 |
\*---------------------------------------------------------------------------*/
FoamFile
{
    version     2.0;
    format      ascii;
    class       volVectorField;
    location    "0.0423";
    object      U;
}
// * * * * * * * * * * * * * * * * * * * * * * * * * * * * * * * * * * * * * //

dimensions      [0 1 -1 0 0 0 0];

internalField   nonuniform List<vector> 
441
(
(-9.56441e-05 7.3794e-05 0)
(-0.000489821 0.000289263 0)
(-0.0011181 0.000519165 0)
(-0.00193507 0.00068888 0)
(-0.00286404 0.000777984 0)
(-0.00381968 0.000786153 0)
(-0.00472138 0.000721886 0)
(-0.00549979 0.000597643 0)
(-0.0060996 0.000427455 0)
(-0.00648051 0.000225822 0)
(-0.00661732 7.38956e-06 0)
(-0.00650012 -0.000212951 0)
(-0.00613458 -0.000419818 0)
(-0.00554271 -0.000597211 0)
(-0.0047636 -0.000728735 0)
(-0.00385359 -0.00079841 0)
(-0.00288514 -0.000792329 0)
(-0.00194311 -0.000701575 0)
(-0.00111689 -0.000527358 0)
(-0.000485445 -0.000292196 0)
(-9.37497e-05 -7.31866e-05 0)
(-0.00036164 0.000438923 0)
(-0.00161193 0.00140806 0)
(-0.00340415 0.00231062 0)
(-0.00561573 0.00295682 0)
(-0.00806301 0.00328163 0)
(-0.0105433 0.00328484 0)
(-0.0128636 0.00299951 0)
(-0.0148561 0.00247476 0)
(-0.0163865 0.00176636 0)
(-0.0173561 0.000932167 0)
(-0.0177034 3.07734e-05 0)
(-0.0174043 -0.000878244 0)
(-0.0164732 -0.00173337 0)
(-0.0149642 -0.00247065 0)
(-0.0129726 -0.00302468 0)
(-0.010635 -0.00333192 0)
(-0.00812561 -0.00333748 0)
(-0.00564702 -0.00300651 0)
(-0.0034113 -0.00234262 0)
(-0.00160788 -0.00141916 0)
(-0.000359111 -0.000436889 0)
(-0.000665319 0.00107863 0)
(-0.00279297 0.00315584 0)
(-0.00567595 0.0049365 0)
(-0.00911531 0.00616424 0)
(-0.0128448 0.00674901 0)
(-0.0165776 0.00670137 0)
(-0.020042 0.00608878 0)
(-0.0230022 0.00500774 0)
(-0.0252687 0.00356729 0)
(-0.0267028 0.00188064 0)
(-0.0272177 6.23726e-05 0)
(-0.0267794 -0.00177097 0)
(-0.0254075 -0.00349911 0)
(-0.0231777 -0.00499706 0)
(-0.0202237 -0.00613698 0)
(-0.0167367 -0.00679453 0)
(-0.0129616 -0.00686154 0)
(-0.00918351 -0.00626645 0)
(-0.00570322 -0.00500465 0)
(-0.00279669 -0.00318195 0)
(-0.000664193 -0.00107663 0)
(-0.00096386 0.00199845 0)
(-0.00394865 0.00554476 0)
(-0.0078706 0.00840541 0)
(-0.0124468 0.0103041 0)
(-0.017331 0.0111539 0)
(-0.0221649 0.0109947 0)
(-0.0266158 0.00994198 0)
(-0.0303987 0.00815156 0)
(-0.033286 0.00579633 0)
(-0.0351122 0.00305446 0)
(-0.0357732 0.00010558 0)
(-0.0352276 -0.00286798 0)
(-0.0334972 -0.00567797 0)
(-0.0306699 -0.00812834 0)
(-0.0269033 -0.0100175 0)
(-0.0224262 -0.0111478 0)
(-0.0175345 -0.0113437 0)
(-0.0125784 -0.0104814 0)
(-0.00793639 -0.00852912 0)
(-0.00396993 -0.00559778 0)
(-0.000966568 -0.0019996 0)
(-0.00125458 0.00319665 0)
(-0.00508018 0.00857866 0)
(-0.010016 0.012726 0)
(-0.0156876 0.0153796 0)
(-0.0216649 0.0164878 0)
(-0.0275213 0.0161441 0)
(-0.0328724 0.0145312 0)
(-0.0373957 0.0118784 0)
(-0.040838 0.00843291 0)
(-0.0430164 0.00444583 0)
(-0.0438163 0.00016791 0)
(-0.0431902 -0.00414736 0)
(-0.0411582 -0.00823803 0)
(-0.0378129 -0.0118296 0)
(-0.0333243 -0.0146368 0)
(-0.0279451 -0.016375 0)
(-0.0220102 -0.0167842 0)
(-0.0159274 -0.0156665 0)
(-0.0101511 -0.0129365 0)
(-0.00513525 -0.00867918 0)
(-0.00126513 -0.00320728 0)
(-0.00154539 0.00467578 0)
(-0.00621757 0.012268 0)
(-0.0121703 0.0179132 0)
(-0.0189291 0.0214017 0)
(-0.0259746 0.0227513 0)
(-0.0328127 0.0221391 0)
(-0.039013 0.0198385 0)
(-0.0442252 0.0161691 0)
(-0.0481805 0.0114637 0)
(-0.0506878 0.00605245 0)
(-0.0516273 0.000260467 0)
(-0.0509463 -0.00558587 0)
(-0.0486602 -0.0111486 0)
(-0.0448579 -0.0160701 0)
(-0.0397109 -0.0199724 0)
(-0.033484 -0.0224694 0)
(-0.0265413 -0.0231948 0)
(-0.0193426 -0.0218486 0)
(-0.0124206 -0.0182587 0)
(-0.00633128 -0.0124501 0)
(-0.00157 -0.0047078 0)
(-0.00184516 0.00644735 0)
(-0.00739295 0.016637 0)
(-0.014387 0.0239923 0)
(-0.0222417 0.0283869 0)
(-0.0303425 0.0299464 0)
(-0.0381289 0.0289677 0)
(-0.0451318 0.025843 0)
(-0.0509835 0.0210018 0)
(-0.0554112 0.0148737 0)
(-0.0582253 0.00787244 0)
(-0.0593067 0.000397165 0)
(-0.0585993 -0.00715509 0)
(-0.0561098 -0.0143722 0)
(-0.0519148 -0.0208119 0)
(-0.0461752 -0.0259961 0)
(-0.039154 -0.0294212 0)
(-0.0312325 -0.0305892 0)
(-0.0229155 -0.0290632 0)
(-0.0148151 -0.0245433 0)
(-0.00759991 -0.0169533 0)
(-0.0018926 -0.00652098 0)
(-0.00215991 0.00853107 0)
(-0.0086271 0.02172 0)
(-0.016694 0.0309917 0)
(-0.0256489 0.0363445 0)
(-0.034777 0.0380599 0)
(-0.0434557 0.0365976 0)
(-0.0511884 0.0325023 0)
(-0.0576048 0.0263353 0)
(-0.0624432 0.0186338 0)
(-0.0655277 0.0098968 0)
(-0.0667484 0.000593406 0)
(-0.0660481 -0.00881621 0)
(-0.0634211 -0.0178528 0)
(-0.0589217 -0.0259926 0)
(-0.052685 -0.0326528 0)
(-0.0449541 -0.0371963 0)
(-0.0361093 -0.0389645 0)
(-0.0266877 -0.0373406 0)
(-0.0173782 -0.0318449 0)
(-0.00897184 -0.0222472 0)
(-0.00224165 -0.00867787 0)
(-0.00249057 0.0109516 0)
(-0.00992086 0.0275527 0)
(-0.0190779 0.0389279 0)
(-0.0291058 0.0452572 0)
(-0.0391859 0.0470394 0)
(-0.048644 0.0449505 0)
(-0.0569745 0.0397277 0)
(-0.063826 0.0320875 0)
(-0.0689686 0.0226841 0)
(-0.0722573 0.0120999 0)
(-0.0736019 0.000863846 0)
(-0.0729488 -0.0105146 0)
(-0.0702759 -0.021503 0)
(-0.0656041 -0.0315056 0)
(-0.0590235 -0.0398352 0)
(-0.0507327 -0.0457081 0)
(-0.0410843 -0.0482727 0)
(-0.030625 -0.0466816 0)
(-0.0201085 -0.0402078 0)
(-0.0104568 -0.0283954 0)
(-0.00262064 -0.0112174 0)
(-0.00283094 0.0137338 0)
(-0.0112475 0.0341581 0)
(-0.0214693 0.0477835 0)
(-0.0324754 0.0550522 0)
(-0.0433457 0.0567613 0)
(-0.0533739 0.0538707 0)
(-0.0620745 0.0473552 0)
(-0.0691459 0.0381115 0)
(-0.0744176 0.0269165 0)
(-0.077797 0.0144284 0)
(-0.0792286 0.00121892 0)
(-0.0786683 -0.0121749 0)
(-0.0760756 -0.02519 0)
(-0.0714254 -0.0371773 0)
(-0.0647405 -0.047354 0)
(-0.0561427 -0.0547815 0)
(-0.0459185 -0.0583839 0)
(-0.0345866 -0.057023 0)
(-0.0229408 -0.0496391 0)
(-0.0120337 -0.0354502 0)
(-0.00302537 -0.014181 0)
(-0.00316515 0.0168968 0)
(-0.0125432 0.0415287 0)
(-0.0237238 0.0574784 0)
(-0.0355008 0.065565 0)
(-0.0468648 0.0669925 0)
(-0.0571124 0.063087 0)
(-0.0658206 0.0551128 0)
(-0.0727797 0.0441687 0)
(-0.0779128 0.0311545 0)
(-0.0812063 0.0167885 0)
(-0.0826566 0.00165991 0)
(-0.082238 -0.0136979 0)
(-0.0798909 -0.0287238 0)
(-0.0755333 -0.0427453 0)
(-0.0690962 -0.0549048 0)
(-0.0605859 -0.0641115 0)
(-0.0501717 -0.0690387 0)
(-0.0382877 -0.0681924 0)
(-0.0257209 -0.0600718 0)
(-0.0136387 -0.0434301 0)
(-0.00344081 -0.017606 0)
(-0.00346359 0.0204468 0)
(-0.0136926 0.0496033 0)
(-0.0255946 0.0678321 0)
(-0.0377641 0.0764935 0)
(-0.0491338 0.0773427 0)
(-0.0590592 0.0721716 0)
(-0.0672402 0.0625864 0)
(-0.0736104 0.0499035 0)
(-0.0782268 0.0351354 0)
(-0.081182 0.0190344 0)
(-0.0825429 0.00217257 0)
(-0.0823124 -0.0149606 0)
(-0.0804151 -0.031849 0)
(-0.0767045 -0.0478395 0)
(-0.0709985 -0.0620365 0)
(-0.0631471 -0.0732174 0)
(-0.0531395 -0.079793 0)
(-0.0412459 -0.0798489 0)
(-0.0281684 -0.0713143 0)
(-0.015145 -0.0522882 0)
(-0.00383587 -0.0215151 0)
(-0.00367525 0.0243677 0)
(-0.014502 0.0582364 0)
(-0.0266847 0.0785146 0)
(-0.0386221 0.0873418 0)
(-0.0492527 0.0872124 0)
(-0.0580763 0.0804973 0)
(-0.0649941 0.06919 0)
(-0.0701413 0.0548241 0)
(-0.0737468 0.038498 0)
(-0.0760333 0.0209598 0)
(-0.0771523 0.00272021 0)
(-0.0771463 -0.0158218 0)
(-0.0759308 -0.0342463 0)
(-0.0732966 -0.0519745 0)
(-0.0689373 -0.068129 0)
(-0.0625129 -0.0814018 0)
(-0.0537658 -0.0899565 0)
(-0.0427017 -0.0914121 0)
(-0.0298182 -0.0829848 0)
(-0.016331 -0.0618695 0)
(-0.00415454 -0.0259038 0)
(-0.00371274 0.0286075 0)
(-0.0146476 0.0671552 0)
(-0.0263603 0.0889807 0)
(-0.0370969 0.0973504 0)
(-0.0459178 0.0957373 0)
(-0.0525887 0.0872039 0)
(-0.0573025 0.0741515 0)
(-0.0604496 0.0583004 0)
(-0.0624554 0.0407855 0)
(-0.0636813 0.022298 0)
(-0.0643673 0.00323794 0)
(-0.0646016 -0.016135 0)
(-0.0643034 -0.0355495 0)
(-0.0632165 -0.0545638 0)
(-0.0609205 -0.0723933 0)
(-0.0568745 -0.0877247 0)
(-0.0505227 -0.0985363 0)
(-0.0414951 -0.101979 0)
(-0.0299192 -0.0944237 0)
(-0.0168201 -0.071849 0)
(-0.00429917 -0.0307207 0)
(-0.00342087 0.0330552 0)
(-0.0135688 0.075891 0)
(-0.0235834 0.0983761 0)
(-0.0316827 0.105415 0)
(-0.0372416 0.101741 0)
(-0.0404439 0.0911875 0)
(-0.0418568 0.0765294 0)
(-0.0421505 0.0595944 0)
(-0.041938 0.0414746 0)
(-0.041698 0.02274 0)
(-0.0417427 0.00363163 0)
(-0.0422037 -0.01577 0)
(-0.0430199 -0.0353852 0)
(-0.043923 -0.0549684 0)
(-0.0444231 -0.0739137 0)
(-0.0438151 -0.0910181 0)
(-0.0412404 -0.104203 0)
(-0.0358667 -0.110236 0)
(-0.0272547 -0.104578 0)
(-0.0159651 -0.0816398 0)
(-0.00409746 -0.0358348 0)
(-0.00250691 0.037494 0)
(-0.0102382 0.0836623 0)
(-0.0165821 0.105402 0)
(-0.0200033 0.109996 0)
(-0.0204673 0.103715 0)
(-0.0187185 0.0911437 0)
(-0.0157225 0.0752894 0)
(-0.0123843 0.0579438 0)
(-0.00943437 0.0400461 0)
(-0.00740261 0.0219783 0)
(-0.00662723 0.0037872 0)
(-0.00726612 -0.014643 0)
(-0.00929541 -0.0334418 0)
(-0.0124881 -0.0525966 0)
(-0.0163735 -0.0717589 0)
(-0.0201911 -0.0899765 0)
(-0.022873 -0.105319 0)
(-0.023135 -0.114395 0)
(-0.0198087 -0.111857 0)
(-0.0126112 -0.0902473 0)
(-0.00323207 -0.0409782 0)
(-0.00036712 0.0414884 0)
(-0.0026418 0.0891457 0)
(-0.00219345 0.108113 0)
(0.00178479 0.109051 0)
(0.00846054 0.0998887 0)
(0.0165227 0.0857145 0)
(0.0247396 0.0694799 0)
(0.0321417 0.0527247 0)
(0.0380368 0.0361128 0)
(0.0419625 0.019787 0)
(0.0436318 0.00359657 0)
(0.0428945 -0.01275 0)
(0.0397261 -0.0295655 0)
(0.0342478 -0.0470627 0)
(0.0267848 -0.0651901 0)
(0.0179585 -0.0833743 0)
(0.00879984 -0.100095 0)
(0.000818079 -0.112202 0)
(-0.00413553 -0.113954 0)
(-0.00457736 -0.0960172 0)
(-0.00106829 -0.0456189 0)
(0.00440813 0.0441447 0)
(0.0134599 0.090084 0)
(0.0254513 0.103704 0)
(0.0399772 0.100104 0)
(0.0554629 0.0884929 0)
(0.0704464 0.0738288 0)
(0.0838551 0.0585532 0)
(0.0949915 0.0437136 0)
(0.103436 0.0296084 0)
(0.108948 0.0161395 0)
(0.111382 0.00300472 0)
(0.110641 -0.0101933 0)
(0.106653 -0.0238726 0)
(0.0993845 -0.0383992 0)
(0.0888855 -0.0539813 0)
(0.0753916 -0.0704746 0)
(0.0594862 -0.086999 0)
(0.0423247 -0.101184 0)
(0.0258417 -0.107763 0)
(0.0125502 -0.0962544 0)
(0.00384131 -0.0487001 0)
(0.0159513 0.0432517 0)
(0.0476449 0.082236 0)
(0.0774322 0.0882581 0)
(0.104718 0.0806506 0)
(0.12884 0.0684093 0)
(0.149427 0.0553187 0)
(0.166345 0.0428495 0)
(0.179602 0.0314275 0)
(0.189283 0.0210095 0)
(0.195482 0.0113408 0)
(0.198257 0.00207179 0)
(0.197598 -0.00718781 0)
(0.193407 -0.0168395 0)
(0.185496 -0.0272703 0)
(0.173588 -0.0388103 0)
(0.157356 -0.0516362 0)
(0.136495 -0.0655387 0)
(0.110896 -0.0793406 0)
(0.0810138 -0.0894603 0)
(0.0483923 -0.086344 0)
(0.0156745 -0.047793 0)
(0.0496357 0.0349412 0)
(0.123065 0.0598426 0)
(0.174602 0.0584148 0)
(0.21145 0.0500772 0)
(0.239131 0.0407122 0)
(0.260305 0.0319545 0)
(0.276464 0.0242156 0)
(0.288498 0.017464 0)
(0.296989 0.0115117 0)
(0.302314 0.00611626 0)
(0.304688 0.00101889 0)
(0.304179 -0.00404307 0)
(0.300701 -0.00933234 0)
(0.293997 -0.0151099 0)
(0.283599 -0.0216291 0)
(0.268742 -0.0291164 0)
(0.248204 -0.0377146 0)
(0.219986 -0.047287 0)
(0.180891 -0.0567353 0)
(0.125506 -0.0607391 0)
(0.0497593 -0.0386299 0)
(0.1829 0.00470246 0)
(0.296948 0.00845463 0)
(0.35117 0.0121211 0)
(0.378944 0.0119715 0)
(0.396169 0.0102111 0)
(0.407835 0.00813795 0)
(0.416095 0.00618046 0)
(0.421948 0.00443965 0)
(0.425935 0.00289954 0)
(0.428369 0.00150613 0)
(0.429421 0.000194256 0)
(0.429155 -0.00110279 0)
(0.427536 -0.00244885 0)
(0.424418 -0.0038996 0)
(0.419498 -0.00549077 0)
(0.412202 -0.00720877 0)
(0.401399 -0.00891728 0)
(0.384579 -0.0101945 0)
(0.355948 -0.0100048 0)
(0.298598 -0.00722064 0)
(0.181174 -0.0073454 0)
)
;

boundaryField
{
    movingWall
    {
        type            fixedValue;
        value           uniform (0.5 0 0);
    }
    fixedWalls
    {
        type            noSlip;
    }
    frontAndBack
    {
        type            empty;
    }
}


// ************************************************************************* //
