/*--------------------------------*- C++ -*----------------------------------*\
| =========                 |                                                 |
| \\      /  F ield         | OpenFOAM: The Open Source CFD Toolbox           |
|  \\    /   O peration     | Version:  4.1                                   |
|   \\  /    A nd           | Web:      www.OpenFOAM.org                      |
|    \\/     M anipulation  |                                                 |
\*---------------------------------------------------------------------------*/
FoamFile
{
    version     2.0;
    format      ascii;
    class       volVectorField;
    location    "37";
    object      U;
}
// * * * * * * * * * * * * * * * * * * * * * * * * * * * * * * * * * * * * * //

dimensions      [0 1 -1 0 0 0 0];

internalField   nonuniform List<vector> 
3264
(
(-0.00018186 5.41674e-05 0)
(-0.00176807 0.000341316 0)
(-0.00420667 0.000657848 0)
(-0.00710048 0.000989875 0)
(-0.0103141 0.00123822 0)
(-0.013436 0.00133935 0)
(-0.0161498 0.00128393 0)
(-0.0182055 0.00109989 0)
(-0.0194714 0.000828007 0)
(-0.0198951 0.00050583 0)
(-0.0194871 0.000166024 0)
(-0.0183022 -0.000164282 0)
(-0.0164279 -0.00046294 0)
(-0.0139759 -0.000713774 0)
(-0.011073 -0.00090674 0)
(-0.00785421 -0.00103791 0)
(-0.00445559 -0.00110806 0)
(-0.00101013 -0.00112125 0)
(0.0023562 -0.00108369 0)
(0.00552798 -0.00100339 0)
(0.00840605 -0.000890284 0)
(0.0109148 -0.000756172 0)
(0.0130094 -0.000613782 0)
(0.0146796 -0.000475084 0)
(0.0159477 -0.000349523 0)
(0.016861 -0.000242968 0)
(0.0174809 -0.00015768 0)
(0.0178725 -9.30525e-05 0)
(0.0180962 -4.66517e-05 0)
(0.0182033 -1.51945e-05 0)
(0.018234 4.73256e-06 0)
(0.0182181 1.62332e-05 0)
(0.0181766 2.18922e-05 0)
(0.0181233 2.37237e-05 0)
(0.0180668 2.32121e-05 0)
(0.0180124 2.13971e-05 0)
(0.0179627 1.89708e-05 0)
(0.0179188 1.63692e-05 0)
(0.0178811 1.38486e-05 0)
(0.0178492 1.15446e-05 0)
(0.0178225 9.51611e-06 0)
(0.0178004 7.77559e-06 0)
(0.0177823 6.30944e-06 0)
(0.0177675 5.09111e-06 0)
(0.0177555 4.08907e-06 0)
(0.0177458 3.2714e-06 0)
(0.0177379 2.60832e-06 0)
(0.0177316 2.07329e-06 0)
(0.0177266 1.64335e-06 0)
(0.0177225 1.29905e-06 0)
(0.0177193 1.02418e-06 0)
(0.0177167 8.0533e-07 0)
(0.0177146 6.31532e-07 0)
(0.017713 4.93847e-07 0)
(0.0177117 3.85033e-07 0)
(0.0177107 2.99243e-07 0)
(0.0177099 2.31772e-07 0)
(0.0177093 1.78846e-07 0)
(0.0177088 1.3744e-07 0)
(0.0177084 1.0514e-07 0)
(0.0177081 8.00219e-08 0)
(0.0177078 6.05533e-08 0)
(0.0177077 4.55185e-08 0)
(0.0177075 3.39541e-08 0)
(0.0177074 2.50986e-08 0)
(0.0177073 1.8351e-08 0)
(0.0177073 1.32385e-08 0)
(0.0177072 9.38949e-09 0)
(0.0177072 6.51332e-09 0)
(0.0177071 4.38281e-09 0)
(0.0177071 2.8211e-09 0)
(0.0177071 1.6909e-09 0)
(0.0177071 8.86033e-10 0)
(0.0177071 3.24692e-10 0)
(0.0177071 -5.59068e-11 0)
(0.0177071 -3.03694e-10 0)
(0.0177071 -4.55075e-10 0)
(0.0177071 -5.37532e-10 0)
(0.0177071 -5.71676e-10 0)
(0.0177071 -5.72838e-10 0)
(0.0177071 -5.52308e-10 0)
(0.0177071 -5.18306e-10 0)
(0.0177071 -4.76718e-10 0)
(0.0177071 -4.31693e-10 0)
(0.0177071 -3.86082e-10 0)
(0.0177071 -3.41783e-10 0)
(0.0177071 -2.99995e-10 0)
(0.0177071 -2.61412e-10 0)
(0.0177071 -2.26367e-10 0)
(0.0177071 -1.94947e-10 0)
(0.0177071 -1.67069e-10 0)
(0.0177071 -1.42554e-10 0)
(0.0177071 -1.21159e-10 0)
(0.0177071 -1.02611e-10 0)
(0.0177071 -8.66213e-11 0)
(0.0177071 -7.29043e-11 0)
(0.0177071 -6.11876e-11 0)
(0.0177071 -5.12179e-11 0)
(0.0177071 -4.27667e-11 0)
(0.0177071 -3.56264e-11 0)
(0.0177071 -2.96125e-11 0)
(0.0177071 -2.45585e-11 0)
(0.0177071 -2.03233e-11 0)
(0.0177071 -1.67871e-11 0)
(0.0177071 -1.38426e-11 0)
(0.0177071 -1.14002e-11 0)
(0.0177071 -9.37335e-12 0)
(0.0177071 -7.69042e-12 0)
(0.0177071 -6.29397e-12 0)
(0.0177071 -5.13601e-12 0)
(0.0177071 -4.18339e-12 0)
(0.0177071 -3.40201e-12 0)
(0.0177071 -2.76419e-12 0)
(0.0177071 -2.24793e-12 0)
(0.0177071 -1.82711e-12 0)
(0.0177071 -1.48575e-12 0)
(0.0177071 -1.20504e-12 0)
(0.0177071 -9.7305e-13 0)
(0.0177071 -7.85401e-13 0)
(0.0177071 -6.32329e-13 0)
(0.0177071 -5.06656e-13 0)
(0.0177071 -4.03249e-13 0)
(0.0177071 -3.19194e-13 0)
(0.0177071 -2.52143e-13 0)
(0.0177071 -1.99237e-13 0)
(0.0177071 -1.59705e-13 0)
(0.0177071 -1.28312e-13 0)
(0.0177071 -1.03336e-13 0)
(0.0177071 -8.21978e-14 0)
(0.0177071 -6.26883e-14 0)
(0.0177071 -4.63977e-14 0)
(0.0177071 -3.27204e-14 0)
(0.0177071 -2.34291e-14 0)
(0.0177071 -1.97485e-14 0)
(0.0177071 -1.8294e-14 0)
(0.0177071 -1.89217e-14 0)
(0.0177071 -1.69892e-14 0)
(0.0177071 -1.39708e-14 0)
(0.0177071 -9.96595e-15 0)
(0.0177071 -5.20851e-15 0)
(0.0177071 -3.92099e-15 0)
(0.0177071 -2.81336e-15 0)
(0.0177071 -3.3266e-15 0)
(0.0177071 -3.47063e-15 0)
(0.0177071 -2.65239e-15 0)
(0.0177071 -1.71066e-15 0)
(0.0177071 1.33169e-15 0)
(0.0177071 4.38951e-15 0)
(0.0177071 6.06565e-15 0)
(0.0177071 7.52678e-15 0)
(0.0177071 6.88772e-15 0)
(0.0177071 6.43754e-15 0)
(0.0177071 4.35396e-15 0)
(0.0177071 -3.07756e-18 0)
(0.0177071 -5.17063e-15 0)
(0.0177071 -1.27662e-14 0)
(0.0177071 -1.7994e-14 0)
(0.0177071 -1.96412e-14 0)
(0.0177071 -1.5958e-14 0)
(0.0177071 -9.65583e-15 0)
(0.0177071 -1.59008e-15 0)
(0.0177071 6.93073e-15 0)
(0.0177071 1.36512e-14 0)
(0.0177071 1.43582e-14 0)
(0.0177071 1.05156e-14 0)
(0.0177071 3.49481e-15 0)
(0.0177071 -3.92258e-15 0)
(0.0177071 -7.26243e-15 0)
(0.0177071 -7.32849e-15 0)
(0.0177071 -3.85334e-15 0)
(0.0177071 1.6283e-15 0)
(0.0177071 7.70203e-15 0)
(0.0177071 1.32009e-14 0)
(0.0177071 1.60503e-14 0)
(0.0177071 1.66933e-14 0)
(0.0177071 1.54941e-14 0)
(0.0177071 1.50492e-14 0)
(0.0177071 1.68661e-14 0)
(0.0177071 2.01958e-14 0)
(0.0177071 2.49693e-14 0)
(0.0177071 3.0669e-14 0)
(0.0177071 3.72659e-14 0)
(0.0177071 4.61953e-14 0)
(0.0177071 5.73245e-14 0)
(0.0177071 7.20697e-14 0)
(0.0177071 9.3715e-14 0)
(0.0177071 1.23633e-13 0)
(0.0177071 1.63723e-13 0)
(0.0177071 2.15623e-13 0)
(0.0177071 2.81477e-13 0)
(0.0177071 3.63662e-13 0)
(0.0177071 4.65021e-13 0)
(0.0177071 5.93672e-13 0)
(0.0177071 6.8041e-13 0)
(0.0177071 8.95271e-13 0)
(0.0177071 5.72608e-13 0)
(0.0177071 3.19317e-13 0)
(0.0177071 -1.53019e-13 0)
(0.0177071 -1.1923e-11 0)
(0.0177071 -7.94132e-12 0)
(-0.000826944 0.00192094 0)
(-0.00492305 0.00379141 0)
(-0.00975703 0.00464391 0)
(-0.0143197 0.00505096 0)
(-0.0183239 0.0049558 0)
(-0.0214291 0.00435167 0)
(-0.0235102 0.00336267 0)
(-0.0245231 0.0021272 0)
(-0.0244913 0.000764041 0)
(-0.0234683 -0.000635814 0)
(-0.0215262 -0.00199887 0)
(-0.0187506 -0.00326424 0)
(-0.0152366 -0.00438016 0)
(-0.0110909 -0.00530484 0)
(-0.00642993 -0.00600761 0)
(-0.00138276 -0.0064699 0)
(0.00391067 -0.00668447 0)
(0.00929885 -0.00665412 0)
(0.0146219 -0.00639136 0)
(0.019717 -0.00591989 0)
(0.0244292 -0.00527739 0)
(0.0286265 -0.00451653 0)
(0.0322156 -0.00370116 0)
(0.0351539 -0.00289707 0)
(0.0374521 -0.00216049 0)
(0.0391662 -0.00152946 0)
(0.0403827 -0.00102104 0)
(0.041201 -0.000634084 0)
(0.0417185 -0.000355079 0)
(0.0420209 -0.000164477 0)
(0.0421772 -4.16409e-05 0)
(0.0422394 3.20793e-05 0)
(0.0422446 7.19649e-05 0)
(0.0422177 8.968e-05 0)
(0.0421752 9.36482e-05 0)
(0.0421268 8.96729e-05 0)
(0.0420785 8.15811e-05 0)
(0.0420334 7.17847e-05 0)
(0.041993 6.17251e-05 0)
(0.0419577 5.22031e-05 0)
(0.0419274 4.36126e-05 0)
(0.0419018 3.61001e-05 0)
(0.0418803 2.96692e-05 0)
(0.0418625 2.42474e-05 0)
(0.0418477 1.97273e-05 0)
(0.0418355 1.59904e-05 0)
(0.0418256 1.29209e-05 0)
(0.0418174 1.04123e-05 0)
(0.0418108 8.3704e-06 0)
(0.0418053 6.71401e-06 0)
(0.041801 5.37415e-06 0)
(0.0417974 4.29302e-06 0)
(0.0417945 3.4226e-06 0)
(0.0417922 2.72328e-06 0)
(0.0417904 2.16252e-06 0)
(0.0417889 1.71373e-06 0)
(0.0417877 1.35521e-06 0)
(0.0417867 1.06935e-06 0)
(0.0417859 8.41856e-07 0)
(0.0417853 6.61155e-07 0)
(0.0417848 5.17912e-07 0)
(0.0417845 4.04595e-07 0)
(0.0417842 3.15146e-07 0)
(0.0417839 2.44696e-07 0)
(0.0417837 1.89343e-07 0)
(0.0417836 1.45961e-07 0)
(0.0417835 1.12052e-07 0)
(0.0417834 8.56249e-08 0)
(0.0417833 6.50918e-08 0)
(0.0417832 4.91922e-08 0)
(0.0417832 3.69258e-08 0)
(0.0417832 2.75007e-08 0)
(0.0417831 2.02912e-08 0)
(0.0417831 1.48044e-08 0)
(0.0417831 1.06523e-08 0)
(0.0417831 7.53082e-09 0)
(0.0417831 5.20184e-09 0)
(0.0417831 3.47968e-09 0)
(0.0417831 2.21986e-09 0)
(0.0417831 1.31034e-09 0)
(0.0417831 6.64572e-10 0)
(0.0417831 2.15926e-10 0)
(0.0417831 -8.66528e-11 0)
(0.0417831 -2.82106e-10 0)
(0.0417831 -3.9997e-10 0)
(0.0417831 -4.62517e-10 0)
(0.0417831 -4.86428e-10 0)
(0.0417831 -4.84091e-10 0)
(0.0417831 -4.64617e-10 0)
(0.0417831 -4.34617e-10 0)
(0.0417831 -3.98816e-10 0)
(0.0417831 -3.60529e-10 0)
(0.0417831 -3.22023e-10 0)
(0.0417831 -2.84799e-10 0)
(0.0417831 -2.49801e-10 0)
(0.0417831 -2.17563e-10 0)
(0.0417831 -1.88335e-10 0)
(0.0417831 -1.62167e-10 0)
(0.0417831 -1.38979e-10 0)
(0.0417831 -1.18608e-10 0)
(0.0417831 -1.00843e-10 0)
(0.0417831 -8.5446e-11 0)
(0.0417831 -7.21723e-11 0)
(0.0417831 -6.07793e-11 0)
(0.0417831 -5.10381e-11 0)
(0.0417831 -4.2739e-11 0)
(0.0417831 -3.56931e-11 0)
(0.0417831 -2.97342e-11 0)
(0.0417831 -2.47105e-11 0)
(0.0417831 -2.04883e-11 0)
(0.0417831 -1.69532e-11 0)
(0.0417831 -1.40031e-11 0)
(0.0417831 -1.15496e-11 0)
(0.0417831 -9.51498e-12 0)
(0.0417831 -7.83281e-12 0)
(0.0417831 -6.44414e-12 0)
(0.0417831 -5.29688e-12 0)
(0.0417831 -4.34653e-12 0)
(0.0417831 -3.55681e-12 0)
(0.0417831 -2.90349e-12 0)
(0.0417831 -2.36424e-12 0)
(0.0417831 -1.92327e-12 0)
(0.0417831 -1.56454e-12 0)
(0.0417831 -1.27562e-12 0)
(0.0417831 -1.04581e-12 0)
(0.0417831 -8.62417e-13 0)
(0.0417831 -7.13567e-13 0)
(0.0417831 -5.89315e-13 0)
(0.0417831 -4.81994e-13 0)
(0.0417831 -3.87231e-13 0)
(0.0417831 -3.02366e-13 0)
(0.0417831 -2.29345e-13 0)
(0.0417831 -1.69487e-13 0)
(0.0417831 -1.26425e-13 0)
(0.0417831 -9.83818e-14 0)
(0.0417831 -7.92436e-14 0)
(0.0417831 -6.2316e-14 0)
(0.0417831 -4.33875e-14 0)
(0.0417831 -2.18426e-14 0)
(0.0417831 -3.35284e-15 0)
(0.0417831 6.95882e-15 0)
(0.0417831 7.899e-15 0)
(0.0417831 -1.1777e-15 0)
(0.0417831 -1.92078e-14 0)
(0.0417831 -4.07163e-14 0)
(0.0417831 -5.79775e-14 0)
(0.0417831 -6.77506e-14 0)
(0.0417831 -6.8635e-14 0)
(0.0417831 -6.23315e-14 0)
(0.0417831 -5.05423e-14 0)
(0.0417831 -3.46952e-14 0)
(0.0417831 -1.87059e-14 0)
(0.0417831 -5.60787e-15 0)
(0.0417831 -4.20743e-16 0)
(0.0417831 -3.86863e-15 0)
(0.0417831 -1.51658e-14 0)
(0.0417831 -3.03151e-14 0)
(0.0417831 -4.20886e-14 0)
(0.0417831 -4.67268e-14 0)
(0.0417831 -4.18861e-14 0)
(0.0417831 -3.01619e-14 0)
(0.0417831 -1.47936e-14 0)
(0.0417831 -1.44185e-15 0)
(0.0417831 5.67961e-15 0)
(0.0417831 4.93208e-15 0)
(0.0417831 -1.73874e-15 0)
(0.0417831 -8.94237e-15 0)
(0.0417831 -1.03018e-14 0)
(0.0417831 -2.38403e-15 0)
(0.0417831 1.47508e-14 0)
(0.0417831 3.6278e-14 0)
(0.0417831 5.67503e-14 0)
(0.0417831 7.09344e-14 0)
(0.0417831 7.76967e-14 0)
(0.0417831 7.65436e-14 0)
(0.0417831 7.36516e-14 0)
(0.0417831 7.37175e-14 0)
(0.0417831 8.06399e-14 0)
(0.0417831 9.75165e-14 0)
(0.0417831 1.23207e-13 0)
(0.0417831 1.58265e-13 0)
(0.0417831 1.98406e-13 0)
(0.0417831 2.42344e-13 0)
(0.0417831 2.93752e-13 0)
(0.0417831 3.57159e-13 0)
(0.0417831 4.41566e-13 0)
(0.0417831 5.55311e-13 0)
(0.0417831 7.07138e-13 0)
(0.0417831 9.09052e-13 0)
(0.0417831 1.16985e-12 0)
(0.0417831 1.5059e-12 0)
(0.0417831 1.93775e-12 0)
(0.0417831 2.48641e-12 0)
(0.0417831 3.12638e-12 0)
(0.0417831 4.11094e-12 0)
(0.0417831 4.57427e-12 0)
(0.0417831 6.09425e-12 0)
(0.0417831 6.40878e-12 0)
(0.0417831 -1.88246e-12 0)
(0.0417831 1.53412e-12 0)
(-0.000919124 0.0050911 0)
(-0.00546409 0.00856117 0)
(-0.0103115 0.00925403 0)
(-0.0142805 0.00892971 0)
(-0.0172517 0.00791152 0)
(-0.0191417 0.00631118 0)
(-0.0200469 0.0043434 0)
(-0.0200539 0.00216182 0)
(-0.0192561 -0.000112104 0)
(-0.0177314 -0.00239007 0)
(-0.0155463 -0.00459751 0)
(-0.0127584 -0.00666832 0)
(-0.00941471 -0.00854033 0)
(-0.00555959 -0.0101551 0)
(-0.00123632 -0.0114596 0)
(0.00350225 -0.0124079 0)
(0.00858693 -0.0129621 0)
(0.0139221 -0.013095 0)
(0.0193798 -0.0127947 0)
(0.0248001 -0.0120744 0)
(0.0300018 -0.0109813 0)
(0.0348054 -0.00960214 0)
(0.0390613 -0.00805574 0)
(0.042674 -0.00647421 0)
(0.0456123 -0.00497837 0)
(0.0479041 -0.00365787 0)
(0.0496206 -0.00256215 0)
(0.0508567 -0.00170272 0)
(0.051713 -0.00106283 0)
(0.0522834 -0.000609315 0)
(0.0526475 -0.000303228 0)
(0.0528685 -0.000107109 0)
(0.0529936 1.10271e-05 0)
(0.0530569 7.63484e-05 0)
(0.0530815 0.00010747 0)
(0.0530832 0.000117496 0)
(0.0530721 0.000115268 0)
(0.0530546 0.000106525 0)
(0.0530345 9.48485e-05 0)
(0.0530142 8.2373e-05 0)
(0.052995 7.02978e-05 0)
(0.0529775 5.92352e-05 0)
(0.052962 4.94418e-05 0)
(0.0529484 4.09686e-05 0)
(0.0529368 3.37544e-05 0)
(0.0529269 2.76833e-05 0)
(0.0529185 2.26184e-05 0)
(0.0529114 1.8421e-05 0)
(0.0529056 1.49608e-05 0)
(0.0529007 1.21203e-05 0)
(0.0528966 9.79674e-06 0)
(0.0528933 7.90175e-06 0)
(0.0528905 6.36036e-06 0)
(0.0528883 5.10956e-06 0)
(0.0528864 4.09678e-06 0)
(0.0528849 3.27842e-06 0)
(0.0528837 2.61845e-06 0)
(0.0528827 2.08724e-06 0)
(0.0528819 1.66048e-06 0)
(0.0528812 1.31827e-06 0)
(0.0528807 1.04437e-06 0)
(0.0528803 8.25563e-07 0)
(0.0528799 6.51106e-07 0)
(0.0528797 5.12282e-07 0)
(0.0528795 4.02037e-07 0)
(0.0528793 3.14669e-07 0)
(0.0528791 2.45583e-07 0)
(0.052879 1.91075e-07 0)
(0.0528789 1.48171e-07 0)
(0.0528789 1.14486e-07 0)
(0.0528788 8.81074e-08 0)
(0.0528788 6.75096e-08 0)
(0.0528787 5.14741e-08 0)
(0.0528787 3.9031e-08 0)
(0.0528787 2.94096e-08 0)
(0.0528787 2.1999e-08 0)
(0.0528787 1.63155e-08 0)
(0.0528786 1.19774e-08 0)
(0.0528786 8.68387e-09 0)
(0.0528786 6.19871e-09 0)
(0.0528786 4.33666e-09 0)
(0.0528786 2.95293e-09 0)
(0.0528786 1.93467e-09 0)
(0.0528786 1.19419e-09 0)
(0.0528786 6.63606e-10 0)
(0.0528786 2.90537e-10 0)
(0.0528786 3.47504e-11 0)
(0.0528786 -1.3453e-10 0)
(0.0528786 -2.40731e-10 0)
(0.0528786 -3.01575e-10 0)
(0.0528786 -3.30383e-10 0)
(0.0528786 -3.3708e-10 0)
(0.0528786 -3.28999e-10 0)
(0.0528786 -3.11506e-10 0)
(0.0528786 -2.88471e-10 0)
(0.0528786 -2.62654e-10 0)
(0.0528786 -2.3597e-10 0)
(0.0528786 -2.09714e-10 0)
(0.0528786 -1.84718e-10 0)
(0.0528786 -1.6148e-10 0)
(0.0528786 -1.40257e-10 0)
(0.0528786 -1.21148e-10 0)
(0.0528786 -1.04126e-10 0)
(0.0528786 -8.90926e-11 0)
(0.0528786 -7.59106e-11 0)
(0.0528786 -6.44146e-11 0)
(0.0528786 -5.44515e-11 0)
(0.0528786 -4.58676e-11 0)
(0.0528786 -3.85173e-11 0)
(0.0528786 -3.22617e-11 0)
(0.0528786 -2.69577e-11 0)
(0.0528786 -2.24794e-11 0)
(0.0528786 -1.87054e-11 0)
(0.0528786 -1.55309e-11 0)
(0.0528786 -1.28723e-11 0)
(0.0528786 -1.06508e-11 0)
(0.0528786 -8.8037e-12 0)
(0.0528786 -7.26874e-12 0)
(0.0528786 -5.98899e-12 0)
(0.0528786 -4.92069e-12 0)
(0.0528786 -4.03293e-12 0)
(0.0528786 -3.3016e-12 0)
(0.0528786 -2.70743e-12 0)
(0.0528786 -2.23237e-12 0)
(0.0528786 -1.85435e-12 0)
(0.0528786 -1.5504e-12 0)
(0.0528786 -1.30086e-12 0)
(0.0528786 -1.08853e-12 0)
(0.0528786 -9.03451e-13 0)
(0.0528786 -7.38792e-13 0)
(0.0528786 -5.9331e-13 0)
(0.0528786 -4.70343e-13 0)
(0.0528786 -3.69797e-13 0)
(0.0528786 -2.89408e-13 0)
(0.0528786 -2.22146e-13 0)
(0.0528786 -1.61338e-13 0)
(0.0528786 -1.055e-13 0)
(0.0528786 -5.50337e-14 0)
(0.0528786 -1.29521e-14 0)
(0.0528786 1.68722e-14 0)
(0.0528786 3.33436e-14 0)
(0.0528786 3.27838e-14 0)
(0.0528786 1.72066e-14 0)
(0.0528786 -1.0346e-14 0)
(0.0528786 -4.49017e-14 0)
(0.0528786 -8.25823e-14 0)
(0.0528786 -1.18202e-13 0)
(0.0528786 -1.47545e-13 0)
(0.0528786 -1.6572e-13 0)
(0.0528786 -1.68449e-13 0)
(0.0528786 -1.54272e-13 0)
(0.0528786 -1.27326e-13 0)
(0.0528786 -9.37848e-14 0)
(0.0528786 -6.08491e-14 0)
(0.0528786 -3.56034e-14 0)
(0.0528786 -1.95787e-14 0)
(0.0528786 -1.53217e-14 0)
(0.0528786 -2.0864e-14 0)
(0.0528786 -2.95562e-14 0)
(0.0528786 -3.71322e-14 0)
(0.0528786 -4.13729e-14 0)
(0.0528786 -4.48422e-14 0)
(0.0528786 -4.7487e-14 0)
(0.0528786 -4.92272e-14 0)
(0.0528786 -4.8886e-14 0)
(0.0528786 -4.30897e-14 0)
(0.0528786 -3.07323e-14 0)
(0.0528786 -9.70638e-15 0)
(0.0528786 2.0254e-14 0)
(0.0528786 5.58688e-14 0)
(0.0528786 9.08903e-14 0)
(0.0528786 1.16879e-13 0)
(0.0528786 1.30943e-13 0)
(0.0528786 1.32636e-13 0)
(0.0528786 1.25742e-13 0)
(0.0528786 1.1956e-13 0)
(0.0528786 1.19163e-13 0)
(0.0528786 1.31851e-13 0)
(0.0528786 1.62963e-13 0)
(0.0528786 2.11326e-13 0)
(0.0528786 2.765e-13 0)
(0.0528786 3.51996e-13 0)
(0.0528786 4.37202e-13 0)
(0.0528786 5.31298e-13 0)
(0.0528786 6.38919e-13 0)
(0.0528786 7.71616e-13 0)
(0.0528786 9.41859e-13 0)
(0.0528786 1.16706e-12 0)
(0.0528786 1.4665e-12 0)
(0.0528786 1.86185e-12 0)
(0.0528786 2.38203e-12 0)
(0.0528786 3.06467e-12 0)
(0.0528786 3.94112e-12 0)
(0.0528786 5.11526e-12 0)
(0.0528786 6.64502e-12 0)
(0.0528786 8.43622e-12 0)
(0.0528786 1.20128e-11 0)
(0.0528786 1.29459e-11 0)
(0.0528786 2.27092e-11 0)
(0.0528786 2.77414e-11 0)
(-0.000617647 0.00760325 0)
(-0.00428228 0.0124852 0)
(-0.00788182 0.0127983 0)
(-0.01039 0.0116494 0)
(-0.0118493 0.00978035 0)
(-0.0123752 0.00739519 0)
(-0.0121363 0.00472319 0)
(-0.0112584 0.00189885 0)
(-0.00984268 -0.00097172 0)
(-0.00797188 -0.00381345 0)
(-0.00570716 -0.00656387 0)
(-0.00309737 -0.00916813 0)
(-0.000170622 -0.0115748 0)
(0.00305887 -0.0137316 0)
(0.00659202 -0.0155836 0)
(0.0104354 -0.0170702 0)
(0.0145918 -0.018123 0)
(0.0190441 -0.0186661 0)
(0.023738 -0.0186258 0)
(0.0285663 -0.0179526 0)
(0.0333662 -0.0166548 0)
(0.0379384 -0.0148247 0)
(0.0420882 -0.0126373 0)
(0.045671 -0.0103126 0)
(0.0486195 -0.0080614 0)
(0.0509433 -0.00604247 0)
(0.0527068 -0.00434512 0)
(0.0540023 -0.00299529 0)
(0.0549276 -0.00197306 0)
(0.0555721 -0.00123241 0)
(0.0560106 -0.000717542 0)
(0.056302 -0.000373924 0)
(0.0564908 -0.000154286 0)
(0.0566093 -2.0841e-05 0)
(0.0566806 5.4865e-05 0)
(0.0567206 9.32754e-05 0)
(0.0567404 0.000108522 0)
(0.0567475 0.000110052 0)
(0.0567468 0.000103991 0)
(0.0567417 9.41859e-05 0)
(0.0567342 8.29709e-05 0)
(0.0567258 7.16992e-05 0)
(0.0567172 6.11041e-05 0)
(0.056709 5.15371e-05 0)
(0.0567014 4.31228e-05 0)
(0.0566946 3.58558e-05 0)
(0.0566886 2.96617e-05 0)
(0.0566833 2.44338e-05 0)
(0.0566788 2.00547e-05 0)
(0.0566749 1.64087e-05 0)
(0.0566716 1.33877e-05 0)
(0.0566688 1.0895e-05 0)
(0.0566665 8.84534e-06 0)
(0.0566646 7.16516e-06 0)
(0.0566629 5.79168e-06 0)
(0.0566616 4.67175e-06 0)
(0.0566605 3.76071e-06 0)
(0.0566596 3.02125e-06 0)
(0.0566588 2.42234e-06 0)
(0.0566582 1.93825e-06 0)
(0.0566577 1.54777e-06 0)
(0.0566573 1.23342e-06 0)
(0.056657 9.80853e-07 0)
(0.0566567 7.78326e-07 0)
(0.0566565 6.16245e-07 0)
(0.0566563 4.86793e-07 0)
(0.0566562 3.83609e-07 0)
(0.0566561 3.01535e-07 0)
(0.056656 2.36389e-07 0)
(0.0566559 1.84794e-07 0)
(0.0566558 1.44023e-07 0)
(0.0566558 1.11883e-07 0)
(0.0566557 8.66091e-08 0)
(0.0566557 6.67865e-08 0)
(0.0566557 5.12826e-08 0)
(0.0566557 3.91926e-08 0)
(0.0566557 2.97947e-08 0)
(0.0566556 2.25147e-08 0)
(0.0566556 1.68964e-08 0)
(0.0566556 1.25786e-08 0)
(0.0566556 9.2754e-09 0)
(0.0566556 6.76134e-09 0)
(0.0566556 4.859e-09 0)
(0.0566556 3.4291e-09 0)
(0.0566556 2.3626e-09 0)
(0.0566556 1.57438e-09 0)
(0.0566556 9.98208e-10 0)
(0.0566556 5.82692e-10 0)
(0.0566556 2.88119e-10 0)
(0.0566556 8.39036e-11 0)
(0.0566556 -5.33865e-11 0)
(0.0566556 -1.41625e-10 0)
(0.0566556 -1.94363e-10 0)
(0.0566556 -2.21817e-10 0)
(0.0566556 -2.3164e-10 0)
(0.0566556 -2.29519e-10 0)
(0.0566556 -2.19636e-10 0)
(0.0566556 -2.05028e-10 0)
(0.0566556 -1.87862e-10 0)
(0.0566556 -1.69657e-10 0)
(0.0566556 -1.51445e-10 0)
(0.0566556 -1.33902e-10 0)
(0.0566556 -1.17439e-10 0)
(0.0566556 -1.02281e-10 0)
(0.0566556 -8.85264e-11 0)
(0.0566556 -7.61911e-11 0)
(0.0566556 -6.52388e-11 0)
(0.0566556 -5.5606e-11 0)
(0.0566556 -4.72085e-11 0)
(0.0566556 -3.99428e-11 0)
(0.0566556 -3.3693e-11 0)
(0.0566556 -2.83375e-11 0)
(0.0566556 -2.37639e-11 0)
(0.0566556 -1.98741e-11 0)
(0.0566556 -1.65794e-11 0)
(0.0566556 -1.38034e-11 0)
(0.0566556 -1.14714e-11 0)
(0.0566556 -9.51547e-12 0)
(0.0566556 -7.87599e-12 0)
(0.0566556 -6.50289e-12 0)
(0.0566556 -5.3561e-12 0)
(0.0566556 -4.40902e-12 0)
(0.0566556 -3.63675e-12 0)
(0.0566556 -3.01519e-12 0)
(0.0566556 -2.51677e-12 0)
(0.0566556 -2.11314e-12 0)
(0.0566556 -1.77885e-12 0)
(0.0566556 -1.4945e-12 0)
(0.0566556 -1.24747e-12 0)
(0.0566556 -1.03503e-12 0)
(0.0566556 -8.54736e-13 0)
(0.0566556 -7.02729e-13 0)
(0.0566556 -5.73918e-13 0)
(0.0566556 -4.60567e-13 0)
(0.0566556 -3.57246e-13 0)
(0.0566556 -2.61332e-13 0)
(0.0566556 -1.72819e-13 0)
(0.0566556 -9.58383e-14 0)
(0.0566556 -3.38005e-14 0)
(0.0566556 8.31501e-15 0)
(0.0566556 2.99471e-14 0)
(0.0566556 3.37367e-14 0)
(0.0566556 2.25513e-14 0)
(0.0566556 2.32876e-16 0)
(0.0566556 -3.45241e-14 0)
(0.0566556 -7.90989e-14 0)
(0.0566556 -1.2986e-13 0)
(0.0566556 -1.80235e-13 0)
(0.0566556 -2.1936e-13 0)
(0.0566556 -2.41674e-13 0)
(0.0566556 -2.41061e-13 0)
(0.0566556 -2.16602e-13 0)
(0.0566556 -1.74823e-13 0)
(0.0566556 -1.26861e-13 0)
(0.0566556 -8.12149e-14 0)
(0.0566556 -4.58771e-14 0)
(0.0566556 -2.70076e-14 0)
(0.0566556 -2.35956e-14 0)
(0.0566556 -3.06766e-14 0)
(0.0566556 -4.38777e-14 0)
(0.0566556 -5.79745e-14 0)
(0.0566556 -7.124e-14 0)
(0.0566556 -8.12944e-14 0)
(0.0566556 -8.40401e-14 0)
(0.0566556 -7.79731e-14 0)
(0.0566556 -6.0469e-14 0)
(0.0566556 -3.18328e-14 0)
(0.0566556 5.46003e-15 0)
(0.0566556 4.95435e-14 0)
(0.0566556 9.30627e-14 0)
(0.0566556 1.30242e-13 0)
(0.0566556 1.54321e-13 0)
(0.0566556 1.62208e-13 0)
(0.0566556 1.58897e-13 0)
(0.0566556 1.4955e-13 0)
(0.0566556 1.42293e-13 0)
(0.0566556 1.46167e-13 0)
(0.0566556 1.69978e-13 0)
(0.0566556 2.16805e-13 0)
(0.0566556 2.87419e-13 0)
(0.0566556 3.7578e-13 0)
(0.0566556 4.775e-13 0)
(0.0566556 5.88921e-13 0)
(0.0566556 7.10941e-13 0)
(0.0566556 8.48476e-13 0)
(0.0566556 1.01134e-12 0)
(0.0566556 1.21535e-12 0)
(0.0566556 1.48203e-12 0)
(0.0566556 1.83822e-12 0)
(0.0566556 2.31288e-12 0)
(0.0566556 2.93979e-12 0)
(0.0566556 3.7619e-12 0)
(0.0566556 4.85031e-12 0)
(0.0566556 6.29188e-12 0)
(0.0566556 8.20256e-12 0)
(0.0566556 1.0922e-11 0)
(0.0566556 1.47761e-11 0)
(0.0566556 1.84608e-11 0)
(0.0566556 3.52222e-11 0)
(0.0566556 3.88559e-11 0)
(-8.43201e-06 0.00944402 0)
(-0.0018137 0.0152175 0)
(-0.00354548 0.0150856 0)
(-0.00421092 0.0130456 0)
(-0.00401034 0.0104296 0)
(-0.00311755 0.00743053 0)
(-0.0016986 0.00426251 0)
(0.00012756 0.00102314 0)
(0.00227354 -0.00220208 0)
(0.00466378 -0.0053518 0)
(0.00724156 -0.00837776 0)
(0.00995942 -0.0112396 0)
(0.0127867 -0.0139033 0)
(0.0157068 -0.0163353 0)
(0.0187197 -0.0184981 0)
(0.0218387 -0.0203431 0)
(0.0250865 -0.0218016 0)
(0.0284852 -0.0227766 0)
(0.0320407 -0.0231427 0)
(0.0357216 -0.0227665 0)
(0.0394404 -0.0215578 0)
(0.0430517 -0.0195383 0)
(0.0463791 -0.0168851 0)
(0.0492658 -0.0139022 0)
(0.0516218 -0.0109242 0)
(0.0534398 -0.00821898 0)
(0.0547785 -0.00593973 0)
(0.0557298 -0.00413208 0)
(0.0563894 -0.00276758 0)
(0.0568401 -0.00177953 0)
(0.0571453 -0.00108962 0)
(0.057351 -0.000623804 0)
(0.0574887 -0.000319621 0)
(0.05758 -0.000128099 0)
(0.0576393 -1.27928e-05 0)
(0.0576768 5.23754e-05 0)
(0.0576992 8.54853e-05 0)
(0.0577115 9.87453e-05 0)
(0.0577169 0.000100208 0)
(0.0577179 9.50646e-05 0)
(0.0577162 8.65851e-05 0)
(0.0577128 7.67697e-05 0)
(0.0577085 6.67982e-05 0)
(0.0577039 5.73278e-05 0)
(0.0576993 4.86903e-05 0)
(0.0576949 4.10192e-05 0)
(0.0576909 3.43319e-05 0)
(0.0576872 2.8581e-05 0)
(0.0576839 2.3686e-05 0)
(0.0576811 1.95529e-05 0)
(0.0576786 1.60857e-05 0)
(0.0576765 1.31926e-05 0)
(0.0576747 1.07895e-05 0)
(0.0576732 8.80125e-06 0)
(0.0576719 7.16183e-06 0)
(0.0576708 5.81428e-06 0)
(0.0576699 4.70976e-06 0)
(0.0576692 3.80683e-06 0)
(0.0576685 3.07051e-06 0)
(0.057668 2.47147e-06 0)
(0.0576676 1.9852e-06 0)
(0.0576672 1.59133e-06 0)
(0.057667 1.27297e-06 0)
(0.0576667 1.01618e-06 0)
(0.0576665 8.09476e-07 0)
(0.0576664 6.43427e-07 0)
(0.0576663 5.10306e-07 0)
(0.0576662 4.038e-07 0)
(0.0576661 3.18764e-07 0)
(0.057666 2.51011e-07 0)
(0.057666 1.97144e-07 0)
(0.0576659 1.5441e-07 0)
(0.0576659 1.20585e-07 0)
(0.0576659 9.38745e-08 0)
(0.0576658 7.28333e-08 0)
(0.0576658 5.63006e-08 0)
(0.0576658 4.33457e-08 0)
(0.0576658 3.32234e-08 0)
(0.0576658 2.53387e-08 0)
(0.0576658 1.92173e-08 0)
(0.0576658 1.4482e-08 0)
(0.0576658 1.08333e-08 0)
(0.0576658 8.03401e-09 0)
(0.0576658 5.89675e-09 0)
(0.0576658 4.27378e-09 0)
(0.0576658 3.04895e-09 0)
(0.0576658 2.13115e-09 0)
(0.0576658 1.44911e-09 0)
(0.0576658 9.47268e-10 0)
(0.0576658 5.8242e-10 0)
(0.0576658 3.211e-10 0)
(0.0576658 1.37486e-10 0)
(0.0576658 1.17344e-11 0)
(0.0576658 -7.13368e-11 0)
(0.0576658 -1.23287e-10 0)
(0.0576658 -1.52869e-10 0)
(0.0576658 -1.66664e-10 0)
(0.0576658 -1.69579e-10 0)
(0.0576658 -1.6524e-10 0)
(0.0576658 -1.56299e-10 0)
(0.0576658 -1.44665e-10 0)
(0.0576658 -1.31692e-10 0)
(0.0576658 -1.18309e-10 0)
(0.0576658 -1.05142e-10 0)
(0.0576658 -9.2589e-11 0)
(0.0576658 -8.08945e-11 0)
(0.0576658 -7.01966e-11 0)
(0.0576658 -6.05544e-11 0)
(0.0576658 -5.19726e-11 0)
(0.0576658 -4.44095e-11 0)
(0.0576658 -3.77948e-11 0)
(0.0576658 -3.20441e-11 0)
(0.0576658 -2.70692e-11 0)
(0.0576658 -2.27903e-11 0)
(0.0576658 -1.9129e-11 0)
(0.0576658 -1.60121e-11 0)
(0.0576658 -1.33701e-11 0)
(0.0576658 -1.11342e-11 0)
(0.0576658 -9.2486e-12 0)
(0.0576658 -7.66094e-12 0)
(0.0576658 -6.33444e-12 0)
(0.0576658 -5.23702e-12 0)
(0.0576658 -4.34094e-12 0)
(0.0576658 -3.61406e-12 0)
(0.0576658 -3.02463e-12 0)
(0.0576658 -2.54227e-12 0)
(0.0576658 -2.1406e-12 0)
(0.0576658 -1.80256e-12 0)
(0.0576658 -1.51611e-12 0)
(0.0576658 -1.27436e-12 0)
(0.0576658 -1.07148e-12 0)
(0.0576658 -9.0076e-13 0)
(0.0576658 -7.51567e-13 0)
(0.0576658 -6.16382e-13 0)
(0.0576658 -4.86512e-13 0)
(0.0576658 -3.62248e-13 0)
(0.0576658 -2.48665e-13 0)
(0.0576658 -1.5201e-13 0)
(0.0576658 -7.70859e-14 0)
(0.0576658 -2.38932e-14 0)
(0.0576658 9.77516e-15 0)
(0.0576658 2.63913e-14 0)
(0.0576658 2.73985e-14 0)
(0.0576658 1.36786e-14 0)
(0.0576658 -1.5413e-14 0)
(0.0576658 -6.13191e-14 0)
(0.0576658 -1.20324e-13 0)
(0.0576658 -1.84385e-13 0)
(0.0576658 -2.41123e-13 0)
(0.0576658 -2.78278e-13 0)
(0.0576658 -2.89668e-13 0)
(0.0576658 -2.73647e-13 0)
(0.0576658 -2.36629e-13 0)
(0.0576658 -1.8772e-13 0)
(0.0576658 -1.38857e-13 0)
(0.0576658 -9.94856e-14 0)
(0.0576658 -7.48648e-14 0)
(0.0576658 -6.27001e-14 0)
(0.0576658 -6.38625e-14 0)
(0.0576658 -7.29868e-14 0)
(0.0576658 -8.5723e-14 0)
(0.0576658 -9.65908e-14 0)
(0.0576658 -1.00846e-13 0)
(0.0576658 -9.77183e-14 0)
(0.0576658 -8.29313e-14 0)
(0.0576658 -5.68277e-14 0)
(0.0576658 -1.90207e-14 0)
(0.0576658 2.83286e-14 0)
(0.0576658 7.66223e-14 0)
(0.0576658 1.20026e-13 0)
(0.0576658 1.51666e-13 0)
(0.0576658 1.67308e-13 0)
(0.0576658 1.7009e-13 0)
(0.0576658 1.61136e-13 0)
(0.0576658 1.50954e-13 0)
(0.0576658 1.47881e-13 0)
(0.0576658 1.60422e-13 0)
(0.0576658 1.97742e-13 0)
(0.0576658 2.5919e-13 0)
(0.0576658 3.45344e-13 0)
(0.0576658 4.50312e-13 0)
(0.0576658 5.68016e-13 0)
(0.0576658 6.96773e-13 0)
(0.0576658 8.33217e-13 0)
(0.0576658 9.84967e-13 0)
(0.0576658 1.16119e-12 0)
(0.0576658 1.37924e-12 0)
(0.0576658 1.66493e-12 0)
(0.0576658 2.04162e-12 0)
(0.0576658 2.54345e-12 0)
(0.0576658 3.20584e-12 0)
(0.0576658 4.07936e-12 0)
(0.0576658 5.23629e-12 0)
(0.0576658 6.75738e-12 0)
(0.0576658 8.85524e-12 0)
(0.0576658 1.16345e-11 0)
(0.0576658 1.56806e-11 0)
(0.0576658 2.0689e-11 0)
(0.0576658 3.39187e-11 0)
(0.0576658 3.75102e-11 0)
(0.000309505 0.0089862 0)
(0.000592621 0.0156126 0)
(0.00152703 0.0152585 0)
(0.0030012 0.0126478 0)
(0.00512431 0.00957889 0)
(0.00757759 0.00625043 0)
(0.0103 0.00282925 0)
(0.013194 -0.000605024 0)
(0.0162061 -0.00398505 0)
(0.0192816 -0.00725639 0)
(0.0223769 -0.010377 0)
(0.0254551 -0.0133139 0)
(0.0284892 -0.0160414 0)
(0.0314598 -0.018537 0)
(0.0343546 -0.0207761 0)
(0.0371667 -0.0227239 0)
(0.039892 -0.0243257 0)
(0.0425267 -0.025493 0)
(0.0450616 -0.0260936 0)
(0.0474758 -0.0259583 0)
(0.0497304 -0.0249223 0)
(0.0517695 -0.0229094 0)
(0.0535304 -0.020027 0)
(0.0549627 -0.0165929 0)
(0.0560477 -0.0130407 0)
(0.0568066 -0.00976193 0)
(0.0572941 -0.00699788 0)
(0.0575813 -0.00482682 0)
(0.0577372 -0.00321247 0)
(0.0578165 -0.0020624 0)
(0.0578561 -0.00127083 0)
(0.0578774 -0.000741719 0)
(0.0578909 -0.000397557 0)
(0.0579009 -0.000180015 0)
(0.057909 -4.71754e-05 0)
(0.0579152 3.01492e-05 0)
(0.0579195 7.18248e-05 0)
(0.057922 9.11323e-05 0)
(0.0579228 9.68155e-05 0)
(0.0579224 9.45474e-05 0)
(0.0579209 8.79502e-05 0)
(0.0579187 7.92925e-05 0)
(0.057916 6.99587e-05 0)
(0.0579132 6.07623e-05 0)
(0.0579103 5.21525e-05 0)
(0.0579075 4.435e-05 0)
(0.0579049 3.74352e-05 0)
(0.0579025 3.14053e-05 0)
(0.0579003 2.62108e-05 0)
(0.0578983 2.17783e-05 0)
(0.0578966 1.80249e-05 0)
(0.0578952 1.48665e-05 0)
(0.0578939 1.22228e-05 0)
(0.0578928 1.00201e-05 0)
(0.0578919 8.19224e-06 0)
(0.0578911 6.68081e-06 0)
(0.0578904 5.4351e-06 0)
(0.0578899 4.41145e-06 0)
(0.0578894 3.5726e-06 0)
(0.057889 2.88697e-06 0)
(0.0578887 2.32795e-06 0)
(0.0578885 1.87323e-06 0)
(0.0578883 1.50418e-06 0)
(0.0578881 1.20532e-06 0)
(0.0578879 9.6382e-07 0)
(0.0578878 7.69076e-07 0)
(0.0578877 6.12361e-07 0)
(0.0578877 4.86509e-07 0)
(0.0578876 3.8565e-07 0)
(0.0578875 3.04988e-07 0)
(0.0578875 2.40613e-07 0)
(0.0578875 1.89345e-07 0)
(0.0578874 1.48604e-07 0)
(0.0578874 1.163e-07 0)
(0.0578874 9.07458e-08 0)
(0.0578874 7.05782e-08 0)
(0.0578874 5.47018e-08 0)
(0.0578874 4.22362e-08 0)
(0.0578874 3.24757e-08 0)
(0.0578874 2.48559e-08 0)
(0.0578874 1.89259e-08 0)
(0.0578873 1.43268e-08 0)
(0.0578873 1.0773e-08 0)
(0.0578873 8.03814e-09 0)
(0.0578873 5.94289e-09 0)
(0.0578873 4.34572e-09 0)
(0.0578873 3.13509e-09 0)
(0.0578873 2.22337e-09 0)
(0.0578873 1.54186e-09 0)
(0.0578873 1.03691e-09 0)
(0.0578873 6.66672e-10 0)
(0.0578873 3.9868e-10 0)
(0.0578873 2.07801e-10 0)
(0.0578873 7.46602e-11 0)
(0.0578873 -1.56115e-11 0)
(0.0578873 -7.43746e-11 0)
(0.0578873 -1.10257e-10 0)
(0.0578873 -1.29774e-10 0)
(0.0578873 -1.37815e-10 0)
(0.0578873 -1.38018e-10 0)
(0.0578873 -1.33062e-10 0)
(0.0578873 -1.24898e-10 0)
(0.0578873 -1.14921e-10 0)
(0.0578873 -1.04114e-10 0)
(0.0578873 -9.31523e-11 0)
(0.0578873 -8.24905e-11 0)
(0.0578873 -7.24215e-11 0)
(0.0578873 -6.31194e-11 0)
(0.0578873 -5.46688e-11 0)