/*--------------------------------*- C++ -*----------------------------------*\
| =========                 |                                                 |
| \\      /  F ield         | OpenFOAM: The Open Source CFD Toolbox           |
|  \\    /   O peration     | Version:  4.1                                   |
|   \\  /    A nd           | Web:      www.OpenFOAM.org                      |
|    \\/     M anipulation  |                                                 |
\*---------------------------------------------------------------------------*/
FoamFile
{
    version     2.0;
    format      ascii;
    class       volVectorField;
    location    "3930";
    object      U;
}
// * * * * * * * * * * * * * * * * * * * * * * * * * * * * * * * * * * * * * //

dimensions      [0 1 -1 0 0 0 0];

internalField   nonuniform List<vector> 
1275
(
(0.0122062 8.00155e-07 0)
(0.0124324 1.61006e-05 0)
(0.0125994 2.95546e-05 0)
(0.0127103 4.11406e-05 0)
(0.0127696 5.08043e-05 0)
(0.012781 5.86865e-05 0)
(0.0127489 6.47823e-05 0)
(0.0126773 6.92927e-05 0)
(0.0125703 7.22742e-05 0)
(0.0124318 7.39465e-05 0)
(0.0122656 7.441e-05 0)
(0.0120752 7.38796e-05 0)
(0.0118639 7.24758e-05 0)
(0.0116349 7.03934e-05 0)
(0.0113909 6.77523e-05 0)
(0.0111346 6.47172e-05 0)
(0.0108683 6.13927e-05 0)
(0.0105942 5.79082e-05 0)
(0.0103141 5.43446e-05 0)
(0.0100298 5.07952e-05 0)
(0.00974261 4.73149e-05 0)
(0.00945399 4.39636e-05 0)
(0.009165 4.07718e-05 0)
(0.0088767 3.77716e-05 0)
(0.00858991 3.49731e-05 0)
(0.00830545 3.23873e-05 0)
(0.00802393 3.00096e-05 0)
(0.00774597 2.7836e-05 0)
(0.00747204 2.58527e-05 0)
(0.00720261 2.40471e-05 0)
(0.00693805 2.24007e-05 0)
(0.0066787 2.08968e-05 0)
(0.00642486 1.9516e-05 0)
(0.00617678 1.82413e-05 0)
(0.00593468 1.70549e-05 0)
(0.00569878 1.59419e-05 0)
(0.00546922 1.48875e-05 0)
(0.00524616 1.38803e-05 0)
(0.00502972 1.29098e-05 0)
(0.00481998 1.19683e-05 0)
(0.00461704 1.10495e-05 0)
(0.00442093 1.01498e-05 0)
(0.0042317 9.26658e-06 0)
(0.00404937 8.39954e-06 0)
(0.00387392 7.5493e-06 0)
(0.00370535 6.71788e-06 0)
(0.00354362 5.90793e-06 0)
(0.00338868 5.12285e-06 0)
(0.00324047 4.36614e-06 0)
(0.00309891 3.64149e-06 0)
(0.00296391 2.95223e-06 0)
(0.00283538 2.30134e-06 0)
(0.00271321 1.69116e-06 0)
(0.00259729 1.12335e-06 0)
(0.00248748 5.98764e-07 0)
(0.00238368 1.17468e-07 0)
(0.00228575 -3.21291e-07 0)
(0.00219354 -7.18972e-07 0)
(0.00210693 -1.0777e-06 0)
(0.00202577 -1.40013e-06 0)
(0.00194993 -1.68934e-06 0)
(0.00187927 -1.94865e-06 0)
(0.00181364 -2.18159e-06 0)
(0.00175291 -2.39167e-06 0)
(0.00169694 -2.58239e-06 0)
(0.0016456 -2.75703e-06 0)
(0.00159876 -2.91869e-06 0)
(0.00155629 -3.07018e-06 0)
(0.00151807 -3.21401e-06 0)
(0.00148397 -3.35236e-06 0)
(0.00145389 -3.48711e-06 0)
(0.0014277 -3.61985e-06 0)
(0.00140531 -3.75186e-06 0)
(0.0013866 -3.88418e-06 0)
(0.00137148 -4.01763e-06 0)
(0.00135985 -4.15282e-06 0)
(0.00135161 -4.2902e-06 0)
(0.00134668 -4.43006e-06 0)
(0.00134498 -4.57257e-06 0)
(0.0013464 -4.71781e-06 0)
(0.00135088 -4.86573e-06 0)
(0.00135833 -5.01625e-06 0)
(0.00136867 -5.16918e-06 0)
(0.00138182 -5.32428e-06 0)
(0.00139772 -5.48124e-06 0)
(0.00141627 -5.63972e-06 0)
(0.00143741 -5.7993e-06 0)
(0.00146106 -5.95954e-06 0)
(0.00148714 -6.11991e-06 0)
(0.00151557 -6.27991e-06 0)
(0.00154629 -6.43893e-06 0)
(0.0015792 -6.59641e-06 0)
(0.00161423 -6.75166e-06 0)
(0.0016513 -6.90411e-06 0)
(0.00169033 -7.05302e-06 0)
(0.00173123 -7.19783e-06 0)
(0.00177392 -7.33779e-06 0)
(0.00181832 -7.47233e-06 0)
(0.00186434 -7.6008e-06 0)
(0.00191189 -7.72255e-06 0)
(0.00196089 -7.8372e-06 0)
(0.00201124 -7.94384e-06 0)
(0.00206285 -8.0427e-06 0)
(0.00211567 -8.13216e-06 0)
(0.00216952 -8.21377e-06 0)
(0.00222445 -8.28426e-06 0)
(0.00228018 -8.34785e-06 0)
(0.0023369 -8.39777e-06 0)
(0.0023941 -8.44351e-06 0)
(0.00245234 -8.47131e-06 0)
(0.00251057 -8.50059e-06 0)
(0.00257013 -8.5046e-06 0)
(0.00262886 -8.52047e-06 0)
(0.00268969 -8.49873e-06 0)
(0.00274824 -8.50644e-06 0)
(0.00281056 -8.45732e-06 0)
(0.00286793 -8.46473e-06 0)
(0.00293242 -8.39065e-06 0)
(0.00298708 -8.40781e-06 0)
(0.00305521 -8.3315e-06 0)
(0.00310481 -8.36713e-06 0)
(0.00317917 -8.3968e-06 0)
(0.00322032 -8.45249e-06 0)
(0.00330511 -9.03662e-06 0)
(0.00333381 -9.16744e-06 0)
(0.00343516 -1.20948e-05 0)
(0.00345022 -1.31611e-05 0)
(0.00357673 -2.68446e-05 0)
(0.0312648 -0.000521025 0)
(0.0318827 -0.00041301 0)
(0.0324071 -0.000310479 0)
(0.0328404 -0.00021366 0)
(0.0331863 -0.000123223 0)
(0.0334484 -3.90634e-05 0)
(0.0336306 3.83943e-05 0)
(0.0337371 0.000109407 0)
(0.0337718 0.000173812 0)
(0.0337392 0.000231948 0)
(0.0336433 0.000283861 0)
(0.0334884 0.000329939 0)
(0.0332785 0.000370369 0)
(0.0330179 0.000405563 0)
(0.0327105 0.000435792 0)
(0.0323601 0.000461465 0)
(0.0319705 0.00048289 0)
(0.0315453 0.000500453 0)
(0.031088 0.000514466 0)
(0.0306019 0.000525279 0)
(0.0300901 0.000533181 0)
(0.0295556 0.000538478 0)
(0.0290014 0.000541427 0)
(0.0284302 0.000542288 0)
(0.0278444 0.000541276 0)
(0.0272465 0.000538608 0)
(0.0266389 0.000534462 0)
(0.0260236 0.000529014 0)
(0.0254027 0.000522409 0)
(0.0247781 0.000514787 0)
(0.0241516 0.000506268 0)
(0.023525 0.000496964 0)
(0.0228997 0.000486972 0)
(0.0222772 0.000476384 0)
(0.0216591 0.000465279 0)
(0.0210464 0.000453734 0)
(0.0204406 0.000441814 0)
(0.0198427 0.000429584 0)
(0.0192537 0.000417099 0)
(0.0186746 0.000404413 0)
(0.0181063 0.000391574 0)
(0.0175496 0.000378627 0)
(0.0170053 0.000365613 0)
(0.016474 0.000352569 0)
(0.0159562 0.000339531 0)
(0.0154526 0.000326528 0)
(0.0149636 0.00031359 0)
(0.0144895 0.000300742 0)
(0.0140307 0.000288006 0)
(0.0135874 0.000275403 0)
(0.0131598 0.000262951 0)
(0.0127482 0.000250667 0)
(0.0123525 0.000238566 0)
(0.0119729 0.000226659 0)
(0.0116093 0.000214958 0)
(0.0112617 0.000203474 0)
(0.01093 0.000192215 0)
(0.0106141 0.000181189 0)
(0.0103138 0.000170402 0)
(0.010029 0.00015986 0)
(0.00975938 0.000149565 0)
(0.00950476 0.000139523 0)
(0.0092649 0.000129732 0)
(0.0090395 0.000120196 0)
(0.0088283 0.000110911 0)
(0.00863098 0.000101876 0)
(0.00844726 9.3089e-05 0)
(0.0082768 8.45449e-05 0)
(0.00811931 7.62392e-05 0)
(0.00797444 6.81663e-05 0)
(0.0078419 6.03201e-05 0)
(0.00772134 5.26942e-05 0)
(0.00761245 4.52818e-05 0)
(0.00751491 3.80763e-05 0)
(0.00742841 3.10709e-05 0)
(0.00735263 2.42592e-05 0)
(0.00728726 1.76348e-05 0)
(0.00723199 1.11922e-05 0)
(0.00718653 4.92592e-06 0)
(0.00715058 -1.16875e-06 0)
(0.00712384 -7.096e-06 0)
(0.00710603 -1.28594e-05 0)
(0.00709686 -1.84619e-05 0)
(0.00709605 -2.39059e-05 0)
(0.00710333 -2.91931e-05 0)
(0.00711841 -3.43248e-05 0)
(0.00714104 -3.93015e-05 0)
(0.00717094 -4.41236e-05 0)
(0.00720785 -4.87907e-05 0)
(0.00725149 -5.33021e-05 0)
(0.00730162 -5.76571e-05 0)
(0.00735797 -6.18542e-05 0)
(0.00742028 -6.58922e-05 0)
(0.0074883 -6.97692e-05 0)
(0.00756176 -7.34842e-05 0)
(0.00764042 -7.70345e-05 0)
(0.00772403 -8.04202e-05 0)
(0.00781233 -8.36369e-05 0)
(0.00790507 -8.66879e-05 0)
(0.008002 -8.95648e-05 0)
(0.00810288 -9.22778e-05 0)
(0.00820748 -9.48096e-05 0)
(0.00831553 -9.71849e-05 0)
(0.00842684 -9.93671e-05 0)
(0.00854108 -0.00010141 0)
(0.00865818 -0.000103238 0)
(0.00877768 -0.000104963 0)
(0.0088997 -0.000106427 0)
(0.00902348 -0.000107862 0)
(0.00914964 -0.000108945 0)
(0.00927675 -0.000110136 0)
(0.00940639 -0.000110803 0)
(0.00953575 -0.00011183 0)
(0.00966846 -0.000112016 0)
(0.00979881 -0.000113004 0)
(0.00993456 -0.000112598 0)
(0.0100643 -0.000113732 0)
(0.0102037 -0.000112576 0)
(0.0103304 -0.0001141 0)
(0.0104751 -0.000112034 0)
(0.0105953 -0.000114185 0)
(0.0107487 -0.000111256 0)
(0.0108572 -0.000114063 0)
(0.0110248 -0.000111201 0)
(0.0111143 -0.000114079 0)
(0.0113041 -0.000115223 0)
(0.0113653 -0.000116522 0)
(0.0115857 -0.000136222 0)
(0.0488537 -0.00132814 0)
(0.0495788 -0.00112235 0)
(0.0502117 -0.000924563 0)
(0.0507546 -0.000734869 0)
(0.0512108 -0.000554542 0)
(0.0515833 -0.000383364 0)
(0.0518754 -0.000222153 0)
(0.0520904 -7.0573e-05 0)
(0.0522315 7.09822e-05 0)
(0.0523021 0.000202906 0)
(0.0523053 0.000325125 0)
(0.0522445 0.00043807 0)
(0.0521226 0.000541881 0)
(0.051943 0.000637009 0)
(0.0517084 0.000723724 0)
(0.0514221 0.000802481 0)
(0.0510866 0.000873612 0)
(0.050705 0.000937558 0)
(0.0502798 0.000994673 0)
(0.0498138 0.00104537 0)
(0.0493095 0.00108999 0)
(0.0487694 0.00112892 0)
(0.0481958 0.00116246 0)
(0.0475914 0.00119096 0)
(0.0469582 0.00121471 0)
(0.0462986 0.00123399 0)
(0.0456148 0.00124905 0)
(0.044909 0.00126016 0)
(0.0441833 0.00126753 0)
(0.0434399 0.00127139 0)
(0.0426807 0.00127194 0)
(0.0419078 0.00126936 0)
(0.0411233 0.00126384 0)
(0.040329 0.00125555 0)
(0.039527 0.00124466 0)
(0.0387192 0.00123134 0)
(0.0379074 0.00121573 0)
(0.0370936 0.00119799 0)
(0.0362795 0.00117827 0)
(0.035467 0.00115673 0)
(0.0346577 0.00113351 0)
(0.0338535 0.00110876 0)
(0.0330559 0.00108262 0)
(0.0322666 0.00105524 0)
(0.031487 0.00102676 0)
(0.0307186 0.000997325 0)
(0.0299628 0.000967062 0)
(0.0292209 0.00093611 0)
(0.0284941 0.000904596 0)
(0.0277836 0.000872646 0)
(0.0270903 0.000840377 0)
(0.0264153 0.000807902 0)
(0.0257592 0.000775328 0)
(0.025123 0.000742752 0)
(0.0245071 0.000710266 0)
(0.0239122 0.000677953 0)
(0.0233388 0.00064589 0)
(0.022787 0.000614145 0)
(0.0222573 0.000582778 0)
(0.0217498 0.000551844 0)
(0.0212647 0.000521387 0)
(0.0208018 0.000491448 0)
(0.0203613 0.00046206 0)
(0.0199429 0.00043325 0)
(0.0195466 0.000405041 0)
(0.019172 0.000377449 0)
(0.018819 0.000350488 0)
(0.0184872 0.000324165 0)
(0.0181763 0.000298488 0)
(0.017886 0.000273457 0)
(0.0176157 0.000249072 0)
(0.0173651 0.000225332 0)
(0.0171338 0.000202231 0)
(0.0169212 0.000179764 0)
(0.0167269 0.000157925 0)
(0.0165505 0.000136705 0)
(0.0163914 0.000116096 0)
(0.0162491 9.60893e-05 0)
(0.0161231 7.66769e-05 0)
(0.016013 5.78498e-05 0)
(0.0159182 3.95998e-05 0)
(0.0158382 2.19186e-05 0)
(0.0157726 4.79899e-06 0)
(0.0157207 -1.17663e-05 0)
(0.0156823 -2.77835e-05 0)
(0.0156567 -4.32586e-05 0)
(0.0156434 -5.81967e-05 0)
(0.015642 -7.26025e-05 0)
(0.0156521 -8.64799e-05 0)
(0.0156731 -9.98327e-05 0)
(0.0157046 -0.000112664 0)
(0.0157461 -0.000124976 0)
(0.0157972 -0.000136772 0)
(0.0158574 -0.000148054 0)
(0.0159263 -0.000158824 0)
(0.0160034 -0.000169084 0)
(0.0160885 -0.000178838 0)
(0.0161809 -0.000188085 0)
(0.0162803 -0.000196834 0)
(0.0163863 -0.000205079 0)
(0.0164986 -0.000212837 0)
(0.0166166 -0.000220092 0)
(0.0167401 -0.00022688 0)
(0.0168687 -0.000233161 0)
(0.0170019 -0.000239008 0)
(0.0171396 -0.000244329 0)
(0.0172811 -0.000249279 0)
(0.0174265 -0.000253652 0)
(0.017575 -0.000257766 0)
(0.0177269 -0.000261192 0)
(0.0178809 -0.000264564 0)
(0.0180382 -0.000267018 0)
(0.0181965 -0.000269792 0)
(0.0183584 -0.000271202 0)
(0.0185193 -0.000273596 0)
(0.0186853 -0.000273818 0)
(0.0188471 -0.000276158 0)
(0.0190176 -0.000274954 0)
(0.0191775 -0.000277695 0)
(0.0193539 -0.000274758 0)
(0.0195083 -0.000278446 0)
(0.019694 -0.000273621 0)
(0.0198367 -0.00027864 0)
(0.0200379 -0.000272677 0)
(0.0201597 -0.000278462 0)
(0.0203866 -0.000274994 0)
(0.0204718 -0.000278641 0)
(0.0207401 -0.000286158 0)
(0.0667185 -0.00207026 0)
(0.0673814 -0.00177377 0)
(0.067957 -0.00148868 0)
(0.0684482 -0.00121473 0)
(0.0688586 -0.000953641 0)
(0.0691917 -0.000704926 0)
(0.0694508 -0.000469611 0)
(0.0696395 -0.000247155 0)
(0.0697606 -3.79958e-05 0)
(0.0698179 0.000158429 0)
(0.069814 0.000342094 0)
(0.0697521 0.000513582 0)
(0.0696347 0.000673129 0)
(0.0694649 0.000821325 0)
(0.0692449 0.000958552 0)
(0.0689773 0.00108539 0)
(0.0686642 0.00120228 0)
(0.068308 0.00130978 0)
(0.0679106 0.00140834 0)
(0.0674741 0.00149846 0)
(0.0670002 0.00158057 0)
(0.0664909 0.00165511 0)
(0.0659477 0.00172246 0)
(0.0653723 0.00178301 0)
(0.0647664 0.00183708 0)
(0.0641315 0.00188499 0)
(0.063469 0.00192701 0)
(0.0627806 0.00196341 0)
(0.0620676 0.0019944 0)
(0.0613315 0.00202021 0)
(0.0605738 0.002041 0)
(0.0597959 0.00205697 0)
(0.0589994 0.00206827 0)
(0.0581856 0.00207504 0)
(0.0573562 0.00207742 0)
(0.0565127 0.00207554 0)
(0.0556566 0.00206954 0)
(0.0547896 0.00205954 0)
(0.0539133 0.00204568 0)
(0.0530292 0.00202808 0)
(0.0521392 0.00200689 0)
(0.051245 0.00198224 0)
(0.0503482 0.0019543 0)
(0.0494506 0.00192321 0)
(0.0485539 0.00188916 0)
(0.04766 0.0018523 0)
(0.0467706 0.00181284 0)
(0.0458873 0.00177095 0)
(0.0450119 0.00172683 0)
(0.0441461 0.0016807 0)
(0.0432915 0.00163275 0)
(0.0424496 0.00158319 0)
(0.0416221 0.00153224 0)
(0.0408103 0.0014801 0)
(0.0400156 0.00142698 0)
(0.0392392 0.00137309 0)
(0.0384824 0.00131862 0)
(0.0377462 0.00126375 0)
(0.0370316 0.00120868 0)
(0.0363395 0.00115356 0)
(0.0356706 0.00109857 0)
(0.0350256 0.00104384 0)
(0.0344051 0.000989508 0)
(0.0338094 0.000935706 0)
(0.0332389 0.00088254 0)
(0.0326938 0.000830108 0)
(0.0321744 0.000778496 0)
(0.0316805 0.00072778 0)
(0.0312122 0.000678022 0)
(0.0307693 0.000629277 0)
(0.0303518 0.00058159 0)
(0.0299592 0.000534997 0)
(0.0295912 0.000489526 0)
(0.0292476 0.000445198 0)
(0.0289278 0.00040203 0)
(0.0286314 0.000360033 0)
(0.0283579 0.000319212 0)
(0.0281068 0.000279571 0)
(0.0278774 0.000241108 0)
(0.0276692 0.000203822 0)
(0.0274816 0.000167707 0)
(0.0273139 0.000132756 0)
(0.0271656 9.89615e-05 0)
(0.0270359 6.63154e-05 0)
(0.0269243 3.48081e-05 0)
(0.02683 4.42986e-06 0)
(0.0267525 -2.48294e-05 0)
(0.026691 -5.298e-05 0)
(0.026645 -8.00322e-05 0)
(0.0266137 -0.000105997 0)
(0.0265965 -0.000130884 0)
(0.0265929 -0.000154705 0)
(0.0266021 -0.000177469 0)
(0.0266236 -0.000199189 0)
(0.0266567 -0.000219876 0)
(0.0267009 -0.000239541 0)
(0.0267555 -0.000258197 0)
(0.02682 -0.000275853 0)
(0.0268939 -0.000292529 0)
(0.0269765 -0.000308228 0)
(0.0270674 -0.000322983 0)
(0.027166 -0.00033678 0)
(0.0272718 -0.000349679 0)
(0.0273843 -0.000361633 0)
(0.0275031 -0.000372754 0)
(0.0276277 -0.000382923 0)
(0.0277575 -0.000392365 0)
(0.0278923 -0.000400801 0)
(0.0280315 -0.000408689 0)
(0.028175 -0.000415427 0)
(0.0283218 -0.000421929 0)
(0.0284724 -0.000426966 0)
(0.0286253 -0.000432322 0)
(0.0287818 -0.000435582 0)
(0.0289391 -0.000440143 0)
(0.0291008 -0.000441434 0)
(0.0292605 -0.000445716 0)
(0.0294271 -0.000444686 0)
(0.0295869 -0.000449401 0)
(0.0297592 -0.000445572 0)
(0.0299154 -0.000451553 0)
(0.0300963 -0.000444589 0)
(0.0302427 -0.00045241 0)
(0.0304385 -0.000442882 0)
(0.0305642 -0.000452082 0)
(0.030787 -0.000442558 0)
(0.0308726 -0.000450638 0)
(0.0311427 -0.0004473 0)
(0.0838968 -0.00274364 0)
(0.0844454 -0.00235913 0)
(0.0849134 -0.00198998 0)
(0.0853045 -0.00163522 0)
(0.0856219 -0.00129711 0)
(0.0858698 -0.000974768 0)
(0.086051 -0.00066937 0)
(0.0861696 -0.000380137 0)
(0.0862282 -0.000107468 0)
(0.0862303 0.000149377 0)
(0.0861784 0.000390491 0)
(0.0860757 0.000616609 0)
(0.0859244 0.000828113 0)
(0.0857272 0.00102573 0)
(0.0854862 0.00120999 0)
(0.0852038 0.0013816 0)
(0.0848816 0.00154114 0)
(0.0845219 0.00168928 0)
(0.084126 0.00182658 0)
(0.0836959 0.00195365 0)
(0.083233 0.00207101 0)
(0.0827387 0.00217919 0)
(0.0822143 0.00227866 0)
(0.0816612 0.00236986 0)
(0.0810804 0.00245317 0)
(0.0804733 0.00252897 0)
(0.0798409 0.00259757 0)
(0.0791842 0.00265926 0)
(0.0785043 0.0027143 0)
(0.0778022 0.0027629 0)
(0.0770789 0.00280528 0)
(0.0763355 0.00284159 0)
(0.0755729 0.00287199 0)
(0.0747921 0.00289661 0)
(0.0739943 0.00291557 0)
(0.0731804 0.00292898 0)
(0.0723517 0.00293693 0)
(0.0715091 0.00293952 0)
(0.070654 0.00293685 0)
(0.0697874 0.002929 0)
(0.0689108 0.00291607 0)
(0.0680253 0.00289817 0)
(0.0671324 0.00287541 0)
(0.0662334 0.0028479 0)
(0.0653297 0.00281579 0)
(0.064423 0.00277921 0)
(0.0635146 0.00273833 0)
(0.0626061 0.00269332 0)
(0.0616991 0.00264438 0)
(0.0607952 0.0025917 0)
(0.0598959 0.00253549 0)
(0.0590029 0.00247599 0)
(0.0581177 0.00241345 0)
(0.057242 0.0023481 0)
(0.0563772 0.0022802 0)
(0.0555249 0.00221003 0)
(0.0546865 0.00213785 0)
(0.0538635 0.00206392 0)
(0.0530572 0.00198853 0)
(0.0522688 0.00191194 0)
(0.0514996 0.00183442 0)
(0.0507508 0.00175621 0)
(0.0500232 0.00167757 0)
(0.0493179 0.00159874 0)
(0.0486356 0.00151995 0)
(0.0479771 0.0014414 0)
(0.047343 0.0013633 0)
(0.0467339 0.00128584 0)
(0.04615 0.00120919 0)
(0.0455918 0.00113349 0)
(0.0450594 0.0010589 0)
(0.044553 0.000985533 0)
(0.0440726 0.000913509 0)
(0.043618 0.000842922 0)
(0.0431893 0.000773859 0)
(0.042786 0.000706391 0)
(0.042408 0.000640581 0)
(0.0420548 0.000576479 0)
(0.0417262 0.000514127 0)
(0.0414214 0.000453559 0)
(0.0411402 0.000394799 0)
(0.0408818 0.000337867 0)
(0.0406457 0.000282775 0)
(0.0404313 0.00022953 0)
(0.0402379 0.000178134 0)
(0.0400649 0.000128587 0)
(0.0399114 8.08824e-05 0)
(0.0397769 3.50129e-05 0)
(0.0396606 -9.03267e-06 0)
(0.0395618 -5.12678e-05 0)
(0.0394798 -9.17078e-05 0)
(0.0394138 -0.00013037 0)
(0.0393631 -0.000167274 0)
(0.039327 -0.000202441 0)
(0.0393049 -0.000235892 0)
(0.0392958 -0.000267652 0)
(0.0392993 -0.000297746 0)
(0.0393146 -0.000326199 0)
(0.0393411 -0.000353042 0)
(0.039378 -0.000378299 0)
(0.0394248 -0.000402011 0)
(0.0394808 -0.000424192 0)
(0.0395455 -0.000444903 0)
(0.0396181 -0.000464135 0)
(0.0396984 -0.000481992 0)
(0.0397854 -0.000498408 0)
(0.039879 -0.000513575 0)
(0.0399784 -0.000527305 0)
(0.0400833 -0.000539973 0)
(0.040193 -0.000551137 0)
(0.0403073 -0.000561537 0)
(0.0404255 -0.000570221 0)
(0.0405476 -0.000578645 0)
(0.0406728 -0.000584876 0)
(0.0408008 -0.000591717 0)
(0.0409318 -0.000595413 0)
(0.0410641 -0.000601219 0)
(0.0412001 -0.000602133 0)
(0.0413344 -0.000607674 0)
(0.0414757 -0.000605338 0)
(0.0416087 -0.000611661 0)
(0.0417575 -0.000605401 0)
(0.0418836 -0.000613746 0)
(0.0420453 -0.000603031 0)
(0.0421544 -0.000614098 0)
(0.0423402 -0.000600168 0)
(0.0424134 -0.000611229 0)
(0.0426448 -0.000599487 0)
(0.0988224 -0.00325516 0)
(0.0992138 -0.00279279 0)
(0.0995369 -0.00235 0)
(0.099797 -0.00192518 0)
(0.099996 -0.00152077 0)
(0.100139 -0.00113561 0)
(0.100227 -0.000770781 0)
(0.100265 -0.000425335 0)
(0.100254 -9.948e-05 0)
(0.100199 0.000207656 0)
(0.1001 0.000496381 0)
(0.0999597 0.000767564 0)
(0.0997808 0.00102179 0)
(0.0995649 0.00125991 0)
(0.0993137 0.00148266 0)
(0.0990288 0.00169085 0)
(0.0987117 0.00188523 0)
(0.0983638 0.00206658 0)
(0.0979861 0.00223561 0)
(0.0975801 0.00239302 0)
(0.0971467 0.00253945 0)
(0.0966869 0.00267552 0)
(0.0962017 0.00280176 0)
(0.0956919 0.00291871 0)
(0.0951584 0.00302681 0)
(0.0946019 0.00312648 0)
(0.0940232 0.00321808 0)
(0.093423 0.00330193 0)
(0.092802 0.00337832 0)
(0.092161 0.00344747 0)
(0.0915005 0.0035096 0)
(0.0908214 0.00356487 0)
(0.0901242 0.00361342 0)
(0.0894098 0.00365537 0)
(0.0886788 0.00369081 0)
(0.087932 0.00371982 0)
(0.0871702 0.00374247 0)
(0.0863942 0.00375881 0)
(0.0856049 0.00376888 0)
(0.0848032 0.00377274 0)
(0.08399 0.00377044 0)
(0.0831663 0.00376203 0)
(0.0823332 0.00374757 0)
(0.0814918 0.00372714 0)
(0.0806431 0.00370081 0)
(0.0797884 0.0036687 0)
(0.0789289 0.00363092 0)
(0.0780659 0.00358761 0)
(0.0772006 0.00353892 0)
(0.0763344 0.00348503 0)
(0.0754687 0.00342613 0)
(0.0746048 0.00336244 0)
(0.0737442 0.00329419 0)
(0.0728883 0.00322164 0)
(0.0720384 0.00314504 0)
(0.0711961 0.0030647 0)
(0.0703627 0.00298089 0)
(0.0695395 0.00289393 0)
(0.068728 0.00280414 0)
(0.0679294 0.00271183 0)
(0.0671451 0.00261732 0)
(0.0663762 0.00252095 0)
(0.0656239 0.00242304 0)
(0.0648892 0.0023239 0)
(0.0641732 0.00222385 0)
(0.0634769 0.0021232 0)
(0.0628011 0.00202224 0)
(0.0621465 0.00192124 0)
(0.0615138 0.0018205 0)
(0.0609037 0.00172025 0)
(0.0603166 0.00162073 0)
(0.0597529 0.00152218 0)
(0.059213 0.0014248 0)
(0.058697 0.00132879 0)
(0.058205 0.00123431 0)
(0.0577373 0.00114152 0)
(0.0572936 0.00105057 0)
(0.0568739 0.000961578 0)
(0.0564779 0.000874663 0)
(0.0561056 0.000789921 0)
(0.0557564 0.000707433 0)
(0.0554301 0.000627273 0)
(0.0551262 0.000549498 0)
(0.0548442 0.000474158 0)
(0.0545836 0.00040129 0)
(0.0543438 0.000330924 0)
(0.0541242 0.000263078 0)
(0.0539242 0.000197766 0)
(0.0537432 0.000134992 0)
(0.0535804 7.47554e-05 0)
(0.0534353 1.70475e-05 0)
(0.053307 -3.81446e-05 0)
(0.0531949 -9.08389e-05 0)
(0.0530982 -0.000141059 0)
(0.0530163 -0.00018883 0)
(0.0529485 -0.000234185 0)
(0.052894 -0.000277158 0)
(0.0528521 -0.000317786 0)
(0.0528222 -0.000356112 0)
(0.0528036 -0.000392175 0)
(0.0527956 -0.000426032 0)
(0.0527976 -0.000457713 0)
(0.052809 -0.000487299 0)
(0.052829 -0.000514798 0)
(0.0528572 -0.000540337 0)
(0.0528929 -0.000563864 0)
(0.0529356 -0.000585602 0)
(0.0529847 -0.000605367 0)
(0.0530399 -0.000623584 0)
(0.0531003 -0.000639785 0)
(0.0531659 -0.000654809 0)
(0.0532357 -0.000667602 0)
(0.05331 -0.000679836 0)
(0.0533875 -0.000689299 0)
(0.0534688 -0.000699276 0)
(0.0535525 -0.000705331 0)
(0.0536392 -0.000713795 0)
(0.0537279 -0.00071612 0)
(0.0538184 -0.000724117 0)
(0.0539115 -0.000722085 0)
(0.0540034 -0.000730947 0)
(0.0541017 -0.000723834 0)
(0.054191 -0.000734633 0)
(0.054298 -0.000722617 0)
(0.0543763 -0.000734983 0)
(0.0545016 -0.000718942 0)
(0.0545527 -0.00073137 0)
(0.0547156 -0.000715916 0)
(0.109873 -0.00359683 0)
(0.110059 -0.00307282 0)
(0.110198 -0.00257268 0)
(0.110295 -0.00209373 0)
(0.110351 -0.00163851 0)
(0.110371 -0.00120555 0)
(0.110355 -0.000795609 0)
(0.110307 -0.000407623 0)
(0.110228 -4.1446e-05 0)
(0.110121 0.000303883 0)
(0.109985 0.000628963 0)
(0.109823 0.000934753 0)
(0.109636 0.00122206 0)
(0.109425 0.00149184 0)
(0.10919 0.00174497 0)
(0.108933 0.00198236 0)
(0.108654 0.00220489 0)
(0.108353 0.00241338 0)
(0.108032 0.00260866 0)
(0.10769 0.00279147 0)
(0.107328 0.00296252 0)
(0.106947 0.00312246 0)
(0.106546 0.0032719 0)
(0.106126 0.00341138 0)
(0.105687 0.00354138 0)
(0.105229 0.00366234 0)
(0.104753 0.00377465 0)
(0.10426 0.00387862 0)
(0.103748 0.00397455 0)
(0.103219 0.00406267 0)
(0.102673 0.00414318 0)
(0.102109 0.00421624 0)
(0.10153 0.00428198 0)
(0.100934 0.0043405 0)
(0.100322 0.00439186 0)
(0.0996948 0.00443612 0)
(0.0990527 0.00447331 0)
(0.0983963 0.00450345 0)
(0.0977261 0.00452656 0)
(0.0970428 0.00454264 0)
(0.0963469 0.0045517 0)
(0.0956392 0.00455375 0)
(0.0949206 0.0045488 0)
(0.0941917 0.0045369 0)
(0.0934536 0.00451806 0)
(0.0927071 0.00449236 0)
(0.0919532 0.00445987 0)
(0.091193 0.00442068 0)
(0.0904275 0.0043749 0)
(0.0896579 0.00432269 0)
(0.0888853 0.0042642 0)
(0.0881109 0.00419963 0)
(0.0873359 0.00412918 0)
(0.0865616 0.0040531 0)
(0.0857892 0.00397164 0)
(0.0850201 0.00388509 0)
(0.0842554 0.00379375 0)
(0.0834965 0.00369794 0)
(0.0827445 0.003598 0)
(0.0820008 0.00349428 0)
(0.0812666 0.00338714 0)
(0.080543 0.00327695 0)
(0.0798311 0.00316408 0)
(0.0791321 0.00304892 0)
(0.078447 0.00293183 0)
(0.0777768 0.0028132 0)
(0.0771224 0.0026934 0)
(0.0764846 0.00257278 0)
(0.0758643 0.0024517 0)
(0.0752621 0.00233049 0)
(0.0746786 0.00220948 0)
(0.0741144 0.00208899 0)
(0.0735699 0.0019693 0)
(0.0730456 0.0018507 0)
(0.0725417 0.00173344 0)
(0.0720585 0.00161776 0)
(0.0715961 0.00150389 0)
(0.0711545 0.00139202 0)
(0.0707338 0.00128236 0)
(0.0703339 0.00117505 0)
(0.0699546 0.00107025 0)
(0.0695957 0.000968102 0)
(0.0692571 0.000868709 0)
(0.0689382 0.000772173 0)
(0.0686389 0.000678581 0)
(0.0683586 0.000588003 0)
(0.0680969 0.000500495 0)
(0.0678534 0.000416103 0)
(0.0676274 0.000334858 0)
(0.0674185 0.000256782 0)
(0.067226 0.000181886 0)
(0.0670495 0.000110171 0)
(0.0668882 4.1631e-05 0)
(0.0667415 -2.37515e-05 0)
(0.0666089 -8.59989e-05 0)
(0.0664896 -0.000145142 0)
(0.0663831 -0.000201218 0)
(0.0662887 -0.00025427 0)
(0.0662059 -0.000304346 0)
(0.0661339 -0.000351499 0)
(0.0660721 -0.000395791 0)
(0.06602 -0.000437276 0)
(0.065977 -0.000476035 0)
(0.0659424 -0.000512116 0)
(0.0659158 -0.000545627 0)
(0.0658966 -0.00057659 0)
(0.0658842 -0.000605165 0)
(0.0658781 -0.000631311 0)
(0.0658781 -0.000655295 0)
(0.0658831 -0.000676927 0)
(0.0658935 -0.000696699 0)
(0.0659078 -0.000714108 0)
(0.065927 -0.000730092 0)
(0.0659489 -0.000743531 0)
(0.0659753 -0.000756226 0)
(0.0660033 -0.000765863 0)
(0.0660358 -0.000775885 0)
(0.0660683 -0.000781745 0)
(0.0661056 -0.000789896 0)
(0.0661418 -0.00079176 0)
(0.066182 -0.000799128 0)
(0.0662222 -0.000796363 0)
(0.0662622 -0.000804501 0)
(0.0663086 -0.000795621 0)
(0.0663441 -0.000806945 0)
(0.0664 -0.000791596 0)
(0.066421 -0.000803611 0)
(0.0665007 -0.000786771 0)
(0.115295 -0.00367913 0)
(0.115243 -0.00312021 0)
(0.115169 -0.00258803 0)
(0.115084 -0.00208025 0)
(0.114984 -0.00159829 0)
(0.114875 -0.00114103 0)
(0.114754 -0.000708389 0)
(0.114626 -0.000299446 0)
(0.114489 8.65134e-05 0)
(0.114345 0.000450434 0)
(0.114192 0.000793295 0)
(0.114033 0.00111609 0)
(0.113866 0.00141989 0)
(0.113691 0.00170568 0)
(0.113508 0.00197453 0)
(0.113317 0.00222739 0)
(0.113117 0.00246523 0)
(0.112909 0.00268896 0)
(0.11269 0.00289943 0)
(0.112462 0.00309743 0)
(0.112223 0.00328372 0)
(0.111973 0.00345895 0)
(0.111711 0.00362376 0)
(0.111438 0.00377868 0)
(0.111153 0.00392422 0)
(0.110854 0.00406079 0)
(0.110543 0.00418877 0)
(0.110219 0.00430847 0)
(0.109881 0.00442015 0)
(0.109528 0.00452403 0)
(0.109162 0.00462028 0)
(0.108781 0.00470901 0)
(0.108386 0.00479032 0)
(0.107977 0.00486426 0)
(0.107552 0.00493085 0)
(0.107113 0.00499009 0)
(0.10666 0.00504197 0)
(0.106192 0.00508645 0)
(0.10571 0.00512347 0)
(0.105214 0.005153 0)
(0.104704 0.00517497 0)
(0.104181 0.00518933 0)
(0.103645 0.00519605 0)
(0.103097 0.00519508 0)
(0.102537 0.0051864 0)
(0.101966 0.00517002 0)
(0.101385 0.00514595 0)
(0.100794 0.00511423 0)
(0.100194 0.00507494 0)
(0.0995863 0.00502816 0)
(0.0989716 0.00497402 0)
(0.098351 0.00491268 0)
(0.0977255 0.00484431 0)
(0.097096 0.00476913 0)
(0.0964638 0.00468738 0)
(0.0958298 0.00459934 0)
(0.0951953 0.00450529 0)
(0.0945614 0.00440556 0)
(0.0939292 0.00430051 0)
(0.0932999 0.00419048 0)
(0.0926745 0.00407587 0)
(0.0920544 0.00395708 0)
(0.0914404 0.00383451 0)
(0.0908337 0.00370859 0)
(0.0902354 0.00357974 0)
(0.0896463 0.00344838 0)
(0.0890674 0.00331495 0)
(0.0884997 0.00317987 0)
(0.0879438 0.00304356 0)
(0.0874006 0.00290642 0)
(0.0868708 0.00276885 0)
(0.086355 0.00263124 0)
(0.0858538 0.00249396 0)
(0.0853676 0.00235735 0)
(0.0848969 0.00222176 0)
(0.0844419 0.0020875 0)
(0.0840031 0.00195487 0)
(0.0835805 0.00182414 0)
(0.0831743 0.00169556 0)
(0.0827847 0.00156938 0)
(0.0824115 0.0014458 0)
(0.0820547 0.00132502 0)
(0.0817144 0.00120721 0)
(0.0813901 0.00109252 0)
(0.0810819 0.000981091 0)
(0.0807893 0.000873029 0)
(0.0805122 0.000768437 0)
(0.0802501 0.000667393 0)
(0.0800027 0.000569963 0)
(0.0797696 0.000476195 0)
(0.0795503 0.000386124 0)
(0.0793445 0.000299771 0)
(0.0791516 0.000217145 0)
(0.0789711 0.000138242 0)
(0.0788026 6.30468e-05 0)
(0.0786455 -8.4643e-06 0)
(0.0784994 -7.63266e-05 0)
(0.0783636 -0.000140582 0)
(0.0782378 -0.000201285 0)
(0.0781214 -0.00025849 0)
(0.0780138 -0.000312269 0)
(0.0779147 -0.000362683 0)
(0.0778234 -0.000409829 0)
(0.0777395 -0.000453758 0)
(0.0776625 -0.000494607 0)
(0.077592 -0.000532391 0)
(0.0775276 -0.000567322 0)
(0.0774687 -0.00059932 0)
(0.077415 -0.000628754 0)
(0.0773661 -0.00065533 0)
(0.0773217 -0.000679736 0)
(0.0772811 -0.000701227 0)
(0.0772445 -0.00072115 0)
(0.0772109 -0.000737824 0)
(0.0771808 -0.000753928 0)
(0.0771528 -0.000765898 0)
(0.0771282 -0.000779068 0)
(0.0771045 -0.00078615 0)
(0.0770847 -0.000797664 0)
(0.077064 -0.000799142 0)
(0.0770483 -0.000810882 0)
(0.0770292 -0.000805479 0)
(0.0770179 -0.000819071 0)
(0.0769997 -0.00080847 0)
(0.0769899 -0.000820025 0)
(0.0769741 -0.000806009 0)
(0.0769617 -0.000817063 0)
(0.0769535 -0.000801277 0)
(0.11362 -0.00350821 0)
(0.113323 -0.00294629 0)
(0.113038 -0.00241403 0)
(0.112776 -0.00190822 0)
(0.11253 -0.00142904 0)
(0.112306 -0.000975651 0)
(0.1121 -0.000546951 0)
(0.111914 -0.000142196 0)
(0.111744 0.000239941 0)
(0.111592 0.000600361 0)
(0.111454 0.00094039 0)
(0.111331 0.00126102 0)
(0.11122 0.00156351 0)
(0.11112 0.00184886 0)
(0.111029 0.00211822 0)
(0.110946 0.00237253 0)
(0.110869 0.00261281 0)
(0.110798 0.00283992 0)
(0.110729 0.00305473 0)
(0.110663 0.003258 0)
(0.110597 0.00345045 0)
(0.11053 0.00363271 0)
(0.110461 0.00380536 0)
(0.110389 0.00396891 0)
(0.110313 0.00412381 0)
(0.110231 0.00427043 0)
(0.110143 0.00440911 0)
(0.110047 0.0045401 0)
(0.109942 0.00466363 0)
(0.109829 0.00477986 0)
(0.109705 0.00488889 0)
(0.109571 0.0049908 0)
(0.109425 0.00508563 0)
(0.109267 0.00517336 0)
(0.109097 0.00525398 0)
(0.108913 0.00532741 0)
(0.108716 0.00539357 0)
(0.108506 0.00545237 0)
(0.108281 0.0055037 0)
(0.108042 0.00554743 0)
(0.107789 0.00558344 0)
(0.107521 0.00561162 0)
(0.107239 0.00563184 0)
(0.106942 0.005644 0)
(0.106632 0.00564802 0)
(0.106308 0.00564382 0)
(0.10597 0.00563134 0)
(0.105619 0.00561057 0)
(0.105255 0.00558151 0)
(0.10488 0.00554419 0)
(0.104493 0.00549868 0)
(0.104095 0.00544508 0)
(0.103688 0.00538352 0)
(0.103271 0.00531417 0)
(0.102846 0.00523724 0)
(0.102414 0.00515298 0)
(0.101975 0.00506164 0)
(0.10153 0.00496355 0)
(0.101081 0.00485903 0)
(0.100628 0.00474845 0)
(0.100173 0.0046322 0)
(0.0997168 0.00451069 0)
(0.0992596 0.00438436 0)
(0.098803 0.00425363 0)
(0.0983479 0.00411899 0)
(0.0978951 0.00398088 0)
(0.0974458 0.00383979 0)
(0.0970006 0.00369617 0)
(0.0965606 0.00355052 0)
(0.0961264 0.00340329 0)
(0.0956989 0.00325493 0)
(0.0952787 0.0031059 0)
(0.0948665 0.00295664 0)
(0.0944628 0.00280755 0)
(0.0940682 0.00265904 0)
(0.0936831 0.0025115 0)
(0.093308 0.00236529 0)
(0.0929432 0.00222074 0)
(0.0925889 0.00207818 0)
(0.0922454 0.0019379 0)
(0.0919128 0.00180017 0)
(0.0915913 0.00166525 0)
(0.091281 0.00153335 0)
(0.0909817 0.00140469 0)
(0.0906936 0.00127945 0)
(0.0904165 0.00115777 0)
(0.0901502 0.00103981 0)
(0.0898947 0.000925669 0)
(0.0896497 0.000815454 0)
(0.089415 0.000709241 0)
(0.0891903 0.00060709 0)
(0.0889755 0.000509042 0)
(0.0887701 0.000415125 0)
(0.0885739 0.000325351 0)
(0.0883865 0.000239715 0)
(0.0882076 0.000158202 0)
(0.0880368 8.07835e-05 0)
(0.0878739 7.41949e-06 0)
(0.0877184 -6.19422e-05 0)
(0.0875699 -0.000127359 0)
(0.0874282 -0.000188906 0)
(0.0872928 -0.000246652 0)
(0.0871635 -0.000300694 0)
(0.0870397 -0.000351106 0)
(0.0869214 -0.000398014 0)
(0.0868078 -0.000441475 0)
(0.0866992 -0.000481667 0)