/*--------------------------------*- C++ -*----------------------------------*\
| =========                 |                                                 |
| \\      /  F ield         | OpenFOAM: The Open Source CFD Toolbox           |
|  \\    /   O peration     | Version:  4.1                                   |
|   \\  /    A nd           | Web:      www.OpenFOAM.org                      |
|    \\/     M anipulation  |                                                 |
\*---------------------------------------------------------------------------*/
FoamFile
{
    version     2.0;
    format      ascii;
    class       volScalarField;
    location    "1440";
    object      p;
}
// * * * * * * * * * * * * * * * * * * * * * * * * * * * * * * * * * * * * * //

dimensions      [1 -1 -2 0 0 0 0];

internalField   nonuniform List<scalar> 
1275
(
0.714273
0.714275
0.714279
0.714281
0.714285
0.713221
0.713227
0.713234
0.713241
0.713248
0.713255
0.713263
0.713271
0.71328
0.713289
0.713298
0.713308
0.713318
0.713329
0.71334
0.713352
0.713364
0.713376
0.713389
0.713402
0.713416
0.71343
0.713445
0.71346
0.713475
0.713491
0.713507
0.713524
0.713541
0.713558
0.713576
0.713594
0.713612
0.71363
0.713649
0.713667
0.713686
0.713704
0.713723
0.713741
0.713759
0.713777
0.713794
0.713811
0.713828
0.713844
0.71386
0.713875
0.71389
0.713904
0.713917
0.71393
0.713942
0.713954
0.713965
0.713975
0.713985
0.713994
0.714002
0.714011
0.714018
0.714025
0.714032
0.714038
0.714044
0.71405
0.714055
0.71406
0.714065
0.71407
0.714075
0.714079
0.714083
0.714087
0.714091
0.714095
0.714099
0.714103
0.714107
0.714111
0.714115
0.714119
0.714122
0.714126
0.71413
0.714134
0.714138
0.714142
0.714146
0.71415
0.714154
0.714158
0.714162
0.714166
0.71417
0.714174
0.714178
0.714182
0.714186
0.71419
0.714194
0.714198
0.714202
0.714206
0.714209
0.714213
0.714217
0.714221
0.714225
0.714228
0.714232
0.714236
0.714239
0.714243
0.714247
0.71425
0.714253
0.714257
0.71426
0.714263
0.714267
0.714269
0.714273
0.714275
0.714279
0.714281
0.714284
0.713211
0.713217
0.713224
0.713231
0.713238
0.713246
0.713254
0.713262
0.713271
0.71328
0.713289
0.713299
0.713309
0.71332
0.713331
0.713342
0.713354
0.713366
0.713379
0.713392
0.713406
0.71342
0.713434
0.71345
0.713465
0.713481
0.713498
0.713514
0.713532
0.713549
0.713568
0.713586
0.713605
0.713624
0.713643
0.713662
0.713682
0.713702
0.713721
0.713741
0.71376
0.713779
0.713798
0.713817
0.713835
0.713853
0.71387
0.713887
0.713903
0.713918
0.713933
0.713947
0.713961
0.713974
0.713986
0.713997
0.714008
0.714018
0.714027
0.714035
0.714043
0.714051
0.714058
0.714064
0.71407
0.714076
0.714081
0.714086
0.71409
0.714095
0.714099
0.714103
0.714106
0.71411
0.714113
0.714116
0.71412
0.714123
0.714126
0.714129
0.714132
0.714135
0.714138
0.714141
0.714144
0.714147
0.714151
0.714154
0.714157
0.71416
0.714164
0.714167
0.71417
0.714174
0.714177
0.714181
0.714184
0.714188
0.714191
0.714195
0.714198
0.714202
0.714205
0.714209
0.714212
0.714216
0.714219
0.714223
0.714227
0.71423
0.714234
0.714237
0.71424
0.714244
0.714247
0.71425
0.714254
0.714257
0.71426
0.714263
0.714267
0.71427
0.714273
0.714276
0.714278
0.714281
0.714283
0.713206
0.713213
0.713219
0.713226
0.713234
0.713241
0.713249
0.713257
0.713266
0.713275
0.713284
0.713294
0.713304
0.713314
0.713325
0.713336
0.713348
0.71336
0.713373
0.713386
0.713399
0.713413
0.713428
0.713443
0.713458
0.713474
0.713491
0.713508
0.713525
0.713543
0.713562
0.71358
0.7136
0.713619
0.713639
0.713659
0.713679
0.713699
0.71372
0.71374
0.713761
0.713781
0.713801
0.713821
0.713841
0.71386
0.713878
0.713896
0.713914
0.713931
0.713947
0.713962
0.713977
0.713991
0.714004
0.714016
0.714028
0.714039
0.714049
0.714058
0.714066
0.714074
0.714082
0.714088
0.714094
0.7141
0.714105
0.71411
0.714114
0.714118
0.714121
0.714125
0.714128
0.714131
0.714134
0.714136
0.714139
0.714141
0.714144
0.714146
0.714148
0.714151
0.714153
0.714155
0.714158
0.71416
0.714163
0.714165
0.714168
0.71417
0.714173
0.714176
0.714179
0.714181
0.714184
0.714187
0.71419
0.714193
0.714196
0.714199
0.714202
0.714206
0.714209
0.714212
0.714215
0.714219
0.714222
0.714225
0.714228
0.714232
0.714235
0.714238
0.714241
0.714245
0.714248
0.714251
0.714254
0.714257
0.714261
0.714264
0.714267
0.71427
0.714273
0.714276
0.714278
0.714282
0.714283
0.713204
0.713211
0.713217
0.713224
0.713232
0.713239
0.713247
0.713255
0.713264
0.713273
0.713282
0.713292
0.713302
0.713312
0.713323
0.713334
0.713346
0.713358
0.71337
0.713383
0.713397
0.713411
0.713425
0.71344
0.713455
0.713471
0.713488
0.713505
0.713522
0.71354
0.713559
0.713578
0.713597
0.713617
0.713637
0.713657
0.713678
0.713699
0.71372
0.713741
0.713762
0.713784
0.713805
0.713825
0.713846
0.713866
0.713886
0.713905
0.713923
0.713941
0.713958
0.713975
0.71399
0.714005
0.714019
0.714033
0.714045
0.714056
0.714067
0.714077
0.714086
0.714094
0.714102
0.714109
0.714115
0.71412
0.714125
0.71413
0.714134
0.714138
0.714141
0.714144
0.714147
0.714149
0.714152
0.714154
0.714156
0.714158
0.714159
0.714161
0.714163
0.714164
0.714166
0.714168
0.71417
0.714171
0.714173
0.714175
0.714177
0.714179
0.714181
0.714183
0.714186
0.714188
0.71419
0.714193
0.714195
0.714198
0.714201
0.714203
0.714206
0.714209
0.714212
0.714215
0.714218
0.714221
0.714224
0.714227
0.71423
0.714233
0.714236
0.714239
0.714242
0.714245
0.714248
0.714251
0.714254
0.714258
0.714261
0.714264
0.714267
0.71427
0.714272
0.714276
0.714278
0.714282
0.714282
0.713204
0.713211
0.713217
0.713224
0.713232
0.713239
0.713247
0.713255
0.713264
0.713273
0.713282
0.713291
0.713301
0.713312
0.713322
0.713333
0.713345
0.713357
0.713369
0.713382
0.713396
0.71341
0.713424
0.713439
0.713454
0.71347
0.713487
0.713504
0.713521
0.713539
0.713558
0.713577
0.713596
0.713616
0.713636
0.713657
0.713678
0.713699
0.713721
0.713742
0.713764
0.713785
0.713807
0.713828
0.713849
0.71387
0.71389
0.71391
0.71393
0.713948
0.713966
0.713983
0.714
0.714015
0.71403
0.714044
0.714057
0.714069
0.71408
0.714091
0.7141
0.714109
0.714116
0.714124
0.71413
0.714136
0.714141
0.714145
0.714149
0.714153
0.714156
0.714159
0.714161
0.714163
0.714165
0.714167
0.714169
0.71417
0.714171
0.714173
0.714174
0.714175
0.714176
0.714178
0.714179
0.71418
0.714181
0.714183
0.714184
0.714186
0.714188
0.714189
0.714191
0.714193
0.714195
0.714197
0.714199
0.714202
0.714204
0.714206
0.714209
0.714211
0.714214
0.714217
0.714219
0.714222
0.714225
0.714228
0.714231
0.714234
0.714237
0.71424
0.714243
0.714246
0.714249
0.714252
0.714255
0.714258
0.714261
0.714264
0.714267
0.71427
0.714272
0.714276
0.714278
0.714282
0.714282
0.713204
0.713211
0.713218
0.713225
0.713232
0.713239
0.713247
0.713256
0.713264
0.713273
0.713282
0.713292
0.713302
0.713312
0.713323
0.713334
0.713345
0.713357
0.71337
0.713383
0.713396
0.71341
0.713424
0.713439
0.713455
0.713471
0.713487
0.713504
0.713522
0.71354
0.713558
0.713577
0.713597
0.713617
0.713637
0.713658
0.713679
0.7137
0.713722
0.713744
0.713766
0.713788
0.713809
0.713831
0.713853
0.713874
0.713895
0.713915
0.713935
0.713954
0.713972
0.71399
0.714007
0.714023
0.714038
0.714052
0.714066
0.714078
0.71409
0.7141
0.71411
0.714119
0.714127
0.714134
0.714141
0.714147
0.714152
0.714156
0.71416
0.714164
0.714167
0.714169
0.714171
0.714173
0.714175
0.714177
0.714178
0.714179
0.71418
0.714181
0.714182
0.714183
0.714183
0.714184
0.714185
0.714186
0.714187
0.714188
0.714189
0.714191
0.714192
0.714193
0.714195
0.714197
0.714198
0.7142
0.714202
0.714204
0.714206
0.714208
0.714211
0.714213
0.714215
0.714218
0.714221
0.714223
0.714226
0.714229
0.714231
0.714234
0.714237
0.71424
0.714243
0.714246
0.714249
0.714252
0.714255
0.714258
0.714261
0.714264
0.714266
0.71427
0.714272
0.714276
0.714278
0.714282
0.714282
0.713205
0.713212
0.713218
0.713225
0.713233
0.71324
0.713248
0.713256
0.713265
0.713274
0.713283
0.713292
0.713302
0.713313
0.713324
0.713335
0.713346
0.713358
0.713371
0.713384
0.713397
0.713411
0.713425
0.71344
0.713456
0.713472
0.713488
0.713505
0.713523
0.713541
0.713559
0.713578
0.713598
0.713618
0.713638
0.713659
0.71368
0.713702
0.713723
0.713745
0.713767
0.713789
0.713811
0.713833
0.713854
0.713876
0.713897
0.713917
0.713937
0.713957
0.713975
0.713993
0.714011
0.714027
0.714042
0.714057
0.71407
0.714083
0.714095
0.714106
0.714116
0.714125
0.714133
0.71414
0.714147
0.714153
0.714158
0.714162
0.714166
0.71417
0.714173
0.714175
0.714177
0.714179
0.714181
0.714182
0.714183
0.714184
0.714185
0.714186
0.714186
0.714187
0.714188
0.714188
0.714189
0.71419
0.714191
0.714191
0.714192
0.714194
0.714195
0.714196
0.714197
0.714199
0.7142
0.714202
0.714204
0.714206
0.714208
0.71421
0.714212
0.714214
0.714216
0.714219
0.714221
0.714224
0.714226
0.714229
0.714232
0.714234
0.714237
0.71424
0.714243
0.714246
0.714249
0.714252
0.714255
0.714258
0.71426
0.714264
0.714266
0.71427
0.714272
0.714276
0.714278
0.714282
0.714282
0.713205
0.713212
0.713219
0.713226
0.713233
0.713241
0.713249
0.713257
0.713265
0.713274
0.713283
0.713293
0.713303
0.713314
0.713324
0.713335
0.713347
0.713359
0.713372
0.713385
0.713398
0.713412
0.713427
0.713441
0.713457
0.713473
0.713489
0.713507
0.713524
0.713542
0.713561
0.71358
0.7136
0.71362
0.71364
0.713661
0.713682
0.713704
0.713725
0.713747
0.713769
0.713791
0.713813
0.713835
0.713857
0.713878
0.713899
0.71392
0.71394
0.71396
0.713978
0.713996
0.714014
0.71403
0.714046
0.71406
0.714074
0.714087
0.714099
0.71411
0.714119
0.714129
0.714137
0.714144
0.714151
0.714157
0.714162
0.714166
0.71417
0.714173
0.714176
0.714179
0.714181
0.714183
0.714184
0.714185
0.714186
0.714187
0.714188
0.714188
0.714189
0.714189
0.71419
0.71419
0.714191
0.714192
0.714192
0.714193
0.714194
0.714195
0.714196
0.714197
0.714198
0.7142
0.714201
0.714203
0.714204
0.714206
0.714208
0.71421
0.714212
0.714214
0.714216
0.714219
0.714221
0.714224
0.714226
0.714229
0.714232
0.714234
0.714237
0.71424
0.714243
0.714246
0.714248
0.714251
0.714254
0.714257
0.71426
0.714264
0.714266
0.71427
0.714272
0.714276
0.714277
0.714282
0.714283
0.713206
0.713212
0.713219
0.713226
0.713233
0.713241
0.713249
0.713257
0.713266
0.713275
0.713284
0.713294
0.713304
0.713314
0.713325
0.713336
0.713348
0.71336
0.713372
0.713385
0.713399
0.713413
0.713427
0.713442
0.713458
0.713474
0.71349
0.713507
0.713525
0.713543
0.713562
0.713581
0.713601
0.713621
0.713641
0.713662
0.713683
0.713705
0.713726
0.713748
0.71377
0.713792
0.713814
0.713836
0.713858
0.713879
0.7139
0.713921
0.713941
0.71396
0.713979
0.713997
0.714014
0.714031
0.714046
0.714061
0.714075
0.714088
0.714099
0.71411
0.71412
0.714129
0.714138
0.714145
0.714152
0.714158
0.714163
0.714167
0.714171
0.714174
0.714177
0.71418
0.714182
0.714183
0.714185
0.714186
0.714187
0.714188
0.714189
0.714189
0.71419
0.71419
0.714191
0.714191
0.714192
0.714192
0.714193
0.714194
0.714194
0.714195
0.714196
0.714197
0.714199
0.7142
0.714201
0.714203
0.714205
0.714206
0.714208
0.71421
0.714212
0.714214
0.714217
0.714219
0.714221
0.714224
0.714226
0.714229
0.714232
0.714234
0.714237
0.71424
0.714243
0.714246
0.714248
0.714251
0.714254
0.714257
0.71426
0.714263
0.714266
0.71427
0.714272
0.714276
0.714277
0.714282
0.714283
0.713205
0.713212
0.713219
0.713226
0.713233
0.713241
0.713249
0.713257
0.713266
0.713274
0.713284
0.713293
0.713303
0.713314
0.713325
0.713336
0.713348
0.71336
0.713372
0.713386
0.713399
0.713413
0.713428
0.713443
0.713458
0.713474
0.713491
0.713508
0.713526
0.713544
0.713563
0.713582
0.713602
0.713622
0.713642
0.713663
0.713685
0.713706
0.713728
0.71375
0.713772
0.713794
0.713816
0.713838
0.71386
0.713881
0.713902
0.713923
0.713943
0.713963
0.713981
0.713999
0.714017
0.714033
0.714049
0.714063
0.714077
0.71409
0.714101
0.714112
0.714122
0.714131
0.71414
0.714147
0.714153
0.714159
0.714164
0.714169
0.714173
0.714176
0.714179
0.714181
0.714183
0.714185
0.714186
0.714187
0.714188
0.714189
0.714189
0.71419
0.71419
0.714191
0.714191
0.714191
0.714192
0.714192
0.714193
0.714194
0.714194
0.714195
0.714196
0.714197
0.714199
0.7142
0.714201
0.714203
0.714204
0.714206
0.714208
0.71421
0.714212
0.714214
0.714216
0.714219
0.714221
0.714223
0.714226
0.714229
0.714231
0.714234
0.714237
0.714239
0.714242
0.714245
0.714248
0.714251
0.714254
0.714257
0.71426
0.714263
0.714266
0.714269
0.714271
0.714276
0.714277
0.714282
0.714283
)
;

boundaryField
{
    inlet
    {
        type            zeroGradient;
    }
    outlet
    {
        type            fixedValue;
        value           uniform 0.714286;
    }
    walls
    {
        type            zeroGradient;
    }
    symwall
    {
        type            empty;
    }
    procBoundary3to1
    {
        type            processor;
        value           nonuniform List<scalar> 
128
(
0.714273
0.714275
0.71428
0.714281
0.714286
0.713239
0.713245
0.713251
0.713257
0.713264
0.713271
0.713278
0.713286
0.713295
0.713304
0.713313
0.713323
0.713333
0.713344
0.713355
0.713366
0.713378
0.713391
0.713404
0.713417
0.713431
0.713445
0.713459
0.713474
0.71349
0.713505
0.713521
0.713537
0.713554
0.713571
0.713588
0.713605
0.713622
0.713639
0.713657
0.713674
0.713691
0.713708
0.713725
0.713742
0.713759
0.713775
0.713791
0.713806
0.713821
0.713836
0.71385
0.713864
0.713877
0.713889
0.713901
0.713913
0.713924
0.713934
0.713944
0.713953
0.713962
0.713971
0.713979
0.713986
0.713994
0.714001
0.714007
0.714013
0.71402
0.714025
0.714031
0.714036
0.714042
0.714047
0.714052
0.714057
0.714062
0.714066
0.714071
0.714076
0.71408
0.714085
0.71409
0.714094
0.714099
0.714103
0.714108
0.714112
0.714117
0.714121
0.714126
0.714131
0.714135
0.71414
0.714144
0.714149
0.714153
0.714158
0.714163
0.714167
0.714172
0.714176
0.714181
0.714185
0.714189
0.714194
0.714198
0.714202
0.714206
0.714211
0.714215
0.714219
0.714223
0.714227
0.714231
0.714235
0.714238
0.714242
0.714246
0.714249
0.714253
0.714256
0.71426
0.714263
0.714267
0.714269
0.714269
)
;
    }
    procBoundary3to2
    {
        type            processor;
        value           nonuniform List<scalar> 10(0.713215 0.713205 0.7132 0.713198 0.713198 0.713198 0.713199 0.713199 0.713199 0.713199);
    }
}


// ************************************************************************* //
