/*--------------------------------*- C++ -*----------------------------------*\
| =========                 |                                                 |
| \\      /  F ield         | OpenFOAM: The Open Source CFD Toolbox           |
|  \\    /   O peration     | Version:  4.1                                   |
|   \\  /    A nd           | Web:      www.OpenFOAM.org                      |
|    \\/     M anipulation  |                                                 |
\*---------------------------------------------------------------------------*/
FoamFile
{
    version     2.0;
    format      ascii;
    class       volScalarField;
    location    "2490";
    object      p;
}
// * * * * * * * * * * * * * * * * * * * * * * * * * * * * * * * * * * * * * //

dimensions      [1 -1 -2 0 0 0 0];

internalField   nonuniform List<scalar> 
1275
(
0.711999
0.711998
0.711998
0.711998
0.711997
0.711997
0.711996
0.711996
0.711996
0.711996
0.711995
0.711996
0.711995
0.711996
0.711996
0.711997
0.711997
0.711998
0.711998
0.711999
0.712
0.712001
0.712003
0.712004
0.712005
0.712007
0.712009
0.712011
0.712013
0.712015
0.712018
0.712021
0.712023
0.712026
0.712029
0.712033
0.712036
0.712039
0.712043
0.712047
0.712051
0.712055
0.71206
0.712064
0.712069
0.712074
0.712079
0.712084
0.71209
0.712095
0.712101
0.712107
0.712113
0.71212
0.712126
0.712133
0.71214
0.712148
0.712155
0.712163
0.712172
0.71218
0.712189
0.712198
0.712208
0.712218
0.712229
0.712241
0.712253
0.712266
0.71228
0.712296
0.712312
0.71233
0.71235
0.712371
0.712395
0.712421
0.712449
0.712481
0.712515
0.712552
0.712593
0.712637
0.712685
0.712736
0.712791
0.712848
0.712908
0.712971
0.713035
0.713101
0.713167
0.713232
0.713297
0.713359
0.713419
0.713475
0.713527
0.713575
0.713617
0.713654
0.713686
0.713712
0.713733
0.713748
0.713758
0.713764
0.713765
0.713762
0.713756
0.713747
0.713735
0.713721
0.713706
0.71369
0.713672
0.713655
0.713637
0.713619
0.713602
0.713585
0.711998
0.711997
0.711997
0.711997
0.711996
0.711997
0.711996
0.711997
0.711996
0.711997
0.711996
0.711997
0.711996
0.711997
0.711997
0.711997
0.711998
0.711998
0.711999
0.712
0.712001
0.712002
0.712003
0.712005
0.712006
0.712008
0.71201
0.712012
0.712014
0.712016
0.712018
0.712021
0.712024
0.712027
0.71203
0.712033
0.712036
0.71204
0.712044
0.712048
0.712052
0.712056
0.71206
0.712065
0.71207
0.712075
0.71208
0.712085
0.71209
0.712096
0.712102
0.712108
0.712114
0.712121
0.712127
0.712134
0.712141
0.712149
0.712156
0.712164
0.712173
0.712181
0.71219
0.7122
0.712209
0.71222
0.712231
0.712242
0.712255
0.712268
0.712282
0.712297
0.712313
0.712331
0.71235
0.712372
0.712395
0.71242
0.712448
0.712479
0.712512
0.712549
0.712589
0.712633
0.71268
0.71273
0.712784
0.712842
0.712902
0.712964
0.713028
0.713094
0.71316
0.713225
0.71329
0.713352
0.713412
0.713468
0.713521
0.713568
0.713611
0.713648
0.71368
0.713707
0.713727
0.713743
0.713753
0.713759
0.71376
0.713757
0.713751
0.713742
0.71373
0.713717
0.713702
0.713685
0.713668
0.713651
0.713634
0.713616
0.713599
0.713583
0.712001
0.712
0.711999
0.711999
0.711998
0.711998
0.711997
0.711997
0.711996
0.711997
0.711996
0.711996
0.711996
0.711996
0.711996
0.711997
0.711997
0.711998
0.711999
0.712
0.712001
0.712002
0.712003
0.712004
0.712006
0.712008
0.712009
0.712011
0.712014
0.712016
0.712018
0.712021
0.712024
0.712027
0.71203
0.712033
0.712036
0.71204
0.712044
0.712047
0.712051
0.712056
0.71206
0.712065
0.712069
0.712074
0.712079
0.712085
0.71209
0.712096
0.712102
0.712108
0.712114
0.71212
0.712127
0.712134
0.712141
0.712148
0.712156
0.712164
0.712172
0.712181
0.71219
0.712199
0.712209
0.712219
0.71223
0.712241
0.712254
0.712267
0.71228
0.712295
0.712311
0.712329
0.712348
0.712369
0.712392
0.712416
0.712444
0.712474
0.712507
0.712544
0.712583
0.712627
0.712673
0.712724
0.712778
0.712835
0.712895
0.712957
0.713021
0.713087
0.713153
0.713218
0.713283
0.713346
0.713405
0.713462
0.713514
0.713562
0.713604
0.713641
0.713673
0.713699
0.71372
0.713735
0.713745
0.71375
0.713751
0.713749
0.713743
0.713734
0.713722
0.713709
0.713694
0.713678
0.713661
0.713644
0.713626
0.713609
0.713593
0.713577
0.711996
0.711997
0.711995
0.711997
0.711996
0.711997
0.711996
0.711997
0.711996
0.711997
0.711996
0.711997
0.711996
0.711997
0.711997
0.711997
0.711998
0.711998
0.711999
0.712
0.712001
0.712002
0.712003
0.712004
0.712006
0.712008
0.712009
0.712011
0.712013
0.712016
0.712018
0.712021
0.712024
0.712026
0.71203
0.712033
0.712036
0.71204
0.712043
0.712047
0.712051
0.712056
0.71206
0.712065
0.712069
0.712074
0.712079
0.712085
0.71209
0.712096
0.712102
0.712108
0.712114
0.71212
0.712127
0.712134
0.712141
0.712149
0.712156
0.712164
0.712172
0.712181
0.71219
0.712199
0.712209
0.712219
0.71223
0.712241
0.712253
0.712266
0.712279
0.712294
0.71231
0.712327
0.712345
0.712365
0.712387
0.712412
0.712439
0.712468
0.712501
0.712536
0.712576
0.712619
0.712665
0.712715
0.712769
0.712826
0.712885
0.712948
0.713012
0.713077
0.713142
0.713207
0.713271
0.713333
0.713392
0.713448
0.713499
0.713546
0.713587
0.713624
0.713654
0.71368
0.713699
0.713714
0.713724
0.713729
0.71373
0.713727
0.71372
0.713712
0.7137
0.713687
0.713673
0.713657
0.713641
0.713625
0.713608
0.713592
0.713576
0.713561
0.712002
0.712002
0.712
0.712
0.711998
0.711998
0.711996
0.711997
0.711995
0.711996
0.711995
0.711995
0.711995
0.711995
0.711995
0.711996
0.711996
0.711997
0.711998
0.711999
0.711999
0.712001
0.712002
0.712003
0.712005
0.712007
0.712008
0.712011
0.712013
0.712015
0.712017
0.71202
0.712023
0.712026
0.712029
0.712032
0.712035
0.712039
0.712043
0.712047
0.712051
0.712055
0.712059
0.712064
0.712069
0.712074
0.712079
0.712084
0.71209
0.712095
0.712101
0.712107
0.712113
0.71212
0.712126
0.712133
0.71214
0.712148
0.712155
0.712163
0.712171
0.71218
0.712189
0.712198
0.712207
0.712217
0.712228
0.712239
0.712251
0.712263
0.712277
0.712291
0.712307
0.712323
0.712342
0.712362
0.712384
0.712408
0.712435
0.712464
0.712497
0.712532
0.712572
0.712614
0.712661
0.712711
0.712764
0.712821
0.71288
0.712942
0.713005
0.713069
0.713133
0.713197
0.713259
0.713319
0.713377
0.71343
0.713479
0.713524
0.713564
0.713598
0.713627
0.71365
0.713668
0.713682
0.71369
0.713694
0.713694
0.713691
0.713685
0.713676
0.713665
0.713653
0.713639
0.713624
0.713609
0.713594
0.713579
0.713564
0.713549
0.713536
0.711991
0.711993
0.71199
0.711995
0.711992
0.711995
0.711993
0.711995
0.711994
0.711995
0.711994
0.711995
0.711995
0.711995
0.711995
0.711996
0.711996
0.711997
0.711997
0.711998
0.711999
0.712
0.712002
0.712003
0.712004
0.712006
0.712008
0.71201
0.712012
0.712014
0.712017
0.71202
0.712022
0.712025
0.712028
0.712032
0.712035
0.712039
0.712042
0.712046
0.71205
0.712055
0.712059
0.712064
0.712068
0.712073
0.712078
0.712084
0.712089
0.712095
0.7121
0.712107
0.712113
0.712119
0.712126
0.712133
0.71214
0.712147
0.712155
0.712162
0.712171
0.712179
0.712188
0.712197
0.712206
0.712216
0.712227
0.712238
0.71225
0.712262
0.712275
0.712289
0.712305
0.712322
0.71234
0.71236
0.712382
0.712406
0.712433
0.712463
0.712495
0.712531
0.71257
0.712613
0.712659
0.712709
0.712762
0.712818
0.712876
0.712936
0.712997
0.71306
0.713122
0.713183
0.713242
0.713299
0.713353
0.713403
0.713449
0.71349
0.713526
0.713557
0.713583
0.713604
0.71362
0.713631
0.713638
0.71364
0.71364
0.713636
0.71363
0.713621
0.713611
0.713599
0.713587
0.713574
0.713561
0.713547
0.713534
0.713521
0.713509
0.713497
0.712002
0.712002
0.711998
0.711999
0.711995
0.711996
0.711993
0.711994
0.711992
0.711993
0.711992
0.711992
0.711992
0.711993
0.711993
0.711993
0.711994
0.711995
0.711995
0.711997
0.711998
0.711999
0.712
0.712002
0.712003
0.712005
0.712007
0.712009
0.712011
0.712014
0.712016
0.712019
0.712022
0.712025
0.712028
0.712031
0.712034
0.712038
0.712042
0.712046
0.71205
0.712054
0.712058
0.712063
0.712068
0.712073
0.712078
0.712083
0.712088
0.712094
0.7121
0.712106
0.712112
0.712119
0.712125
0.712132
0.712139
0.712146
0.712154
0.712162
0.71217
0.712178
0.712187
0.712196
0.712206
0.712216
0.712226
0.712237
0.712249
0.712262
0.712275
0.71229
0.712306
0.712323
0.712341
0.712362
0.712385
0.71241
0.712437
0.712467
0.7125
0.712536
0.712576
0.712619
0.712665
0.712714
0.712766
0.71282
0.712877
0.712935
0.712993
0.713052
0.713111
0.713168
0.713223
0.713275
0.713324
0.713369
0.71341
0.713446
0.713478
0.713504
0.713526
0.713543
0.713555
0.713564
0.713568
0.71357
0.713568
0.713564
0.713558
0.71355
0.713541
0.713531
0.71352
0.713509
0.713498
0.713487
0.713476
0.713466
0.713456
0.713447
0.71197
0.711984
0.711979
0.71199
0.711986
0.711992
0.71199
0.711993
0.711992
0.711993
0.711992
0.711993
0.711993
0.711994
0.711994
0.711994
0.711995
0.711995
0.711996
0.711997
0.711998
0.711999
0.712
0.712002
0.712003
0.712005
0.712007
0.712009
0.712011
0.712013
0.712016
0.712019
0.712021
0.712024
0.712027
0.712031
0.712034
0.712038
0.712041
0.712045
0.712049
0.712054
0.712058
0.712063
0.712067
0.712073
0.712077
0.712083
0.712088
0.712094
0.7121
0.712106
0.712112
0.712118
0.712125
0.712132
0.712139
0.712147
0.712154
0.712162
0.71217
0.712179
0.712188
0.712197
0.712207
0.712217
0.712228
0.71224
0.712252
0.712265
0.712279
0.712295
0.712311
0.712329
0.712349
0.71237
0.712394
0.712419
0.712448
0.712479
0.712512
0.712549
0.712589
0.712631
0.712677
0.712725
0.712775
0.712827
0.712881
0.712935
0.71299
0.713044
0.713098
0.713149
0.713198
0.713244
0.713287
0.713325
0.713359
0.713389
0.713415
0.713436
0.713453
0.713466
0.713475
0.713481
0.713483
0.713483
0.713481
0.713477
0.713471
0.713464
0.713457
0.713449
0.713441
0.713432
0.713424
0.713416
0.713409
0.713402
0.713396
0.71339
0.711994
0.712001
0.711994
0.711995
0.711991
0.711992
0.711989
0.71199
0.711989
0.71199
0.71199
0.711991
0.71199
0.711991
0.711992
0.711992
0.711993
0.711994
0.711995
0.711996
0.711997
0.711998
0.712
0.712001
0.712003
0.712005
0.712007
0.712009
0.712011
0.712013
0.712016
0.712019
0.712021
0.712024
0.712028
0.712031
0.712034
0.712038
0.712042
0.712046
0.71205
0.712054
0.712059
0.712063
0.712068
0.712073
0.712078
0.712084
0.712089
0.712095
0.712101
0.712107
0.712113
0.71212
0.712127
0.712134
0.712141
0.712149
0.712157
0.712165
0.712174
0.712183
0.712192
0.712202
0.712213
0.712224
0.712236
0.712248
0.712261
0.712276
0.712291
0.712307
0.712325
0.712345
0.712366
0.712389
0.712413
0.712441
0.71247
0.712502
0.712536
0.712573
0.712613
0.712655
0.712699
0.712745
0.712793
0.712842
0.712892
0.712941
0.712991
0.713039
0.713085
0.71313
0.713171
0.713209
0.713244
0.713275
0.713302
0.713325
0.713345
0.71336
0.713372
0.713381
0.713387
0.71339
0.713391
0.71339
0.713388
0.713384
0.71338
0.713375
0.71337
0.713365
0.713359
0.713354
0.713349
0.713345
0.713341
0.713337
0.713334
0.713332
0.711892
0.711973
0.711968
0.711992
0.711987
0.711995
0.711992
0.711996
0.711994
0.711996
0.711994
0.711995
0.711995
0.711995
0.711995
0.711996
0.711996
0.711997
0.711997
0.711998
0.711999
0.712
0.712001
0.712003
0.712004
0.712006
0.712008
0.71201
0.712012
0.712014
0.712017
0.71202
0.712022
0.712025
0.712028
0.712032
0.712035
0.712039
0.712043
0.712047
0.712051
0.712056
0.71206
0.712065
0.712069
0.712075
0.71208
0.712086
0.712092
0.712098
0.712104
0.712111
0.712117
0.712124
0.712132
0.712139
0.712147
0.712156
0.712164
0.712173
0.712183
0.712193
0.712203
0.712214
0.712226
0.712238
0.712251
0.712265
0.71228
0.712296
0.712313
0.712332
0.712351
0.712373
0.712396
0.71242
0.712447
0.712475
0.712506
0.712539
0.712574
0.71261
0.712649
0.71269
0.712732
0.712775
0.712819
0.712863
0.712907
0.712951
0.712993
0.713034
0.713072
0.713108
0.713141
0.713171
0.713198
0.713221
0.713241
0.713258
0.713271
0.713282
0.71329
0.713295
0.713299
0.713301
0.713301
0.7133
0.713299
0.713297
0.713295
0.713292
0.71329
0.713287
0.713285
0.713283
0.713282
0.713281
0.71328
0.71328
0.71328
0.713281
0.71225
0.712208
0.712201
0.712159
0.712147
0.712103
0.712088
0.712037
0.712027
0.711954
0.711972
0.711998
0.711992
0.711997
0.711992
0.711995
0.711991
0.711993
0.711991
0.711993
0.711992
0.711993
0.711993
0.711993
0.711994
0.711995
0.711995
0.711996
0.711997
0.711998
0.711999
0.712
0.712002
0.712003
0.712005
0.712007
0.712009
0.712011
0.712013
0.712016
0.712018
0.712021
0.712024
0.712027
0.71203
0.712034
0.712038
0.712042
0.712046
0.71205
0.712054
0.712059
0.712064
0.712069
0.712074
)
;

boundaryField
{
    inlet
    {
        type            zeroGradient;
    }
    outlet
    {
        type            fixedValue;
        value           nonuniform 0();
    }
    walls
    {
        type            zeroGradient;
    }
    symwall
    {
        type            empty;
    }
    procBoundary0to1
    {
        type            processor;
        value           nonuniform List<scalar> 10(0.713569 0.713567 0.713561 0.713547 0.713523 0.713486 0.713439 0.713385 0.71333 0.713282);
    }
    procBoundary0to2
    {
        type            processor;
        value           nonuniform List<scalar> 
133
(
0.71208
0.712086
0.712092
0.712098
0.712105
0.712112
0.712119
0.712126
0.712134
0.712143
0.712151
0.71216
0.71217
0.71218
0.71219
0.712201
0.712213
0.712225
0.712238
0.712251
0.712266
0.712281
0.712297
0.712314
0.712332
0.712352
0.712372
0.712394
0.712418
0.712443
0.712469
0.712497
0.712527
0.712558
0.712591
0.712626
0.712662
0.712699
0.712737
0.712775
0.712814
0.712853
0.712891
0.712929
0.712965
0.712999
0.713032
0.713062
0.71309
0.713114
0.713136
0.713156
0.713172
0.713186
0.713197
0.713205
0.713212
0.713217
0.713221
0.713224
0.713225
0.713226
0.713227
0.713227
0.713227
0.713227
0.713227
0.713227
0.713228
0.713229
0.71323
0.713231
0.713233
0.713235
0.713237
0.71324
0.713243
0.712259
0.712211
0.712204
0.712161
0.712149
0.712105
0.712089
0.712039
0.712023
0.711955
0.711931
0.711982
0.711975
0.711997
0.711992
0.712001
0.711997
0.712
0.711998
0.711999
0.711998
0.711998
0.711997
0.711998
0.711998
0.711998
0.711998
0.711999
0.711999
0.712
0.712001
0.712002
0.712003
0.712005
0.712007
0.712009
0.712011
0.712013
0.712015
0.712018
0.712021
0.712024
0.712027
0.71203
0.712034
0.712038
0.712042
0.712046
0.71205
0.712055
0.71206
0.712066
0.712071
0.712077
0.71208
0.712082
)
;
    }
}


// ************************************************************************* //
