/*--------------------------------*- C++ -*----------------------------------*\
| =========                 |                                                 |
| \\      /  F ield         | OpenFOAM: The Open Source CFD Toolbox           |
|  \\    /   O peration     | Version:  4.1                                   |
|   \\  /    A nd           | Web:      www.OpenFOAM.org                      |
|    \\/     M anipulation  |                                                 |
\*---------------------------------------------------------------------------*/
FoamFile
{
    version     2.0;
    format      ascii;
    class       volScalarField;
    location    "3900";
    object      p;
}
// * * * * * * * * * * * * * * * * * * * * * * * * * * * * * * * * * * * * * //

dimensions      [1 -1 -2 0 0 0 0];

internalField   nonuniform List<scalar> 
1275
(
0.711994
0.711994
0.711993
0.711993
0.711992
0.711993
0.711992
0.711992
0.711991
0.711992
0.711991
0.711991
0.711991
0.711992
0.711992
0.711992
0.711992
0.711993
0.711994
0.711995
0.711996
0.711997
0.711998
0.712
0.712001
0.712003
0.712005
0.712007
0.712009
0.712011
0.712014
0.712016
0.712019
0.712022
0.712025
0.712028
0.712032
0.712035
0.712039
0.712043
0.712047
0.712051
0.712056
0.71206
0.712065
0.71207
0.712075
0.71208
0.712086
0.712091
0.712097
0.712103
0.71211
0.712116
0.712123
0.712129
0.712136
0.712144
0.712151
0.712159
0.712167
0.712175
0.712184
0.712193
0.712202
0.712212
0.712222
0.712232
0.712243
0.712255
0.712267
0.71228
0.712293
0.712308
0.712323
0.71234
0.712357
0.712376
0.712397
0.71242
0.712444
0.71247
0.712499
0.71253
0.712564
0.7126
0.71264
0.712682
0.712727
0.712775
0.712825
0.712879
0.712934
0.712991
0.71305
0.71311
0.71317
0.71323
0.713289
0.713346
0.713401
0.713453
0.713502
0.713547
0.713588
0.713624
0.713656
0.713683
0.713705
0.713723
0.713736
0.713745
0.71375
0.713751
0.713749
0.713744
0.713737
0.713728
0.713717
0.713705
0.713691
0.713678
0.711993
0.711993
0.711992
0.711993
0.711992
0.711993
0.711992
0.711993
0.711992
0.711992
0.711992
0.711992
0.711992
0.711992
0.711992
0.711993
0.711993
0.711994
0.711995
0.711996
0.711997
0.711998
0.711999
0.712
0.712002
0.712004
0.712005
0.712007
0.712009
0.712012
0.712014
0.712017
0.71202
0.712023
0.712026
0.712029
0.712032
0.712036
0.71204
0.712043
0.712048
0.712052
0.712056
0.712061
0.712066
0.71207
0.712076
0.712081
0.712086
0.712092
0.712098
0.712104
0.71211
0.712117
0.712123
0.71213
0.712137
0.712144
0.712152
0.71216
0.712168
0.712176
0.712185
0.712194
0.712203
0.712213
0.712223
0.712233
0.712244
0.712256
0.712268
0.712281
0.712294
0.712309
0.712324
0.712341
0.712358
0.712377
0.712398
0.71242
0.712444
0.71247
0.712498
0.712528
0.712562
0.712597
0.712636
0.712678
0.712722
0.71277
0.71282
0.712873
0.712928
0.712985
0.713044
0.713104
0.713164
0.713224
0.713282
0.71334
0.713395
0.713447
0.713496
0.713541
0.713582
0.713619
0.713651
0.713678
0.7137
0.713718
0.713731
0.71374
0.713745
0.713746
0.713744
0.71374
0.713733
0.713724
0.713713
0.713701
0.713688
0.713674
0.711996
0.711996
0.711995
0.711995
0.711994
0.711994
0.711993
0.711993
0.711992
0.711992
0.711992
0.711992
0.711992
0.711992
0.711992
0.711993
0.711993
0.711994
0.711994
0.711995
0.711996
0.711997
0.711999
0.712
0.712002
0.712003
0.712005
0.712007
0.712009
0.712012
0.712014
0.712017
0.712019
0.712022
0.712025
0.712029
0.712032
0.712036
0.712039
0.712043
0.712047
0.712052
0.712056
0.712061
0.712065
0.71207
0.712075
0.712081
0.712086
0.712092
0.712098
0.712104
0.71211
0.712116
0.712123
0.71213
0.712137
0.712144
0.712152
0.712159
0.712167
0.712176
0.712184
0.712193
0.712203
0.712212
0.712222
0.712233
0.712244
0.712255
0.712267
0.71228
0.712293
0.712308
0.712323
0.712339
0.712356
0.712375
0.712395
0.712417
0.712441
0.712466
0.712494
0.712524
0.712557
0.712593
0.712631
0.712673
0.712717
0.712764
0.712814
0.712867
0.712922
0.71298
0.713038
0.713098
0.713158
0.713218
0.713277
0.713334
0.713389
0.713442
0.713491
0.713536
0.713577
0.713613
0.713645
0.713672
0.713694
0.713711
0.713724
0.713733
0.713738
0.713739
0.713738
0.713733
0.713726
0.713717
0.713706
0.713694
0.713681
0.713668
0.711992
0.711992
0.711991
0.711993
0.711991
0.711993
0.711992
0.711993
0.711992
0.711992
0.711992
0.711992
0.711992
0.711992
0.711992
0.711993
0.711993
0.711994
0.711995
0.711995
0.711996
0.711998
0.711999
0.712
0.712002
0.712003
0.712005
0.712007
0.712009
0.712011
0.712014
0.712017
0.712019
0.712022
0.712025
0.712029
0.712032
0.712036
0.712039
0.712043
0.712047
0.712052
0.712056
0.712061
0.712065
0.71207
0.712075
0.712081
0.712086
0.712092
0.712098
0.712104
0.71211
0.712116
0.712123
0.71213
0.712137
0.712144
0.712152
0.712159
0.712167
0.712176
0.712184
0.712193
0.712203
0.712212
0.712222
0.712232
0.712243
0.712255
0.712267
0.712279
0.712292
0.712306
0.712321
0.712337
0.712354
0.712373
0.712392
0.712414
0.712437
0.712462
0.712489
0.712519
0.712551
0.712586
0.712624
0.712666
0.71271
0.712757
0.712807
0.712859
0.712914
0.712971
0.71303
0.713089
0.713149
0.713208
0.713267
0.713324
0.713378
0.71343
0.713478
0.713523
0.713563
0.713598
0.713629
0.713656
0.713677
0.713694
0.713707
0.713715
0.713719
0.713721
0.713719
0.713714
0.713707
0.713698
0.713688
0.713676
0.713664
0.713651
0.711998
0.711997
0.711996
0.711996
0.711994
0.711994
0.711992
0.711992
0.711991
0.711991
0.71199
0.711991
0.71199
0.711991
0.711991
0.711991
0.711992
0.711993
0.711993
0.711994
0.711995
0.711996
0.711998
0.711999
0.712001
0.712002
0.712004
0.712006
0.712008
0.712011
0.712013
0.712016
0.712018
0.712021
0.712025
0.712028
0.712031
0.712035
0.712039
0.712043
0.712047
0.712051
0.712055
0.71206
0.712065
0.71207
0.712075
0.71208
0.712085
0.712091
0.712097
0.712103
0.712109
0.712116
0.712122
0.712129
0.712136
0.712143
0.712151
0.712159
0.712167
0.712175
0.712183
0.712192
0.712201
0.712211
0.712221
0.712231
0.712242
0.712253
0.712265
0.712277
0.71229
0.712304
0.712319
0.712335
0.712351
0.71237
0.712389
0.71241
0.712433
0.712458
0.712486
0.712515
0.712548
0.712583
0.712621
0.712662
0.712706
0.712753
0.712803
0.712855
0.712909
0.712966
0.713024
0.713082
0.713141
0.7132
0.713257
0.713312
0.713365
0.713415
0.713462
0.713505
0.713543
0.713577
0.713606
0.713631
0.713651
0.713667
0.713678
0.713686
0.71369
0.71369
0.713688
0.713683
0.713676
0.713668
0.713658
0.713647
0.713636
0.713624
0.711986
0.711989
0.711986
0.71199
0.711988
0.711991
0.711989
0.711991
0.71199
0.711991
0.71199
0.711991
0.71199
0.711991
0.711991
0.711991
0.711992
0.711992
0.711993
0.711994
0.711995
0.711996
0.711997
0.711999
0.712
0.712002
0.712004
0.712006
0.712008
0.71201
0.712013
0.712015
0.712018
0.712021
0.712024
0.712027
0.712031
0.712034
0.712038
0.712042
0.712046
0.71205
0.712055
0.712059
0.712064
0.712069
0.712074
0.71208
0.712085
0.712091
0.712096
0.712103
0.712109
0.712115
0.712122
0.712129
0.712136
0.712143
0.71215
0.712158
0.712166
0.712174
0.712183
0.712192
0.712201
0.71221
0.71222
0.71223
0.712241
0.712252
0.712264
0.712276
0.712289
0.712303
0.712317
0.712333
0.71235
0.712368
0.712387
0.712409
0.712432
0.712457
0.712484
0.712514
0.712546
0.712581
0.712619
0.71266
0.712704
0.712751
0.7128
0.712852
0.712906
0.712961
0.713017
0.713074
0.713131
0.713188
0.713242
0.713295
0.713346
0.713393
0.713436
0.713476
0.713512
0.713543
0.713569
0.713592
0.71361
0.713623
0.713633
0.713639
0.713642
0.713642
0.71364
0.713635
0.713629
0.713621
0.713612
0.713602
0.713592
0.713581
0.711997
0.711997
0.711994
0.711994
0.711991
0.711991
0.711989
0.711989
0.711988
0.711988
0.711987
0.711988
0.711988
0.711988
0.711988
0.711989
0.71199
0.71199
0.711991
0.711992
0.711993
0.711995
0.711996
0.711997
0.711999
0.712001
0.712003
0.712005
0.712007
0.712009
0.712012
0.712014
0.712017
0.71202
0.712023
0.712027
0.71203
0.712034
0.712037
0.712041
0.712045
0.71205
0.712054
0.712059
0.712064
0.712069
0.712074
0.712079
0.712084
0.71209
0.712096
0.712102
0.712108
0.712115
0.712121
0.712128
0.712135
0.712142
0.71215
0.712157
0.712165
0.712174
0.712182
0.712191
0.7122
0.712209
0.712219
0.712229
0.71224
0.712251
0.712263
0.712276
0.712289
0.712303
0.712318
0.712333
0.712351
0.712369
0.712389
0.712411
0.712434
0.71246
0.712488
0.712518
0.712551
0.712586
0.712624
0.712665
0.712709
0.712755
0.712804
0.712854
0.712906
0.71296
0.713014
0.713068
0.713122
0.713175
0.713226
0.713275
0.713321
0.713364
0.713404
0.713439
0.71347
0.713497
0.71352
0.713539
0.713554
0.713565
0.713573
0.713578
0.713579
0.713579
0.713576
0.713572
0.713566
0.713559
0.713551
0.713543
0.713534
0.713525
0.711966
0.71198
0.711974
0.711985
0.711982
0.711988
0.711985
0.711988
0.711987
0.711989
0.711988
0.711989
0.711989
0.711989
0.711989
0.71199
0.71199
0.711991
0.711992
0.711993
0.711994
0.711995
0.711996
0.711997
0.711999
0.712001
0.712003
0.712005
0.712007
0.712009
0.712012
0.712014
0.712017
0.71202
0.712023
0.712026
0.71203
0.712034
0.712037
0.712041
0.712045
0.71205
0.712054
0.712059
0.712063
0.712068
0.712073
0.712079
0.712084
0.71209
0.712096
0.712102
0.712108
0.712114
0.712121
0.712128
0.712135
0.712142
0.71215
0.712158
0.712166
0.712174
0.712182
0.712191
0.712201
0.71221
0.71222
0.712231
0.712242
0.712253
0.712265
0.712278
0.712292
0.712306
0.712322
0.712338
0.712356
0.712375
0.712396
0.712418
0.712443
0.712469
0.712497
0.712528
0.712562
0.712597
0.712636
0.712676
0.712719
0.712764
0.712812
0.71286
0.71291
0.712961
0.713011
0.713062
0.713111
0.713159
0.713205
0.713249
0.713289
0.713326
0.71336
0.71339
0.713416
0.713439
0.713457
0.713472
0.713484
0.713492
0.713498
0.713501
0.713501
0.7135
0.713498
0.713494
0.713489
0.713484
0.713478
0.713471
0.713465
0.713459
0.71199
0.711997
0.711989
0.711991
0.711986
0.711987
0.711985
0.711986
0.711985
0.711986
0.711985
0.711986
0.711986
0.711987
0.711987
0.711988
0.711989
0.71199
0.71199
0.711992
0.711993
0.711994
0.711995
0.711997
0.711999
0.712
0.712002
0.712005
0.712007
0.712009
0.712012
0.712014
0.712017
0.71202
0.712023
0.712027
0.71203
0.712034
0.712037
0.712042
0.712046
0.71205
0.712054
0.712059
0.712064
0.712069
0.712074
0.712079
0.712085
0.712091
0.712097
0.712103
0.712109
0.712116
0.712122
0.712129
0.712136
0.712144
0.712152
0.71216
0.712168
0.712177
0.712185
0.712195
0.712204
0.712214
0.712225
0.712236
0.712248
0.71226
0.712273
0.712287
0.712301
0.712317
0.712333
0.712351
0.71237
0.71239
0.712412
0.712436
0.712461
0.712489
0.712518
0.71255
0.712583
0.712619
0.712657
0.712697
0.712739
0.712783
0.712828
0.712873
0.71292
0.712966
0.713012
0.713057
0.713101
0.713143
0.713182
0.713219
0.713253
0.713283
0.713311
0.713335
0.713355
0.713372
0.713386
0.713397
0.713405
0.713411
0.713415
0.713416
0.713417
0.713416
0.713414
0.713411
0.713408
0.713404
0.713401
0.713397
0.713394
0.71339
0.711887
0.711969
0.711963
0.711987
0.711982
0.711991
0.711988
0.711991
0.71199
0.711991
0.71199
0.711991
0.71199
0.711991
0.711991
0.711991
0.711991
0.711992
0.711993
0.711994
0.711995
0.711996
0.711997
0.711998
0.712
0.712002
0.712003
0.712005
0.712008
0.71201
0.712012
0.712015
0.712018
0.712021
0.712024
0.712027
0.712031
0.712035
0.712038
0.712043
0.712047
0.712051
0.712055
0.712061
0.712065
0.712071
0.712075
0.712081
0.712087
0.712093
0.712099
0.712105
0.712112
0.712119
0.712126
0.712133
0.712141
0.712149
0.712157
0.712165
0.712174
0.712183
0.712193
0.712203
0.712214
0.712225
0.712236
0.712248
0.712261
0.712274
0.712289
0.712304
0.71232
0.712337
0.712355
0.712374
0.712395
0.712417
0.71244
0.712465
0.712492
0.71252
0.712551
0.712583
0.712617
0.712652
0.71269
0.712728
0.712768
0.712809
0.71285
0.712892
0.712934
0.712974
0.713014
0.713053
0.71309
0.713124
0.713156
0.713186
0.713212
0.713236
0.713257
0.713275
0.71329
0.713302
0.713312
0.71332
0.713325
0.713329
0.713332
0.713333
0.713334
0.713334
0.713333
0.713332
0.713331
0.71333
0.713329
0.713328
0.713327
0.713327
0.712245
0.712203
0.712196
0.712155
0.712142
0.712099
0.712084
0.712033
0.712023
0.71195
0.711967
0.711994
0.711988
0.711993
0.711988
0.71199
0.711987
0.711989
0.711987
0.711988
0.711987
0.711988
0.711988
0.711989
0.711989
0.71199
0.711991
0.711992
0.711992
0.711993
0.711994
0.711996
0.711997
0.711999
0.712
0.712002
0.712004
0.712006
0.712009
0.712011
0.712014
0.712016
0.712019
0.712022
0.712026
0.712029
0.712033
0.712037
0.712041
0.712045
0.712049
0.712054
0.712059
0.712063
0.712069
)
;

boundaryField
{
    inlet
    {
        type            zeroGradient;
    }
    outlet
    {
        type            fixedValue;
        value           nonuniform 0();
    }
    walls
    {
        type            zeroGradient;
    }
    symwall
    {
        type            empty;
    }
    procBoundary0to1
    {
        type            processor;
        value           nonuniform List<scalar> 10(0.713663 0.71366 0.713654 0.713638 0.713612 0.71357 0.713517 0.713453 0.713387 0.713327);
    }
    procBoundary0to2
    {
        type            processor;
        value           nonuniform List<scalar> 
133
(
0.712074
0.71208
0.712086
0.712092
0.712098
0.712105
0.712111
0.712119
0.712126
0.712134
0.712142
0.71215
0.712159
0.712168
0.712177
0.712187
0.712198
0.712208
0.71222
0.712232
0.712244
0.712257
0.712271
0.712285
0.712301
0.712317
0.712334
0.712352
0.712371
0.712391
0.712412
0.712435
0.712458
0.712484
0.71251
0.712538
0.712568
0.712598
0.712631
0.712664
0.712699
0.712734
0.71277
0.712807
0.712844
0.712881
0.712917
0.712953
0.712987
0.71302
0.713051
0.713081
0.713108
0.713133
0.713155
0.713175
0.713192
0.713207
0.71322
0.71323
0.713239
0.713246
0.713251
0.713255
0.713258
0.713261
0.713263
0.713264
0.713266
0.713267
0.713268
0.713269
0.71327
0.713271
0.713273
0.713275
0.713277
0.712254
0.712206
0.7122
0.712157
0.712144
0.7121
0.712085
0.712034
0.712018
0.71195
0.711926
0.711978
0.711971
0.711993
0.711987
0.711996
0.711992
0.711996
0.711993
0.711995
0.711993
0.711994
0.711993
0.711993
0.711993
0.711994
0.711994
0.711994
0.711995
0.711996
0.711996
0.711998
0.711999
0.712
0.712002
0.712004
0.712006
0.712008
0.71201
0.712013
0.712015
0.712018
0.712021
0.712025
0.712028
0.712032
0.712036
0.71204
0.712044
0.712049
0.712053
0.712059
0.712063
0.712069
0.712074
0.712074
)
;
    }
}


// ************************************************************************* //
