/*--------------------------------*- C++ -*----------------------------------*\
| =========                 |                                                 |
| \\      /  F ield         | OpenFOAM: The Open Source CFD Toolbox           |
|  \\    /   O peration     | Version:  4.1                                   |
|   \\  /    A nd           | Web:      www.OpenFOAM.org                      |
|    \\/     M anipulation  |                                                 |
\*---------------------------------------------------------------------------*/
FoamFile
{
    version     2.0;
    format      ascii;
    class       volVectorField;
    location    "0.0414";
    object      U;
}
// * * * * * * * * * * * * * * * * * * * * * * * * * * * * * * * * * * * * * //

dimensions      [0 1 -1 0 0 0 0];

internalField   nonuniform List<vector> 
441
(
(-9.57215e-05 7.4018e-05 0)
(-0.000489415 0.000288594 0)
(-0.0011156 0.000516976 0)
(-0.00192868 0.000685152 0)
(-0.00285224 0.000773066 0)
(-0.00380151 0.000780604 0)
(-0.00469659 0.000716356 0)
(-0.00546885 0.000592783 0)
(-0.00606368 0.000423836 0)
(-0.00644132 0.000223872 0)
(-0.00657697 7.34697e-06 0)
(-0.00646084 -0.000211065 0)
(-0.0060985 -0.000416209 0)
(-0.00551164 -0.000592293 0)
(-0.00473877 -0.00072309 0)
(-0.00383551 -0.000792719 0)
(-0.00287356 -0.000787289 0)
(-0.00193702 -0.00069778 0)
(-0.00111467 -0.000525168 0)
(-0.000485238 -0.000291569 0)
(-9.38825e-05 -7.34502e-05 0)
(-0.000360517 0.000438866 0)
(-0.00160645 0.00140384 0)
(-0.00339028 0.00230014 0)
(-0.00558925 0.00294017 0)
(-0.00802046 0.0032603 0)
(-0.0104826 0.00326113 0)
(-0.0127845 0.00297609 0)
(-0.0147602 0.0024543 0)
(-0.016277 0.00175117 0)
(-0.0172378 0.000924004 0)
(-0.017582 3.06055e-05 0)
(-0.0172858 -0.000870336 0)
(-0.0163634 -0.00171822 0)
(-0.0148679 -0.00244995 0)
(-0.0128933 -0.0030008 0)
(-0.0105743 -0.00330766 0)
(-0.00808342 -0.00331568 0)
(-0.00562111 -0.0029896 0)
(-0.003398 -0.00233216 0)
(-0.0016028 -0.00141514 0)
(-0.000358098 -0.000437003 0)
(-0.000662271 0.00107646 0)
(-0.00277971 0.00314358 0)
(-0.0056465 0.00491136 0)
(-0.00906384 0.006127 0)
(-0.0127667 0.00670289 0)
(-0.0164705 0.00665108 0)
(-0.019906 0.00603968 0)
(-0.0228401 0.00496513 0)
(-0.0250858 0.00353581 0)
(-0.0265065 0.00186377 0)
(-0.0270166 6.20311e-05 0)
(-0.0265826 -0.00175462 0)
(-0.0252239 -0.00346774 0)
(-0.0230149 -0.00495403 0)
(-0.0200871 -0.006087 0)
(-0.0166294 -0.00674315 0)
(-0.0128838 -0.00681446 0)
(-0.00913257 -0.00622866 0)
(-0.0056744 -0.00497948 0)
(-0.00278391 -0.00317005 0)
(-0.000661281 -0.00107479 0)
(-0.000958607 0.00199195 0)
(-0.00392657 0.00551908 0)
(-0.00782394 0.00835825 0)
(-0.0123685 0.0102378 0)
(-0.017216 0.0110742 0)
(-0.0220107 0.0109092 0)
(-0.0264234 0.00985942 0)
(-0.030172 0.00808042 0)
(-0.0330322 0.00574401 0)
(-0.0348409 0.00302647 0)
(-0.0354957 0.000104983 0)
(-0.0349556 -0.00284093 0)
(-0.0332421 -0.00562592 0)
(-0.0304416 -0.00805661 0)
(-0.0267095 -0.0099336 0)
(-0.0222711 -0.0110605 0)
(-0.0174191 -0.0112623 0)
(-0.0125003 -0.0104141 0)
(-0.00789017 -0.00848176 0)
(-0.00394827 -0.00557256 0)
(-0.000961442 -0.00199357 0)
(-0.00124716 0.00318346 0)
(-0.00504945 0.00853393 0)
(-0.00995263 0.0126492 0)
(-0.0155836 0.0152757 0)
(-0.0215148 0.0163657 0)
(-0.0273231 0.0160151 0)
(-0.0326277 0.0144079 0)
(-0.0371098 0.0117728 0)
(-0.0405196 0.0083555 0)
(-0.0426771 0.00440446 0)
(-0.0434695 0.000166913 0)
(-0.0428497 -0.00410762 0)
(-0.0408378 -0.00816125 0)
(-0.0375244 -0.0117233 0)
(-0.033077 -0.0145115 0)
(-0.0277448 -0.0162434 0)
(-0.0218588 -0.0166595 0)
(-0.0158228 -0.0155608 0)
(-0.0100876 -0.0128591 0)
(-0.00510471 -0.00863487 0)
(-0.00125779 -0.00319468 0)
(-0.0015361 0.00465374 0)
(-0.0061794 0.0121991 0)
(-0.0120926 0.0177999 0)
(-0.0188033 0.0212525 0)
(-0.0257952 0.022579 0)
(-0.0325779 0.0219593 0)
(-0.0387253 0.019668 0)
(-0.0438908 0.0160238 0)
(-0.0478096 0.0113576 0)
(-0.0502934 0.00599573 0)
(-0.0512241 0.000258838 0)
(-0.05055 -0.00553188 0)
(-0.0482861 -0.0110438 0)
(-0.0445194 -0.0159243 0)
(-0.0394187 -0.0197995 0)
(-0.0332452 -0.022286 0)
(-0.0263589 -0.0230186 0)
(-0.019215 -0.0216964 0)
(-0.0123421 -0.0181441 0)
(-0.00629288 -0.0123813 0)
(-0.00156068 -0.00468639 0)
(-0.00183456 0.00641474 0)
(-0.00734957 0.0165397 0)
(-0.0142994 0.0238371 0)
(-0.0221009 0.0281865 0)
(-0.0301432 0.0297182 0)
(-0.0378697 0.0287319 0)
(-0.0448157 0.0256208 0)
(-0.0506176 0.0208134 0)
(-0.0550063 0.0147363 0)
(-0.0577951 0.00779888 0)
(-0.0588669 0.000394588 0)
(-0.0581665 -0.00708596 0)
(-0.0557001 -0.0142373 0)
(-0.0515427 -0.0206232 0)
(-0.0458523 -0.025771 0)
(-0.0388885 -0.0291806 0)
(-0.031028 -0.0303556 0)
(-0.022771 -0.0288583 0)
(-0.0147254 -0.0243855 0)
(-0.00755561 -0.0168556 0)
(-0.0018818 -0.00648892 0)
(-0.0021488 0.00848686 0)
(-0.00858167 0.0215921 0)
(-0.0166026 0.0307917 0)
(-0.0255029 0.0360899 0)
(-0.0345712 0.0377729 0)
(-0.043189 0.0363032 0)
(-0.0508642 0.0322263 0)
(-0.0572303 0.026102 0)
(-0.0620293 0.0184638 0)
(-0.0650883 0.00980561 0)
(-0.066299 0.000589491 0)
(-0.0656053 -0.00873191 0)
(-0.0630009 -0.0176872 0)
(-0.0585388 -0.02576 0)
(-0.0523513 -0.0323737 0)
(-0.0446781 -0.0368959 0)
(-0.0358954 -0.0386701 0)
(-0.0265357 -0.0370793 0)
(-0.0172829 -0.0316404 0)
(-0.00892452 -0.0221177 0)
(-0.00223008 -0.00863392 0)
(-0.00247992 0.0108957 0)
(-0.00987733 0.0273941 0)
(-0.0189906 0.0386832 0)
(-0.0289665 0.0449489 0)
(-0.03899 0.0466945 0)
(-0.0483907 0.0445988 0)
(-0.056667 0.0393992 0)
(-0.0634713 0.0318105 0)
(-0.0685768 0.0224824 0)
(-0.0718412 0.0119913 0)
(-0.0731761 0.000858163 0)
(-0.0725285 -0.0104161 0)
(-0.0698761 -0.0213081 0)
(-0.0652386 -0.0312307 0)
(-0.0587038 -0.0395038 0)
(-0.050467 -0.0453493 0)
(-0.0408772 -0.0479185 0)
(-0.0304768 -0.0463641 0)
(-0.0200151 -0.0399562 0)
(-0.0104101 -0.0282335 0)
(-0.00260918 -0.0111612 0)
(-0.00282185 0.0136672 0)
(-0.0112103 0.0339715 0)
(-0.0213946 0.0474983 0)
(-0.0323563 0.0546953 0)
(-0.0431782 0.0563642 0)
(-0.0531574 0.0534672 0)
(-0.0618117 0.0469793 0)
(-0.0688427 0.0377949 0)
(-0.0740826 0.026686 0)
(-0.077441 0.0143036 0)
(-0.0788637 0.00121106 0)
(-0.0783074 -0.0120644 0)
(-0.0757313 -0.0249697 0)
(-0.0711095 -0.0368651 0)
(-0.0644629 -0.0469761 0)
(-0.0559107 -0.0543703 0)
(-0.0457366 -0.0579755 0)
(-0.0344556 -0.0566541 0)
(-0.0228577 -0.0493441 0)
(-0.011992 -0.035258 0)
(-0.00301507 -0.0141133 0)
(-0.00315875 0.0168218 0)
(-0.0125169 0.0413199 0)
(-0.0236706 0.0571608 0)
(-0.0354155 0.0651693 0)
(-0.0467445 0.0665536 0)
(-0.0569563 0.0626421 0)
(-0.0656307 0.054699 0)
(-0.0725601 0.0438204 0)
(-0.0776698 0.0309006 0)
(-0.0809474 0.0166503 0)
(-0.0823906 0.00164954 0)
(-0.0819739 -0.0135788 0)
(-0.0796379 -0.0284842 0)
(-0.0752998 -0.0424044 0)
(-0.0688896 -0.0544906 0)
(-0.060412 -0.0636588 0)
(-0.0500341 -0.0685869 0)
(-0.0381877 -0.0677819 0)
(-0.0256568 -0.0597411 0)
(-0.0136062 -0.0432128 0)
(-0.00343273 -0.0175285 0)
(-0.00346082 0.0203667 0)
(-0.013681 0.0493807 0)
(-0.0255704 0.0674942 0)
(-0.0377245 0.0760733 0)
(-0.0490769 0.0768772 0)
(-0.0589843 0.0717001 0)
(-0.0671481 0.0621482 0)
(-0.073503 0.0495346 0)
(-0.0781069 0.034866 0)
(-0.0810533 0.018887 0)
(-0.0824095 0.00215956 0)
(-0.0821787 -0.0148373 0)
(-0.0802854 -0.0315986 0)
(-0.076583 -0.0474817 0)
(-0.0708891 -0.0616003 0)
(-0.0630532 -0.0727392 0)
(-0.0530636 -0.0793137 0)
(-0.0411895 -0.0794114 0)
(-0.0281314 -0.07096 0)
(-0.0151258 -0.052054 0)
(-0.003831 -0.0214309 0)
(-0.00367674 0.0242868 0)
(-0.0145076 0.0580109 0)
(-0.0266947 0.0781717 0)
(-0.0386362 0.0869149 0)
(-0.0492704 0.0867393 0)
(-0.0580969 0.080018 0)
(-0.0650171 0.0687443 0)
(-0.0701658 0.0544485 0)
(-0.0737721 0.0382232 0)
(-0.0760583 0.0208083 0)
(-0.0771759 0.00270471 0)
(-0.0771671 -0.0156994 0)
(-0.0759476 -0.0339951 0)
(-0.0733087 -0.0516142 0)
(-0.0689444 -0.0676885 0)
(-0.0625152 -0.0809176 0)
(-0.0537645 -0.0894699 0)
(-0.0426982 -0.0909665 0)
(-0.0298142 -0.0826226 0)
(-0.0163282 -0.0616291 0)
(-0.0041536 -0.0258171 0)
(-0.00371861 0.0285306 0)
(-0.014671 0.0669387 0)
(-0.0264057 0.0886499 0)
(-0.0371668 0.096937 0)
(-0.0460132 0.095278 0)
(-0.0527092 0.0867378 0)
(-0.0574461 0.0737175 0)
(-0.060613 0.0579342 0)
(-0.0626338 0.0405169 0)
(-0.0638687 0.0221488 0)
(-0.064557 0.0032205 0)
(-0.0647864 -0.0160188 0)
(-0.0644762 -0.0353085 0)
(-0.0633712 -0.0542169 0)
(-0.0610521 -0.0719683 0)
(-0.0569801 -0.0872567 0)
(-0.0506016 -0.0980652 0)
(-0.0415487 -0.101546 0)
(-0.029951 -0.0940716 0)
(-0.0168349 -0.0716148 0)
(-0.00430247 -0.030636 0)
(-0.00343059 0.0329868 0)
(-0.0136081 0.0756954 0)
(-0.0236605 0.0980742 0)
(-0.0318032 0.105035 0)
(-0.0374081 0.101317 0)
(-0.0406563 0.0907561 0)
(-0.0421122 0.0761269 0)
(-0.0424431 0.0592541 0)
(-0.0422595 0.0412243 0)
(-0.0420378 0.0226 0)
(-0.0420888 0.00361327 0)
(-0.0425431 -0.0156651 0)
(-0.0433402 -0.0351652 0)
(-0.0442127 -0.0546507 0)
(-0.044673 -0.0735239 0)
(-0.0440189 -0.0905885 0)
(-0.0413957 -0.103771 0)
(-0.0359747 -0.109839 0)
(-0.0273206 -0.104255 0)
(-0.0159968 -0.0814247 0)
(-0.00410479 -0.0357572 0)
(-0.00251927 0.0374379 0)
(-0.0102886 0.0834975 0)
(-0.0166821 0.105144 0)
(-0.020161 0.109668 0)
(-0.0206872 0.103346 0)
(-0.0190012 0.0907666 0)
(-0.0160646 0.0749366 0)
(-0.0127785 0.0576449 0)
(-0.00986926 0.0398258 0)
(-0.00786399 0.0218543 0)
(-0.00709865 0.00376936 0)
(-0.00773005 -0.0145533 0)
(-0.00973459 -0.0332519 0)
(-0.0128868 -0.0523218 0)
(-0.016719 -0.0714217 0)
(-0.0204744 -0.089605 0)
(-0.0230901 -0.104945 0)
(-0.0232871 -0.114053 0)
(-0.019902 -0.111578 0)
(-0.0126563 -0.0900628 0)
(-0.00324257 -0.040912 0)
(-0.000380358 0.0414468 0)
(-0.00269631 0.0890182 0)
(-0.00230297 0.107909 0)
(0.00160997 0.108787 0)
(0.00821413 0.0995896 0)
(0.0162031 0.0854071 0)
(0.0243499 0.0691914 0)
(0.0316904 0.0524799 0)
(0.0375366 0.035932 0)
(0.0414299 0.0196848 0)
(0.0430862 0.00358096 0)
(0.0423565 -0.0126781 0)
(0.0392158 -0.0294122 0)
(0.0337838 -0.0468408 0)
(0.0263821 -0.0649182 0)
(0.0176278 -0.0830754 0)
(0.00854606 -0.0997947 0)
(0.000640172 -0.111929 0)
(-0.00424468 -0.113733 0)
(-0.00463004 -0.0958718 0)
(-0.00108048 -0.0455675 0)
(0.0043961 0.0441178 0)
(0.0134095 0.0899955 0)
(0.0253481 0.103557 0)
(0.0398096 0.0999107 0)
(0.055223 0.0882716 0)
(0.0701314 0.0736001 0)
(0.0834675 0.0583379 0)
(0.0945393 0.0435307 0)
(0.102933 0.0294732 0)
(0.10841 0.0160631 0)
(0.11083 0.00299289 0)
(0.110095 -0.0101401 0)
(0.106135 -0.0237591 0)
(0.0989135 -0.0382354 0)
(0.0884769 -0.0537812 0)
(0.0750565 -0.0702555 0)
(0.0592295 -0.0867804 0)
(0.0421454 -0.100986 0)
(0.0257324 -0.107604 0)
(0.0124979 -0.096152 0)
(0.00382941 -0.0486647 0)
(0.0159424 0.0432373 0)
(0.0476064 0.0821833 0)
(0.0773507 0.0881663 0)
(0.104582 0.080527 0)
(0.12864 0.068266 0)
(0.14916 0.0551698 0)
(0.166013 0.0427091 0)
(0.179211 0.0313081 0)
(0.188845 0.0209215 0)
(0.195012 0.0112914 0)
(0.197773 0.00206459 0)
(0.19712 -0.00715268 0)
(0.192954 -0.0167654 0)
(0.185084 -0.027164 0)
(0.173232 -0.0386812 0)
(0.157065 -0.0514957 0)
(0.136274 -0.0653998 0)
(0.110742 -0.0792162 0)
(0.0809216 -0.0893627 0)
(0.0483493 -0.0862827 0)
(0.0156651 -0.0477729 0)
(0.0496311 0.0349357 0)
(0.123044 0.0598183 0)
(0.174553 0.0583697 0)
(0.211364 0.0500148 0)
(0.239 0.040639 0)
(0.260126 0.0318781 0)
(0.276236 0.0241435 0)
(0.288227 0.0174029 0)
(0.296684 0.0114669 0)
(0.301985 0.00609149 0)
(0.304349 0.00101592 0)
(0.303844 -0.00402432 0)
(0.300384 -0.0092938 0)
(0.293711 -0.0150552 0)
(0.283353 -0.0215632 0)
(0.268542 -0.0290454 0)
(0.248054 -0.0376452 0)
(0.219884 -0.047226 0)
(0.180832 -0.0566887 0)
(0.12548 -0.0607113 0)
(0.0497541 -0.0386218 0)
(0.182899 0.00470141 0)
(0.296943 0.00844906 0)
(0.351156 0.0121101 0)
(0.378917 0.011956 0)
(0.396124 0.0101929 0)
(0.40777 0.0081189 0)
(0.416011 0.00616255 0)
(0.421847 0.00442458 0)
(0.42582 0.00288864 0)
(0.428245 0.00150027 0)
(0.429293 0.000193867 0)
(0.429029 -0.00109779 0)
(0.427418 -0.00243899 0)
(0.424312 -0.00388584 0)
(0.419408 -0.0054744 0)
(0.41213 -0.00719136 0)
(0.401346 -0.00890054 0)
(0.384545 -0.0101802 0)
(0.355929 -0.00999429 0)
(0.298591 -0.0072149 0)
(0.181174 -0.00734416 0)
)
;

boundaryField
{
    movingWall
    {
        type            fixedValue;
        value           uniform (0.5 0 0);
    }
    fixedWalls
    {
        type            noSlip;
    }
    frontAndBack
    {
        type            empty;
    }
}


// ************************************************************************* //
