/*--------------------------------*- C++ -*----------------------------------*\
| =========                 |                                                 |
| \\      /  F ield         | OpenFOAM: The Open Source CFD Toolbox           |
|  \\    /   O peration     | Version:  4.1                                   |
|   \\  /    A nd           | Web:      www.OpenFOAM.org                      |
|    \\/     M anipulation  |                                                 |
\*---------------------------------------------------------------------------*/
FoamFile
{
    version     2.0;
    format      ascii;
    class       volScalarField;
    location    "1530";
    object      p;
}
// * * * * * * * * * * * * * * * * * * * * * * * * * * * * * * * * * * * * * //

dimensions      [1 -1 -2 0 0 0 0];

internalField   nonuniform List<scalar> 
1275
(
0.712286
0.712238
0.712231
0.712188
0.712176
0.712132
0.712116
0.712065
0.71205
0.711981
0.712298
0.712246
0.712241
0.712195
0.712185
0.712141
0.712128
0.712082
0.712074
0.712027
0.712316
0.712261
0.712257
0.71221
0.7122
0.712157
0.712144
0.712102
0.71209
0.712051
0.712336
0.71228
0.712276
0.712229
0.712221
0.712178
0.712169
0.712129
0.712122
0.712088
0.712356
0.7123
0.712296
0.712249
0.712241
0.7122
0.712191
0.712154
0.712144
0.712114
0.712372
0.712317
0.712313
0.712267
0.71226
0.712221
0.712212
0.712178
0.712168
0.71214
0.71238
0.712328
0.712323
0.71228
0.712272
0.712236
0.712225
0.712193
0.712182
0.712155
0.712383
0.712334
0.712329
0.712289
0.712279
0.712244
0.712233
0.712202
0.71219
0.712164
0.712377
0.712334
0.712328
0.71229
0.71228
0.712246
0.712233
0.712203
0.712191
0.712165
0.71211
0.712117
0.712124
0.712131
0.712139
0.712146
0.712155
0.712164
0.712173
0.712183
0.712194
0.712205
0.712217
0.71223
0.712244
0.712258
0.712274
0.712291
0.712309
0.712329
0.71235
0.712374
0.712398
0.712425
0.712454
0.712485
0.712519
0.712554
0.712591
0.712631
0.712671
0.712713
0.712756
0.712799
0.712842
0.712883
0.712924
0.712963
0.712999
0.713032
0.713062
0.713089
0.713112
0.713131
0.713147
0.713159
0.713169
0.713175
0.71318
0.713183
0.713184
0.713184
0.713183
0.713182
0.71318
0.713179
0.713177
0.713175
0.713174
0.713173
0.713172
0.713172
0.713172
0.713173
0.713174
0.713175
0.713177
0.713179
0.713181
0.713184
0.713187
0.713191
0.713194
0.713198
0.713202
0.713207
0.713212
0.713217
0.711957
0.712008
0.712001
0.712024
0.712018
0.712027
0.712023
0.712027
0.712024
0.712026
0.712024
0.712025
0.712024
0.712024
0.712024
0.712025
0.712025
0.712025
0.712026
0.712027
0.712028
0.712029
0.712031
0.712032
0.712034
0.712036
0.712038
0.712041
0.712043
0.712046
0.712049
0.712052
0.712056
0.71206
0.712064
0.712068
0.712072
0.712077
0.712082
0.712088
0.712093
0.712099
0.712105
0.712113
0.712119
0.712128
0.712135
0.712144
0.712152
0.712162
0.712172
0.712182
0.712193
0.712205
0.712218
0.712231
0.712245
0.71226
0.712276
0.712293
0.712311
0.71233
0.71235
0.712371
0.712394
0.712418
0.712444
0.712471
0.7125
0.71253
0.712562
0.712595
0.712629
0.712665
0.712701
0.712738
0.712775
0.712811
0.712847
0.712882
0.712916
0.712947
0.712976
0.713002
0.713026
0.713047
0.713064
0.71308
0.713092
0.713102
0.71311
0.713116
0.713121
0.713124
0.713126
0.713127
0.713128
0.713129
0.713129
0.71313
0.713131
0.713132
0.713133
0.713135
0.713137
0.713139
0.713141
0.713144
0.713146
0.713149
0.713152
0.713155
0.713159
0.713163
0.713166
0.713171
0.713175
0.713179
0.713184
0.713189
0.713194
0.7132
0.713205
0.712031
0.712035
0.712029
0.712034
0.712028
0.712031
0.712026
0.712028
0.712025
0.712026
0.712024
0.712024
0.712024
0.712024
0.712024
0.712025
0.712025
0.712026
0.712027
0.712029
0.71203
0.712032
0.712034
0.712036
0.712038
0.712041
0.712043
0.712046
0.712049
0.712053
0.712057
0.712061
0.712065
0.71207
0.712075
0.71208
0.712085
0.712091
0.712098
0.712104
0.712112
0.712119
0.712127
0.712135
0.712145
0.712154
0.712164
0.712174
0.712186
0.712198
0.71221
0.712223
0.712237
0.712252
0.712268
0.712284
0.712301
0.712319
0.712338
0.712359
0.71238
0.712402
0.712425
0.712449
0.712474
0.712501
0.712528
0.712556
0.712586
0.712616
0.712647
0.712678
0.71271
0.712742
0.712774
0.712805
0.712836
0.712866
0.712894
0.712921
0.712945
0.712968
0.712989
0.713007
0.713024
0.713038
0.71305
0.713059
0.713067
0.713074
0.713079
0.713083
0.713087
0.71309
0.713093
0.713096
0.713099
0.713102
0.713105
0.713107
0.71311
0.713113
0.713116
0.713119
0.713122
0.713125
0.713128
0.713131
0.713135
0.713139
0.713143
0.713146
0.713151
0.713155
0.713159
0.713164
0.713168
0.713173
0.713178
0.713183
0.713189
0.713194
0.7132
0.71204
0.71204
0.712035
0.71204
0.712035
0.712038
0.712034
0.712036
0.712033
0.712033
0.712031
0.712031
0.712029
0.71203
0.712029
0.71203
0.71203
0.712031
0.712032
0.712033
0.712035
0.712036
0.712039
0.712041
0.712044
0.712047
0.71205
0.712054
0.712058
0.712062
0.712067
0.712072
0.712077
0.712083
0.712089
0.712096
0.712102
0.71211
0.712118
0.712126
0.712135
0.712144
0.712154
0.712165
0.712175
0.712188
0.7122
0.712213
0.712226
0.712241
0.712256
0.712272
0.712289
0.712307
0.712325
0.712345
0.712365
0.712386
0.712408
0.712431
0.712454
0.712479
0.712504
0.71253
0.712557
0.712584
0.712612
0.71264
0.712668
0.712697
0.712725
0.712754
0.712782
0.712809
0.712836
0.712861
0.712886
0.712909
0.712931
0.712951
0.712969
0.712985
0.712999
0.713011
0.713022
0.713032
0.71304
0.713047
0.713053
0.713059
0.713065
0.71307
0.713074
0.713078
0.713082
0.713085
0.713088
0.713092
0.713095
0.713099
0.713102
0.713106
0.71311
0.713113
0.713117
0.713121
0.713125
0.713128
0.713132
0.713136
0.71314
0.713144
0.713148
0.713153
0.713157
0.713161
0.713166
0.713171
0.713176
0.713181
0.713187
0.713192
0.713198
0.712086
0.712073
0.712068
0.712062
0.712056
0.712052
0.712047
0.712044
0.71204
0.712038
0.712035
0.712034
0.712033
0.712032
0.712032
0.712032
0.712032
0.712033
0.712035
0.712037
0.712039
0.712041
0.712044
0.712047
0.71205
0.712054
0.712058
0.712063
0.712068
0.712073
0.712079
0.712085
0.712091
0.712098
0.712106
0.712114
0.712122
0.712131
0.71214
0.71215
0.712161
0.712172
0.712184
0.712197
0.71221
0.712224
0.712239
0.712254
0.71227
0.712287
0.712305
0.712324
0.712343
0.712363
0.712384
0.712406
0.712429
0.712452
0.712476
0.712501
0.712526
0.712552
0.712578
0.712604
0.712631
0.712657
0.712684
0.712711
0.712737
0.712763
0.712789
0.712814
0.712838
0.71286
0.712882
0.712902
0.712921
0.712938
0.712954
0.712968
0.712981
0.712993
0.713004
0.713014
0.713023
0.713031
0.713038
0.713044
0.71305
0.713055
0.713059
0.713063
0.713068
0.713072
0.713077
0.713081
0.713086
0.71309
0.713094
0.713098
0.713102
0.713106
0.713109
0.713113
0.713117
0.71312
0.713124
0.713128
0.713132
0.713135
0.713139
0.713144
0.713148
0.713152
0.713157
0.713161
0.713166
0.713171
0.713176
0.713181
0.713187
0.713192
0.713198
0.712106
0.712089
0.712082
0.712073
0.712067
0.71206
0.712055
0.712051
0.712047
0.712044
0.712041
0.712039
0.712037
0.712036
0.712035
0.712035
0.712036
0.712037
0.712038
0.71204
0.712043
0.712045
0.712049
0.712052
0.712056
0.712061
0.712066
0.712071
0.712077
0.712083
0.712089
0.712096
0.712104
0.712112
0.712121
0.71213
0.71214
0.71215
0.712161
0.712172
0.712184
0.712197
0.712211
0.712225
0.71224
0.712256
0.712272
0.71229
0.712308
0.712327
0.712346
0.712367
0.712388
0.71241
0.712433
0.712456
0.71248
0.712505
0.71253
0.712555
0.712581
0.712606
0.712632
0.712658
0.712684
0.71271
0.712735
0.712759
0.712783
0.712806
0.712828
0.712849
0.712869
0.712888
0.712905
0.712922
0.712938
0.712952
0.712965
0.712977
0.712988
0.712998
0.713006
0.713014
0.713021
0.713027
0.713033
0.71304
0.713046
0.713052
0.713057
0.713063
0.713068
0.713073
0.713077
0.713082
0.713086
0.71309
0.713093
0.713097
0.713101
0.713105
0.713109
0.713112
0.713116
0.71312
0.713124
0.713128
0.713132
0.713136
0.71314
0.713144
0.713148
0.713152
0.713157
0.713161
0.713166
0.713171
0.713176
0.713181
0.713187
0.713192
0.713198
0.712132
0.712112
0.712105
0.712091
0.712083
0.712073
0.712067
0.712059
0.712054
0.712049
0.712046
0.712042
0.71204
0.712039
0.712038
0.712038
0.712038
0.712039
0.712041
0.712043
0.712046
0.712049
0.712053
0.712057
0.712061
0.712066
0.712072
0.712078
0.712084
0.712091
0.712099
0.712106
0.712115
0.712124
0.712133
0.712144
0.712154
0.712166
0.712178
0.71219
0.712204
0.712218
0.712232
0.712248
0.712264
0.712281
0.712299
0.712318
0.712337
0.712357
0.712378
0.712399
0.712422
0.712445
0.712468
0.712492
0.712516
0.712541
0.712566
0.712591
0.712616
0.712642
0.712667
0.712691
0.712715
0.712739
0.712762
0.712785
0.712807
0.712828
0.712847
0.712866
0.712884
0.712901
0.712916
0.71293
0.712943
0.712955
0.712966
0.712976
0.712985
0.712994
0.713003
0.713012
0.71302
0.713027
0.713034
0.713041
0.713047
0.713052
0.713057
0.713062
0.713067
0.713072
0.713076
0.71308
0.713085
0.713089
0.713093
0.713097
0.713101
0.713105
0.713109
0.713113
0.713117
0.71312
0.713124
0.713128
0.713132
0.713136
0.71314
0.713144
0.713148
0.713153
0.713157
0.713162
0.713167
0.713171
0.713177
0.713182
0.713187
0.713193
0.713199
0.712144
0.712123
0.712114
0.712098
0.712089
0.712077
0.71207
0.712062
0.712056
0.71205
0.712047
0.712043
0.712041
0.712039
0.712038
0.712038
0.712039
0.71204
0.712041
0.712044
0.712047
0.71205
0.712054
0.712058
0.712063
0.712069
0.712075
0.712081
0.712088
0.712095
0.712103
0.712112
0.71212
0.71213
0.71214
0.712151
0.712162
0.712174
0.712186
0.7122
0.712213
0.712228
0.712243
0.712259
0.712276
0.712294
0.712312
0.712331
0.712351
0.712371
0.712392
0.712414
0.712437
0.71246
0.712483
0.712507
0.712531
0.712556
0.71258
0.712605
0.71263
0.712654
0.712679
0.712702
0.712726
0.712748
0.71277
0.712791
0.712812
0.712831
0.712849
0.712866
0.712883
0.712898
0.712913
0.712927
0.71294
0.712952
0.712964
0.712975
0.712985
0.712995
0.713004
0.713012
0.713019
0.713026
0.713032
0.713039
0.713045
0.71305
0.713056
0.713062
0.713067
0.713072
0.713076
0.713081
0.713085
0.713089
0.713093
0.713097
0.713101
0.713105
0.713109
0.713112
0.713116
0.71312
0.713124
0.713128
0.713132
0.713136
0.71314
0.713144
0.713148
0.713153
0.713157
0.713162
0.713167
0.713172
0.713177
0.713182
0.713187
0.713193
0.713199
0.712152
0.712131
0.712121
0.712104
0.712095
0.712082
0.712074
0.712065
0.712059
0.712052
0.712048
0.712044
0.712042
0.71204
0.712039
0.712039
0.712039
0.712041
0.712042
0.712045
0.712048
0.712051
0.712055
0.71206
0.712065
0.712071
0.712077
0.712083
0.71209
0.712098
0.712106
0.712114
0.712123
0.712133
0.712143
0.712154
0.712166
0.712178
0.71219
0.712204
0.712218
0.712233
0.712248
0.712264
0.712281
0.712299
0.712318
0.712337
0.712357
0.712377
0.712398
0.71242
0.712442
0.712465
0.712489
0.712512
0.712536
0.71256
0.712584
0.712609
0.712633
0.712657
0.71268
0.712703
0.712726
0.712748
0.712769
0.71279
0.71281
0.712829
0.712848
0.712866
0.712882
0.712898
0.712913
0.712927
0.71294
0.712952
0.712963
0.712974
0.712983
0.712993
0.713002
0.71301
0.713018
0.713025
0.713032
0.713039
0.713045
0.713051
0.713056
0.713061
0.713066
0.713071
0.713076
0.71308
0.713084
0.713089
0.713093
0.713097
0.713101
0.713105
0.713109
0.713112
0.713116
0.71312
0.713124
0.713128
0.713132
0.713136
0.71314
0.713144
0.713148
0.713153
0.713157
0.713162
0.713167
0.713172
0.713177
0.713182
0.713188
0.713193
0.713199
0.712153
0.712131
0.71212
0.712103
0.712093
0.71208
0.712072
0.712063
0.712057
0.71205
0.712046
0.712042
0.71204
0.712037
0.712037
0.712036
0.712037
0.712038
0.71204
0.712043
0.712046
0.712049
0.712053
0.712058
0.712063
0.712069
0.712075
0.712081
0.712088
0.712096
0.712104
0.712112
0.712122
0.712131
0.712141
0.712152
0.712164
0.712176
0.712188
0.712202
0.712216
0.71223
0.712246
0.712262
0.712279
0.712296
0.712315
0.712334
0.712353
0.712373
0.712394
0.712416
0.712438
0.712461
0.712484
0.712508
0.712531
0.712555
0.71258
0.712604
0.712628
0.712652
0.712676
0.712699
0.712722
0.712744
0.712766
0.712787
0.712807
0.712826
0.712845
0.712863
0.712879
0.712895
0.71291
0.712924
0.712937
0.71295
0.712961
0.712972
0.712983
0.712992
0.713001
0.713009
0.713017
0.713025
0.713031
0.713038
0.713044
0.71305
0.713055
0.713061
0.713066
0.713071
0.713075
0.71308
0.713084
0.713088
0.713092
0.713096
0.7131
0.713104
0.713108
0.713112
0.713116
0.71312
0.713124
0.713127
0.713131
0.713135
0.71314
0.713144
0.713148
0.713152
0.713157
0.713162
0.713166
0.713171
0.713176
0.713182
0.713187
0.713193
0.713199
)
;

boundaryField
{
    inlet
    {
        type            zeroGradient;
    }
    outlet
    {
        type            fixedValue;
        value           nonuniform 0();
    }
    walls
    {
        type            zeroGradient;
    }
    symwall
    {
        type            empty;
    }
    procBoundary2to0
    {
        type            processor;
        value           nonuniform List<scalar> 
133
(
0.712102
0.712107
0.712113
0.712119
0.712126
0.712132
0.712139
0.712147
0.712154
0.712163
0.712171
0.71218
0.71219
0.712201
0.712212
0.712224
0.712237
0.712251
0.712266
0.712283
0.712301
0.712322
0.712344
0.712368
0.712395
0.712424
0.712456
0.712491
0.712529
0.712569
0.712612
0.712658
0.712705
0.712754
0.712803
0.712853
0.712902
0.712951
0.712997
0.71304
0.713081
0.713117
0.71315
0.713179
0.713203
0.713223
0.713239
0.71325
0.713259
0.713264
0.713267
0.713267
0.713265
0.713263
0.713259
0.713255
0.71325
0.713245
0.71324
0.713236
0.713232
0.713228
0.713225
0.713222
0.71322
0.713218
0.713217
0.713217
0.713216
0.713217
0.713218
0.713219
0.713221
0.713223
0.713226
0.713229
0.713233
0.712277
0.712235
0.712228
0.712186
0.712174
0.71213
0.712115
0.712064
0.712054
0.711981
0.711998
0.712025
0.712018
0.712024
0.712018
0.712021
0.712018
0.712019
0.712018
0.712019
0.712018
0.712019
0.712019
0.71202
0.71202
0.712021
0.712021
0.712022
0.712023
0.712024
0.712025
0.712027
0.712028
0.71203
0.712031
0.712033
0.712035
0.712037
0.71204
0.712042
0.712045
0.712048
0.712051
0.712054
0.712058
0.712061
0.712065
0.712069
0.712073
0.712078
0.712083
0.712088
0.712093
0.712098
0.712105
0.712105
)
;
    }
    procBoundary2to1
    {
        type            processor;
        value           uniform 0.713237;
    }
    procBoundary2to3
    {
        type            processor;
        value           nonuniform List<scalar> 10(0.713222 0.713211 0.713206 0.713204 0.713204 0.713204 0.713205 0.713205 0.713206 0.713205);
    }
}


// ************************************************************************* //
