/*--------------------------------*- C++ -*----------------------------------*\
| =========                 |                                                 |
| \\      /  F ield         | OpenFOAM: The Open Source CFD Toolbox           |
|  \\    /   O peration     | Version:  4.1                                   |
|   \\  /    A nd           | Web:      www.OpenFOAM.org                      |
|    \\/     M anipulation  |                                                 |
\*---------------------------------------------------------------------------*/
FoamFile
{
    version     2.0;
    format      ascii;
    class       volVectorField;
    location    "1410";
    object      U;
}
// * * * * * * * * * * * * * * * * * * * * * * * * * * * * * * * * * * * * * //

dimensions      [0 1 -1 0 0 0 0];

internalField   nonuniform List<vector> 
1275
(
(0.013951 0.000100979 0)
(0.0135472 9.35611e-05 0)
(0.0131375 8.61319e-05 0)
(0.0127238 7.88402e-05 0)
(0.0123082 7.17727e-05 0)
(0.011892 6.50908e-05 0)
(0.0114769 5.88008e-05 0)
(0.0110638 5.30112e-05 0)
(0.0106536 4.7691e-05 0)
(0.0102471 4.28951e-05 0)
(0.0098449 3.85736e-05 0)
(0.00944757 3.47418e-05 0)
(0.00905548 3.13421e-05 0)
(0.00866911 2.83657e-05 0)
(0.00828875 2.57549e-05 0)
(0.0079148 2.34884e-05 0)
(0.00754752 2.15133e-05 0)
(0.00718729 1.9803e-05 0)
(0.00683435 1.8311e-05 0)
(0.00648907 1.70097e-05 0)
(0.00615172 1.58582e-05 0)
(0.00582264 1.48295e-05 0)
(0.00550212 1.38874e-05 0)
(0.00519047 1.30058e-05 0)
(0.00488795 1.21531e-05 0)
(0.00459487 1.13055e-05 0)
(0.00431145 1.0437e-05 0)
(0.00403792 9.52924e-06 0)
(0.00377448 8.56469e-06 0)
(0.00352127 7.5342e-06 0)
(0.00327842 6.4325e-06 0)
(0.00304599 5.26322e-06 0)
(0.002824 4.03551e-06 0)
(0.00261244 2.76678e-06 0)
(0.00241123 1.47946e-06 0)
(0.00222027 2.01662e-07 0)
(0.00203939 -1.03633e-06 0)
(0.00186842 -2.20281e-06 0)
(0.00170712 -3.26817e-06 0)
(0.00155526 -4.20612e-06 0)
(0.00141255 -4.99654e-06 0)
(0.00127871 -5.6262e-06 0)
(0.00115343 -6.09017e-06 0)
(0.00103639 -6.39147e-06 0)
(0.000927267 -6.54089e-06 0)
(0.000825712 -6.55542e-06 0)
(0.00073138 -6.45688e-06 0)
(0.00064392 -6.26975e-06 0)
(0.000562978 -6.01935e-06 0)
(0.000488199 -5.72978e-06 0)
(0.000419235 -5.42255e-06 0)
(0.000355744 -5.11526e-06 0)
(0.000297396 -4.82108e-06 0)
(0.000243877 -4.54854e-06 0)
(0.000194888 -4.30188e-06 0)
(0.000150148 -4.08164e-06 0)
(0.000109398 -3.8856e-06 0)
(7.23956e-05 -3.70971e-06 0)
(3.892e-05 -3.54905e-06 0)
(8.76975e-06 -3.39869e-06 0)
(-1.82376e-05 -3.2543e-06 0)
(-4.22658e-05 -3.11259e-06 0)
(-6.34608e-05 -2.97157e-06 0)
(-8.19513e-05 -2.83052e-06 0)
(-9.78498e-05 -2.68991e-06 0)
(-0.000111253 -2.55121e-06 0)
(-0.000122245 -2.41657e-06 0)
(-0.000130892 -2.28859e-06 0)
(-0.000137254 -2.17003e-06 0)
(-0.000141374 -2.06359e-06 0)
(-0.000143289 -1.97177e-06 0)
(-0.000143024 -1.89668e-06 0)
(-0.000140599 -1.84004e-06 0)
(-0.000136026 -1.80311e-06 0)
(-0.000129312 -1.7867e-06 0)
(-0.000120458 -1.79121e-06 0)
(-0.000109463 -1.81667e-06 0)
(-9.63236e-05 -1.86277e-06 0)
(-8.10348e-05 -1.92894e-06 0)
(-6.35903e-05 -2.0144e-06 0)
(-4.39841e-05 -2.1182e-06 0)
(-2.22111e-05 -2.23927e-06 0)
(1.73306e-06 -2.37647e-06 0)
(2.78502e-05 -2.52859e-06 0)
(5.61407e-05 -2.6944e-06 0)
(8.66014e-05 -2.87268e-06 0)
(0.000119227 -3.0622e-06 0)
(0.000154009 -3.26174e-06 0)
(0.000190935 -3.47016e-06 0)
(0.000229989 -3.68623e-06 0)
(0.000271153 -3.90895e-06 0)
(0.000314402 -4.13704e-06 0)
(0.000359711 -4.3697e-06 0)
(0.000407048 -4.60548e-06 0)
(0.000456379 -4.84395e-06 0)
(0.000507668 -5.08322e-06 0)
(0.000560869 -5.3236e-06 0)
(0.000615946 -5.56224e-06 0)
(0.000672834 -5.80087e-06 0)
(0.00073151 -6.03476e-06 0)
(0.000791873 -6.26835e-06 0)
(0.000853942 -6.49333e-06 0)
(0.000917535 -6.71916e-06 0)
(0.000982779 -6.93094e-06 0)
(0.00104933 -7.1472e-06 0)
(0.00111754 -7.34127e-06 0)
(0.00118671 -7.54746e-06 0)
(0.00125771 -7.71901e-06 0)
(0.00132913 -7.91638e-06 0)
(0.00140282 -8.06033e-06 0)
(0.00147598 -8.25215e-06 0)
(0.00155241 -8.36372e-06 0)
(0.00162663 -8.55469e-06 0)
(0.00170613 -8.63173e-06 0)
(0.00178037 -8.82534e-06 0)
(0.00186376 -8.87525e-06 0)
(0.00193646 -9.06641e-06 0)
(0.0020253 -9.12449e-06 0)
(0.00209406 -9.2832e-06 0)
(0.00219107 -9.46152e-06 0)
(0.00225233 -9.50373e-06 0)
(0.00236184 -1.01297e-05 0)
(0.00241089 -9.89652e-06 0)
(0.00253924 -1.19571e-05 0)
(0.0025716 -1.141e-05 0)
(0.00272753 -1.82075e-05 0)
(0.00274573 -1.92575e-05 0)
(0.00294268 -4.59135e-05 0)
(0.0397614 0.000702869 0)
(0.0391958 0.000725638 0)
(0.0385857 0.00074345 0)
(0.0379348 0.000757039 0)
(0.0372474 0.000766703 0)
(0.0365268 0.000773158 0)
(0.0357768 0.000776608 0)
(0.0350003 0.000777631 0)
(0.0342005 0.000776383 0)
(0.0333801 0.000773287 0)
(0.0325418 0.000768461 0)
(0.0316881 0.000762197 0)
(0.0308211 0.000754574 0)
(0.0299434 0.000745783 0)
(0.0290568 0.000735873 0)
(0.0281636 0.000724964 0)
(0.0272655 0.000713086 0)
(0.0263647 0.000700317 0)
(0.025463 0.000686675 0)
(0.0245623 0.000672218 0)
(0.0236643 0.000656968 0)
(0.022771 0.000640977 0)
(0.0218842 0.00062428 0)
(0.0210057 0.000606937 0)
(0.0201372 0.000588998 0)
(0.0192805 0.000570535 0)
(0.0184372 0.000551618 0)
(0.0176091 0.000532332 0)
(0.0167977 0.00051276 0)
(0.0160045 0.000492993 0)
(0.0152309 0.000473119 0)
(0.0144783 0.000453227 0)
(0.0137476 0.0004334 0)
(0.0130401 0.000413714 0)
(0.0123566 0.000394235 0)
(0.0116979 0.00037502 0)
(0.0110646 0.000356115 0)
(0.0104572 0.000337555 0)
(0.00987586 0.000319368 0)
(0.00932086 0.000301578 0)
(0.00879217 0.000284203 0)
(0.00828968 0.000267265 0)
(0.00781313 0.000250786 0)
(0.00736216 0.000234793 0)
(0.00693628 0.000219319 0)
(0.00653495 0.000204397 0)
(0.0061575 0.000190063 0)
(0.00580324 0.000176351 0)
(0.00547141 0.000163289 0)
(0.0051612 0.000150896 0)
(0.00487179 0.000139182 0)
(0.00460234 0.000128147 0)
(0.00435198 0.000117778 0)
(0.00411988 0.000108051 0)
(0.00390519 9.89376e-05 0)
(0.00370709 9.03984e-05 0)
(0.00352479 8.23917e-05 0)
(0.0033575 7.48733e-05 0)
(0.0032045 6.77977e-05 0)
(0.00306506 6.11206e-05 0)
(0.00293854 5.47991e-05 0)
(0.00282429 4.87928e-05 0)
(0.00272173 4.30641e-05 0)
(0.00263032 3.75783e-05 0)
(0.00254955 3.23039e-05 0)
(0.00247895 2.72122e-05 0)
(0.00241811 2.22771e-05 0)
(0.00236664 1.74754e-05 0)
(0.00232417 1.27862e-05 0)
(0.00229039 8.19062e-06 0)
(0.00226501 3.67222e-06 0)
(0.00224777 -7.83638e-07 0)
(0.00223842 -5.18965e-06 0)
(0.00223675 -9.55673e-06 0)
(0.00224256 -1.3894e-05 0)
(0.00225567 -1.82091e-05 0)
(0.00227591 -2.25077e-05 0)
(0.00230312 -2.67942e-05 0)
(0.00233717 -3.10716e-05 0)
(0.0023779 -3.53414e-05 0)
(0.00242521 -3.96038e-05 0)
(0.00247894 -4.3858e-05 0)
(0.002539 -4.81019e-05 0)
(0.00260524 -5.23329e-05 0)
(0.00267757 -5.65472e-05 0)
(0.00275585 -6.07404e-05 0)
(0.00283996 -6.49077e-05 0)
(0.00292979 -6.90437e-05 0)
(0.00302521 -7.31425e-05 0)
(0.00312609 -7.71981e-05 0)
(0.00323231 -8.12044e-05 0)
(0.00334373 -8.51544e-05 0)
(0.00346022 -8.90428e-05 0)
(0.00358164 -9.28612e-05 0)
(0.00370784 -9.66062e-05 0)
(0.00383868 -0.000100267 0)
(0.00397401 -0.000103844 0)
(0.00411369 -0.000107322 0)
(0.00425753 -0.00011071 0)
(0.00440542 -0.00011398 0)
(0.00455713 -0.00011716 0)
(0.00471261 -0.000120199 0)
(0.00487153 -0.000123161 0)
(0.00503397 -0.000125944 0)
(0.00519941 -0.000128686 0)
(0.0053682 -0.000131189 0)
(0.00553942 -0.000133723 0)
(0.00571403 -0.000135913 0)
(0.00589022 -0.000138275 0)
(0.00607025 -0.000140105 0)
(0.00625048 -0.000142361 0)
(0.00643573 -0.000143761 0)
(0.00661885 -0.000146023 0)
(0.00680955 -0.000146887 0)
(0.00699397 -0.000149322 0)
(0.00719101 -0.000149508 0)
(0.00737441 -0.000152336 0)
(0.00757979 -0.000151697 0)
(0.00775869 -0.000155142 0)
(0.00797607 -0.000153672 0)
(0.00814526 -0.000157806 0)
(0.00838069 -0.000156085 0)
(0.00853284 -0.000160484 0)
(0.00879519 -0.000160928 0)
(0.00892125 -0.000164252 0)
(0.00922161 -0.000174867 0)
(0.0093129 -0.000175356 0)
(0.00966068 -0.0002241 0)
(0.0612405 0.00117909 0)
(0.0607933 0.00126531 0)
(0.0602892 0.00134266 0)
(0.0597306 0.00141233 0)
(0.0591204 0.00147447 0)
(0.058461 0.00153013 0)
(0.0577549 0.00157944 0)
(0.0570043 0.00162323 0)
(0.0562114 0.00166165 0)
(0.0553782 0.00169529 0)
(0.0545067 0.00172429 0)
(0.0535989 0.00174907 0)
(0.0526564 0.00176974 0)
(0.0516813 0.00178654 0)
(0.0506751 0.00179955 0)
(0.0496398 0.00180893 0)
(0.0485771 0.00181468 0)
(0.047489 0.0018169 0)
(0.0463772 0.00181557 0)
(0.0452439 0.00181073 0)
(0.044091 0.00180236 0)
(0.0429208 0.00179047 0)
(0.0417354 0.00177504 0)
(0.0405374 0.0017561 0)
(0.0393291 0.00173367 0)
(0.0381133 0.00170779 0)
(0.0368926 0.00167853 0)
(0.03567 0.00164598 0)
(0.0344484 0.00161029 0)
(0.0332309 0.00157161 0)
(0.0320205 0.00153013 0)
(0.0308205 0.00148609 0)
(0.0296338 0.00143975 0)
(0.0284637 0.0013914 0)
(0.0273132 0.00134135 0)
(0.0261853 0.00128993 0)
(0.0250826 0.00123748 0)
(0.0240078 0.00118433 0)
(0.0229634 0.00113083 0)
(0.0219513 0.0010773 0)
(0.0209735 0.00102403 0)
(0.0200316 0.00097132 0)
(0.0191268 0.000919407 0)
(0.01826 0.000868512 0)
(0.0174319 0.000818819 0)
(0.016643 0.000770481 0)
(0.0158933 0.000723615 0)
(0.0151826 0.000678312 0)
(0.0145107 0.000634633 0)
(0.0138769 0.000592619 0)
(0.0132805 0.000552289 0)
(0.0127207 0.000513647 0)
(0.0121964 0.000476682 0)
(0.0117066 0.000441373 0)
(0.0112502 0.00040769 0)
(0.0108259 0.000375593 0)
(0.0104326 0.000345036 0)
(0.0100689 0.000315965 0)
(0.00973373 0.000288319 0)
(0.00942583 0.000262031 0)
(0.00914401 0.00023703 0)
(0.00888714 0.00021324 0)
(0.0086541 0.00019058 0)
(0.00844382 0.00016897 0)
(0.00825529 0.000148328 0)
(0.00808753 0.000128574 0)
(0.00793964 0.00010963 0)
(0.00781072 9.1421e-05 0)
(0.00769997 7.3877e-05 0)
(0.00760662 5.69328e-05 0)
(0.00752993 4.05288e-05 0)
(0.00746922 2.46108e-05 0)
(0.00742385 9.13075e-06 0)
(0.00739323 -5.95376e-06 0)
(0.00737677 -2.06796e-05 0)
(0.00737396 -3.50783e-05 0)
(0.00738428 -4.91763e-05 0)
(0.00740727 -6.29957e-05 0)
(0.00744247 -7.65538e-05 0)
(0.00748945 -8.98645e-05 0)
(0.0075478 -0.000102938 0)
(0.00761713 -0.000115781 0)
(0.00769706 -0.000128398 0)
(0.00778723 -0.000140791 0)
(0.00788728 -0.00015296 0)
(0.00799688 -0.000164902 0)
(0.00811569 -0.000176614 0)
(0.00824338 -0.000188091 0)
(0.00837963 -0.000199328 0)
(0.00852414 -0.000210317 0)
(0.00867658 -0.000221052 0)
(0.00883666 -0.000231525 0)
(0.00900408 -0.000241729 0)
(0.00917853 -0.000251653 0)
(0.00935974 -0.000261294 0)
(0.0095474 -0.000270638 0)
(0.00974123 -0.000279687 0)
(0.00994096 -0.000288419 0)
(0.0101463 -0.000296851 0)
(0.010357 -0.000304941 0)
(0.0105727 -0.000312738 0)
(0.0107932 -0.000320161 0)
(0.0110182 -0.000327317 0)
(0.0112476 -0.000334046 0)
(0.0114809 -0.000340573 0)
(0.0117181 -0.00034658 0)
(0.0119586 -0.000352516 0)
(0.0122028 -0.000357764 0)
(0.0124494 -0.000363187 0)
(0.0126999 -0.000367615 0)
(0.0129514 -0.00037266 0)
(0.0132078 -0.000376166 0)
(0.013463 -0.000381051 0)
(0.0137252 -0.00038347 0)
(0.0139823 -0.00038852 0)
(0.014251 -0.000389613 0)
(0.0145076 -0.00039527 0)
(0.0147847 -0.000394761 0)
(0.0150371 -0.000401536 0)
(0.0153264 -0.00039931 0)
(0.0155689 -0.000407566 0)
(0.015877 -0.000404276 0)
(0.0161009 -0.000413657 0)
(0.0164386 -0.000412323 0)
(0.0166309 -0.000420545 0)
(0.0170137 -0.000430129 0)
(0.0171543 -0.000431893 0)
(0.0176023 -0.000470526 0)
(0.0796501 0.00153957 0)
(0.0792722 0.0016804 0)
(0.0788435 0.00180996 0)
(0.0783657 0.00193001 0)
(0.0778405 0.00204061 0)
(0.0772697 0.0021432 0)
(0.0766545 0.00223794 0)
(0.0759963 0.00232589 0)
(0.075296 0.00240724 0)
(0.0745548 0.00248274 0)
(0.0737735 0.00255257 0)
(0.072953 0.00261722 0)
(0.072094 0.0026768 0)
(0.0711972 0.0027316 0)
(0.0702632 0.00278165 0)
(0.0692928 0.00282708 0)
(0.0682867 0.00286785 0)
(0.0672456 0.00290396 0)
(0.0661702 0.0029353 0)
(0.0650615 0.00296178 0)
(0.0639202 0.00298324 0)
(0.0627476 0.00299952 0)
(0.0615448 0.00301045 0)
(0.0603131 0.00301584 0)
(0.059054 0.00301551 0)
(0.0577692 0.0030093 0)
(0.0564606 0.00299703 0)
(0.0551303 0.0029786 0)
(0.0537805 0.00295389 0)
(0.0524138 0.00292287 0)
(0.051033 0.00288551 0)
(0.0496409 0.00284189 0)
(0.0482407 0.00279209 0)
(0.0468359 0.0027363 0)
(0.04543 0.00267475 0)
(0.0440266 0.00260775 0)
(0.0426297 0.00253567 0)
(0.041243 0.00245895 0)
(0.0398705 0.00237807 0)
(0.0385161 0.00229359 0)
(0.0371837 0.00220607 0)
(0.0358771 0.00211614 0)
(0.0345997 0.00202442 0)
(0.033355 0.00193154 0)
(0.0321461 0.00183811 0)
(0.0309757 0.00174474 0)
(0.0298462 0.00165198 0)
(0.0287598 0.00156033 0)
(0.0277182 0.00147026 0)
(0.0267226 0.00138215 0)
(0.025774 0.00129634 0)
(0.024873 0.00121307 0)
(0.0240198 0.00113255 0)
(0.0232142 0.00105491 0)
(0.0224559 0.00098023 0)
(0.0217443 0.00090855 0)
(0.0210784 0.00083986 0)
(0.0204572 0.00077412 0)
(0.0198796 0.000711261 0)
(0.0193443 0.000651197 0)
(0.0188497 0.000593822 0)
(0.0183947 0.000539022 0)
(0.0179775 0.000486674 0)
(0.0175969 0.000436653 0)
(0.0172513 0.000388831 0)
(0.0169392 0.00034308 0)
(0.0166592 0.000299274 0)
(0.01641 0.000257291 0)
(0.0161902 0.000217014 0)
(0.0159985 0.00017833 0)
(0.0158337 0.000141132 0)
(0.0156944 0.000105321 0)
(0.0155797 7.08027e-05 0)
(0.0154884 3.74927e-05 0)
(0.0154194 5.31245e-06 0)
(0.0153717 -2.58086e-05 0)
(0.0153444 -5.59339e-05 0)
(0.0153365 -8.51197e-05 0)
(0.0153472 -0.000113415 0)
(0.0153757 -0.000140864 0)
(0.015421 -0.000167502 0)
(0.0154825 -0.000193362 0)
(0.0155594 -0.000218469 0)
(0.015651 -0.000242847 0)
(0.0157566 -0.000266512 0)
(0.0158755 -0.000289479 0)
(0.0160072 -0.00031176 0)
(0.016151 -0.000333364 0)
(0.0163062 -0.000354296 0)
(0.0164725 -0.000374562 0)
(0.0166491 -0.000394166 0)
(0.0168356 -0.000413108 0)
(0.0170314 -0.000431393 0)
(0.0172361 -0.000449017 0)
(0.0174491 -0.000465987 0)
(0.01767 -0.000482294 0)
(0.0178983 -0.000497951 0)
(0.0181336 -0.000512942 0)
(0.0183755 -0.000527294 0)
(0.0186236 -0.000540968 0)
(0.0188774 -0.000554031 0)
(0.0191365 -0.000566393 0)
(0.0194007 -0.000578196 0)
(0.0196695 -0.000589249 0)
(0.0199425 -0.000599845 0)
(0.0202197 -0.00060959 0)
(0.0205002 -0.000619067 0)
(0.0207845 -0.000627488 0)
(0.0210713 -0.000635987 0)
(0.0213616 -0.000643039 0)
(0.0216533 -0.000650781 0)
(0.021949 -0.000656355 0)
(0.0222443 -0.000663679 0)
(0.0225449 -0.00066757 0)
(0.0228422 -0.000674975 0)
(0.0231482 -0.000676848 0)
(0.0234451 -0.000685025 0)
(0.0237579 -0.000684442 0)
(0.024051 -0.000694229 0)
(0.0243742 -0.000690859 0)
(0.0246575 -0.000702968 0)
(0.024998 -0.000697298 0)
(0.0252616 -0.000711533 0)
(0.0256317 -0.000706524 0)
(0.0258583 -0.000720448 0)
(0.0262787 -0.000723903 0)
(0.0264381 -0.000732188 0)
(0.026941 -0.000757015 0)
(0.0956587 0.00187912 0)
(0.0953045 0.00206949 0)
(0.0949079 0.0022464 0)
(0.0944707 0.00241233 0)
(0.0939938 0.00256719 0)
(0.0934788 0.0027128 0)
(0.0929262 0.00284933 0)
(0.0923373 0.00297809 0)
(0.0917122 0.00309935 0)
(0.0910519 0.003214 0)
(0.0903566 0.00332231 0)
(0.0896267 0.00342486 0)
(0.0888624 0.00352185 0)
(0.088064 0.00361361 0)
(0.0872314 0.00370024 0)
(0.0863649 0.00378187 0)
(0.0854643 0.00385849 0)
(0.08453 0.00393008 0)
(0.0835617 0.00399651 0)
(0.0825597 0.00405763 0)
(0.0815241 0.00411323 0)
(0.0804551 0.00416307 0)
(0.079353 0.00420686 0)
(0.0782181 0.00424429 0)
(0.077051 0.00427504 0)
(0.0758522 0.00429877 0)
(0.0746226 0.00431515 0)
(0.0733632 0.00432386 0)
(0.0720751 0.00432458 0)
(0.0707597 0.00431703 0)
(0.0694185 0.00430097 0)
(0.0680534 0.0042762 0)
(0.0666664 0.00424258 0)
(0.0652598 0.00420003 0)
(0.0638362 0.00414854 0)
(0.0623982 0.00408816 0)
(0.060949 0.00401905 0)
(0.0594917 0.00394144 0)
(0.0580298 0.00385563 0)
(0.056567 0.00376203 0)
(0.055107 0.00366113 0)
(0.0536537 0.00355348 0)
(0.0522111 0.00343973 0)
(0.0507833 0.00332056 0)
(0.0493742 0.00319674 0)
(0.047988 0.00306905 0)
(0.0466284 0.00293831 0)
(0.0452992 0.00280535 0)
(0.0440039 0.00267099 0)
(0.0427459 0.00253604 0)
(0.041528 0.00240125 0)
(0.040353 0.00226735 0)
(0.0392232 0.002135 0)
(0.0381404 0.00200479 0)
(0.0371064 0.00187722 0)
(0.0361222 0.00175274 0)
(0.0351886 0.0016317 0)
(0.0343062 0.00151436 0)
(0.033475 0.00140093 0)
(0.0326948 0.00129154 0)
(0.0319651 0.00118626 0)
(0.0312852 0.00108508 0)
(0.0306542 0.000987989 0)
(0.0300709 0.000894896 0)
(0.0295341 0.000805701 0)
(0.0290424 0.000720278 0)
(0.0285943 0.000638482 0)
(0.0281882 0.000560159 0)
(0.0278227 0.00048515 0)
(0.0274961 0.000413294 0)
(0.0272069 0.000344433 0)
(0.0269534 0.000278411 0)
(0.026734 0.000215081 0)
(0.0265473 0.000154303 0)
(0.0263918 9.59438e-05 0)
(0.0262659 3.98808e-05 0)
(0.0261682 -1.40001e-05 0)
(0.0260975 -6.58037e-05 0)
(0.0260523 -0.000115626 0)
(0.0260313 -0.000163554 0)
(0.0260334 -0.000209669 0)
(0.0260573 -0.00025404 0)
(0.0261018 -0.000296734 0)
(0.026166 -0.000337808 0)
(0.0262486 -0.000377317 0)
(0.0263488 -0.000415306 0)
(0.0264654 -0.000451819 0)
(0.0265976 -0.000486896 0)
(0.0267445 -0.00052057 0)
(0.0269052 -0.000552876 0)
(0.0270789 -0.000583841 0)
(0.0272647 -0.000613494 0)
(0.0274619 -0.000641861 0)
(0.0276698 -0.000668964 0)
(0.0278876 -0.00069483 0)
(0.0281147 -0.000719474 0)
(0.0283505 -0.000742929 0)
(0.0285942 -0.0007652 0)
(0.0288454 -0.000786333 0)
(0.0291034 -0.000806312 0)
(0.0293678 -0.000825216 0)
(0.0296379 -0.000842984 0)
(0.0299134 -0.000859766 0)
(0.0301937 -0.000875402 0)
(0.0304784 -0.000890187 0)
(0.030767 -0.000903766 0)
(0.0310593 -0.000916716 0)
(0.0313547 -0.000928297 0)
(0.031653 -0.000939627 0)
(0.0319539 -0.000949238 0)
(0.0322568 -0.000959244 0)
(0.032562 -0.000966848 0)
(0.0328682 -0.000975951 0)
(0.0331771 -0.000981408 0)
(0.033485 -0.000990201 0)
(0.0337974 -0.000993228 0)
(0.0341052 -0.00100252 0)
(0.0344221 -0.00100269 0)
(0.0347266 -0.0010135 0)
(0.0350511 -0.00101036 0)
(0.0353466 -0.00102378 0)
(0.0356856 -0.00101731 0)
(0.0359615 -0.00103391 0)
(0.0363281 -0.00102565 0)
(0.0365653 -0.00104426 0)
(0.036983 -0.00103975 0)
(0.0371463 -0.00105439 0)
(0.0376552 -0.0010646 0)
(0.108237 0.00220499 0)
(0.107921 0.00243271 0)
(0.107572 0.00264544 0)
(0.107192 0.00284611 0)
(0.106781 0.00303469 0)
(0.106341 0.00321323 0)
(0.10587 0.00338208 0)
(0.105371 0.00354265 0)
(0.104842 0.00369539 0)
(0.104284 0.00384128 0)
(0.103698 0.00398073 0)
(0.103083 0.00411439 0)
(0.102438 0.00424255 0)
(0.101765 0.00436561 0)
(0.101062 0.00448371 0)
(0.100329 0.00459703 0)
(0.0995664 0.00470557 0)
(0.0987735 0.00480932 0)
(0.0979499 0.00490814 0)
(0.0970956 0.00500187 0)
(0.09621 0.00509024 0)
(0.0952931 0.00517296 0)
(0.0943445 0.00524965 0)
(0.0933643 0.00531993 0)
(0.0923523 0.00538336 0)
(0.0913087 0.00543947 0)
(0.0902335 0.00548778 0)
(0.0891272 0.00552781 0)
(0.08799 0.00555905 0)
(0.0868228 0.00558105 0)
(0.0856261 0.00559334 0)
(0.084401 0.00559551 0)
(0.0831487 0.00558719 0)
(0.0818705 0.00556805 0)
(0.080568 0.00553785 0)
(0.0792432 0.00549642 0)
(0.077898 0.00544365 0)
(0.0765347 0.00537956 0)
(0.0751559 0.00530424 0)
(0.0737642 0.00521788 0)
(0.0723627 0.00512078 0)
(0.0709544 0.00501335 0)
(0.0695428 0.00489607 0)
(0.0681311 0.00476955 0)
(0.0667231 0.00463445 0)
(0.0653224 0.00449153 0)
(0.0639327 0.00434161 0)
(0.0625578 0.00418555 0)
(0.0612014 0.00402427 0)
(0.0598672 0.00385869 0)
(0.0585587 0.00368975 0)
(0.0572795 0.0035184 0)
(0.0560327 0.00334556 0)
(0.0548215 0.0031721 0)
(0.0536485 0.00299887 0)
(0.0525164 0.00282667 0)
(0.0514274 0.00265621 0)
(0.0503834 0.00248814 0)
(0.049386 0.00232306 0)
(0.0484364 0.00216145 0)
(0.0475357 0.00200374 0)
(0.0466843 0.00185027 0)
(0.0458827 0.00170132 0)
(0.0451309 0.00155707 0)
(0.0444286 0.00141768 0)
(0.0437753 0.00128319 0)
(0.0431703 0.00115366 0)
(0.0426127 0.00102904 0)
(0.0421015 0.000909292 0)
(0.0416354 0.000794319 0)
(0.0412131 0.000684014 0)
(0.0408332 0.000578247 0)
(0.0404943 0.000476879 0)
(0.0401946 0.000379763 0)
(0.0399328 0.000286745 0)
(0.0397072 0.000197674 0)
(0.0395162 0.0001124 0)
(0.0393583 3.07761e-05 0)
(0.0392317 -4.73402e-05 0)
(0.0391351 -0.000122084 0)
(0.0390668 -0.000193585 0)
(0.0390254 -0.000261966 0)
(0.0390094 -0.000327341 0)
(0.0390175 -0.000389819 0)
(0.0390482 -0.000449502 0)
(0.0391002 -0.000506487 0)
(0.0391723 -0.000560864 0)
(0.0392632 -0.000612717 0)
(0.0393717 -0.000662127 0)
(0.0394967 -0.000709169 0)
(0.0396372 -0.000753916 0)
(0.0397921 -0.000796435 0)
(0.0399603 -0.000836793 0)
(0.0401409 -0.000875051 0)
(0.0403331 -0.000911271 0)
(0.0405358 -0.000945507 0)
(0.0407484 -0.000977824 0)
(0.04097 -0.00100826 0)
(0.0411999 -0.0010369 0)
(0.0414373 -0.00106376 0)
(0.0416817 -0.00108894 0)
(0.0419322 -0.00111243 0)
(0.0421884 -0.00113438 0)
(0.0424496 -0.00115469 0)
(0.0427155 -0.00117365 0)
(0.0429852 -0.00119098 0)
(0.0432587 -0.00120723 0)
(0.043535 -0.00122174 0)
(0.0438143 -0.00123559 0)
(0.0440955 -0.00124742 0)
(0.0443792 -0.00125928 0)
(0.044664 -0.00126848 0)
(0.0449505 -0.0012789 0)
(0.0452378 -0.0012854 0)
(0.045526 -0.00129512 0)
(0.0458152 -0.00129863 0)
(0.0461033 -0.00130869 0)
(0.0463949 -0.00130866 0)
(0.0466805 -0.00132046 0)
(0.0469764 -0.00131612 0)
(0.047255 -0.00133124 0)
(0.0475606 -0.00132209 0)
(0.0478227 -0.00134144 0)
(0.0481501 -0.00132888 0)
(0.0483765 -0.00135079 0)
(0.0487507 -0.00133919 0)
(0.048904 -0.0013584 0)
(0.0493699 -0.00135798 0)
(0.115757 0.00247748 0)
(0.115519 0.00273336 0)
(0.11526 0.00297341 0)
(0.114984 0.00320114 0)
(0.114687 0.00341645 0)
(0.114372 0.0036215 0)
(0.114036 0.00381678 0)
(0.11368 0.00400369 0)
(0.113303 0.00418284 0)
(0.112905 0.0043552 0)
(0.112485 0.00452129 0)
(0.112043 0.00468177 0)
(0.111578 0.00483702 0)
(0.11109 0.00498743 0)
(0.110577 0.00513323 0)
(0.11004 0.00527457 0)
(0.109478 0.00541152 0)
(0.108889 0.00554404 0)
(0.108274 0.00567202 0)
(0.107631 0.00579527 0)
(0.10696 0.00591351 0)
(0.106261 0.00602642 0)
(0.105532 0.00613358 0)
(0.104774 0.00623455 0)
(0.103985 0.00632881 0)
(0.103166 0.00641583 0)
(0.102316 0.00649501 0)
(0.101436 0.00656576 0)
(0.100524 0.00662747 0)
(0.099581 0.00667951 0)
(0.0986077 0.00672128 0)
(0.097604 0.00675219 0)
(0.0965707 0.00677169 0)
(0.0955086 0.00677925 0)
(0.0944185 0.00677444 0)
(0.0933017 0.00675685 0)
(0.0921595 0.00672618 0)
(0.0909936 0.00668219 0)
(0.0898058 0.00662478 0)
(0.088598 0.0065539 0)
(0.0873726 0.00646964 0)
(0.086132 0.00637221 0)
(0.0848789 0.0062619 0)
(0.0836159 0.00613916 0)
(0.0823462 0.00600451 0)
(0.0810728 0.00585859 0)
(0.079799 0.00570213 0)
(0.078528 0.00553597 0)
(0.0772633 0.00536099 0)
(0.0760081 0.00517815 0)
(0.074766 0.00498846 0)
(0.0735402 0.00479294 0)
(0.0723341 0.00459265 0)
(0.0711508 0.00438864 0)
(0.0699933 0.00418194 0)
(0.0688646 0.00397355 0)
(0.0677673 0.00376443 0)
(0.0667038 0.00355551 0)
(0.0656766 0.00334764 0)
(0.0646874 0.0031416 0)
(0.0637382 0.0029381 0)
(0.0628302 0.00273778 0)
(0.0619649 0.0025412 0)
(0.0611429 0.00234885 0)
(0.0603651 0.00216114 0)
(0.0596318 0.00197839 0)
(0.0589432 0.00180088 0)
(0.0582992 0.00162882 0)
(0.0576995 0.00146235 0)
(0.0571436 0.00130156 0)
(0.0566309 0.00114652 0)
(0.0561604 0.00099721 0)
(0.0557313 0.000853622 0)
(0.0553423 0.000715696 0)
(0.0549924 0.000583352 0)
(0.0546802 0.000456491 0)
(0.0544044 0.000334999 0)
(0.0541635 0.000218751 0)
(0.0539562 0.000107612 0)
(0.0537809 1.44291e-06 0)
(0.0536361 -9.98989e-05 0)
(0.0535205 -0.000196558 0)
(0.0534325 -0.000288679 0)
(0.0533706 -0.000376406 0)
(0.0533335 -0.000459879 0)
(0.0533197 -0.000539237 0)
(0.0533278 -0.000614615 0)
(0.0533565 -0.000686146 0)
(0.0534045 -0.000753958 0)
(0.0534706 -0.000818176 0)
(0.0535535 -0.000878921 0)
(0.0536521 -0.000936312 0)
(0.0537652 -0.000990461 0)
(0.0538918 -0.00104148 0)
(0.0540308 -0.00108948 0)
(0.0541813 -0.00113456 0)
(0.0543423 -0.00117683 0)
(0.054513 -0.00121638 0)
(0.0546924 -0.00125332 0)
(0.0548798 -0.00128773 0)
(0.0550744 -0.00131973 0)
(0.0552755 -0.00134938 0)
(0.0554825 -0.00137683 0)
(0.0556945 -0.00140207 0)
(0.0559113 -0.00142536 0)
(0.056132 -0.00144654 0)
(0.0563564 -0.00146608 0)
(0.0565835 -0.00148352 0)
(0.0568136 -0.00149974 0)
(0.0570452 -0.00151374 0)
(0.0572795 -0.00152715 0)
(0.0575141 -0.00153792 0)
(0.0577512 -0.00154913 0)
(0.0579875 -0.0015568 0)
(0.0582261 -0.00156656 0)
(0.0584631 -0.00157107 0)
(0.0587022 -0.00158039 0)
(0.0589396 -0.00158146 0)
(0.0591774 -0.00159162 0)
(0.0594163 -0.00158871 0)
(0.0596491 -0.00160126 0)
(0.0598938 -0.00159368 0)
(0.0601135 -0.0016102 0)
(0.0603745 -0.00159727 0)
(0.0605652 -0.00161911 0)
(0.0608628 -0.00160268 0)
(0.0609906 -0.00162388 0)
(0.0613701 -0.00161449 0)
(0.116589 0.00266345 0)
(0.116478 0.00292952 0)
(0.116362 0.00318076 0)
(0.116243 0.00342004 0)
(0.116117 0.00364791 0)
(0.115985 0.00386605 0)
(0.115844 0.00407537 0)
(0.115695 0.00427702 0)
(0.115535 0.00447184 0)
(0.115364 0.00466067 0)
(0.11518 0.00484418 0)
(0.114983 0.00502293 0)
(0.11477 0.00519743 0)
(0.114542 0.005368 0)
(0.114296 0.00553492 0)
(0.114032 0.00569835 0)
(0.113749 0.00585835 0)
(0.113446 0.00601487 0)
(0.11312 0.0061678 0)
(0.112773 0.00631691 0)
(0.112401 0.00646192 0)
(0.112004 0.00660244 0)
(0.111582 0.00673802 0)
(0.111133 0.00686814 0)
(0.110656 0.00699222 0)
(0.11015 0.00710962 0)
(0.109615 0.00721966 0)
(0.10905 0.00732162 0)
(0.108454 0.00741475 0)
(0.107827 0.0074983 0)
(0.107169 0.00757148 0)
(0.106479 0.00763356 0)
(0.105757 0.00768378 0)
(0.105004 0.00772146 0)
(0.10422 0.00774592 0)
(0.103406 0.00775659 0)
(0.102562 0.00775293 0)
(0.10169 0.00773452 0)
(0.10079 0.00770103 0)
(0.0998636 0.00765221 0)
(0.0989134 0.00758796 0)
(0.0979407 0.00750828 0)
(0.0969477 0.0074133 0)
(0.0959366 0.00730327 0)
(0.0949098 0.00717859 0)
(0.0938701 0.00703974 0)
(0.09282 0.00688736 0)
(0.0917626 0.00672216 0)
(0.0907007 0.00654497 0)
(0.0896374 0.00635671 0)
(0.0885758 0.00615836 0)
(0.087519 0.00595098 0)
(0.08647 0.00573565 0)
(0.085432 0.0055135 0)
(0.0844078 0.00528567 0)
(0.0834003 0.0050533 0)
(0.0824124 0.00481751 0)
(0.0814465 0.0045794 0)
(0.0805052 0.00434003 0)
(0.0795907 0.0041004 0)
(0.0787049 0.00386147 0)
(0.0778498 0.00362412 0)
(0.077027 0.00338915 0)
(0.0762379 0.0031573 0)
(0.0754835 0.00292924 0)
(0.0747648 0.00270553 0)
(0.0740826 0.00248669 0)
(0.0734372 0.00227314 0)
(0.072829 0.00206525 0)
(0.072258 0.00186331 0)
(0.071724 0.00166755 0)
(0.0712268 0.00147815 0)
(0.0707659 0.00129522 0)
(0.0703408 0.00111886 0)
(0.0699505 0.000949078 0)
(0.0695944 0.000785891 0)
(0.0692714 0.000629263 0)
(0.0689805 0.000479137 0)
(0.0687205 0.00033543 0)
(0.0684905 0.000198044 0)
(0.068289 6.68607e-05 0)
(0.0681149 -5.82469e-05 0)
(0.0679669 -0.000177418 0)
(0.0678437 -0.000290799 0)
(0.0677442 -0.000398542 0)
(0.0676669 -0.000500804 0)
(0.0676106 -0.000597744 0)
(0.0675742 -0.000689524 0)
(0.0675563 -0.000776305 0)
(0.0675558 -0.000858248 0)
(0.0675716 -0.000935514 0)
(0.0676025 -0.00100826 0)
(0.0676474 -0.00107665 0)
(0.0677054 -0.00114083 0)
(0.0677753 -0.00120097 0)
(0.0678563 -0.00125719 0)
(0.0679474 -0.00130967 0)
(0.0680477 -0.00135854 0)
(0.0681564 -0.00140395 0)
(0.0682728 -0.00144602 0)
(0.068396 -0.00148492 0)
(0.0685253 -0.00152076 0)
(0.0686602 -0.00155372 0)
(0.0687999 -0.00158384 0)
(0.068944 -0.00161141 0)
(0.0690917 -0.00163632 0)
(0.0692428 -0.00165906 0)
(0.0693963 -0.00167926 0)
(0.0695525 -0.00169775 0)
(0.0697102 -0.00171365 0)
(0.06987 -0.00172855 0)
(0.0700301 -0.00174051 0)
(0.0701924 -0.00175257 0)
(0.0703536 -0.0017608 0)
(0.0705173 -0.00177095 0)
(0.0706784 -0.00177543 0)
(0.0708427 -0.00178494 0)
(0.0710031 -0.00178522 0)
(0.071167 -0.00179583 0)
(0.0713266 -0.00179088 0)
(0.0714883 -0.00180499 0)
(0.071649 -0.00179318 0)
(0.0718036 -0.00181282 0)
(0.0719731 -0.0017955 0)
(0.0721072 -0.00181718 0)
(0.0723014 -0.00179724 0)
(0.0723883 -0.00181866 0)
(0.0726452 -0.00180358 0)
(0.109761 0.00269916 0)
(0.109823 0.00296031 0)
(0.109895 0.0032081 0)
(0.109981 0.00344543 0)
(0.110075 0.00367328 0)
(0.110177 0.00389281 0)
(0.110283 0.00410527 0)
(0.110392 0.00431145 0)
(0.110503 0.00451237 0)
(0.110614 0.00470865 0)
(0.110722 0.00490106 0)
(0.110827 0.00509005 0)
(0.110926 0.00527613 0)
(0.111018 0.0054596 0)
(0.111102 0.00564075 0)
(0.111176 0.00581969 0)
(0.111238 0.0059965 0)
(0.111287 0.00617111 0)
(0.111321 0.00634341 0)
(0.111339 0.00651317 0)
(0.11134 0.00668007 0)
(0.111321 0.00684372 0)
(0.111282 0.00700363 0)
(0.111221 0.00715925 0)
(0.111136 0.00730995 0)
(0.111027 0.00745503 0)
(0.110891 0.00759375 0)
(0.110728 0.00772528 0)
(0.110536 0.00784879 0)
(0.110315 0.0079634 0)
(0.110063 0.0080682 0)
(0.109779 0.00816228 0)
(0.109463 0.00824476 0)
(0.109115 0.00831474 0)
(0.108733 0.00837137 0)
(0.108318 0.00841386 0)
(0.10787 0.00844148 0)
(0.107389 0.00845356 0)
(0.106876 0.00844954 0)
(0.106331 0.00842896 0)
(0.105755 0.00839148 0)
(0.10515 0.00833689 0)
(0.104517 0.00826508 0)
(0.103857 0.00817613 0)
(0.103172 0.00807021 0)
(0.102465 0.00794767 0)
(0.101738 0.00780898 0)
(0.100993 0.00765473 0)
(0.100232 0.00748566 0)
(0.0994583 0.00730261 0)
(0.0986747 0.00710652 0)
(0.0978839 0.00689842 0)
(0.0970886 0.00667942 0)
(0.0962918 0.00645067 0)
(0.0954962 0.00621339 0)
(0.0947046 0.0059688 0)
(0.0939197 0.00571813 0)
(0.0931441 0.00546261 0)
(0.0923802 0.00520345 0)
(0.0916305 0.00494183 0)
(0.090897 0.00467886 0)
(0.0901819 0.00441564 0)
(0.0894869 0.00415317 0)
(0.0888137 0.00389239 0)
(0.0881638 0.00363418 0)
(0.0875383 0.00337932 0)
(0.0869384 0.00312854 0)
(0.0863648 0.00288247 0)
(0.0858183 0.00264167 0)
(0.0852994 0.00240662 0)
(0.0848082 0.00217774 0)
(0.0843451 0.00195538 0)
(0.0839098 0.00173981 0)
(0.0835022 0.00153125 0)
(0.0831221 0.00132987 0)
(0.0827689 0.00113578 0)
(0.0824421 0.000949055 0)
(0.0821411 0.000769723 0)
(0.0818651 0.000597775 0)
(0.0816134 0.000433172 0)
(0.0813851 0.000275846 0)
(0.0811792 0.000125705 0)
(0.0809949 -1.73625e-05 0)
(0.0808311 -0.000153487 0)
(0.0806868 -0.000282813 0)
(0.0805611 -0.000405497 0)
(0.0804529 -0.000521707 0)
(0.0803613 -0.000631615 0)
(0.0802852 -0.000735404 0)
(0.0802237 -0.000833258 0)
(0.0801758 -0.000925364 0)
(0.0801405 -0.00101191 0)
(0.080117 -0.0010931 0)
(0.0801043 -0.0011691 0)
(0.0801017 -0.00124012 0)
(0.0801083 -0.00130635 0)
(0.0801233 -0.00136797 0)
(0.0801459 -0.00142516 0)
(0.0801755 -0.00147811 0)
(0.0802114 -0.001527 0)
(0.0802529 -0.00157202 0)
(0.0802994 -0.00161332 0)
(0.0803504 -0.00165112 0)