/*--------------------------------*- C++ -*----------------------------------*\
| =========                 |                                                 |
| \\      /  F ield         | OpenFOAM: The Open Source CFD Toolbox           |
|  \\    /   O peration     | Version:  4.1                                   |
|   \\  /    A nd           | Web:      www.OpenFOAM.org                      |
|    \\/     M anipulation  |                                                 |
\*---------------------------------------------------------------------------*/
FoamFile
{
    version     2.0;
    format      ascii;
    class       volVectorField;
    location    "210";
    object      U;
}
// * * * * * * * * * * * * * * * * * * * * * * * * * * * * * * * * * * * * * //

dimensions      [0 1 -1 0 0 0 0];

internalField   nonuniform List<vector> 
1275
(
(0.012982 -0.00060903 0)
(0.0147685 -0.00040738 0)
(0.0159109 -0.000241466 0)
(0.0164708 -0.00011622 0)
(0.0165523 -2.39407e-05 0)
(0.0162691 4.72726e-05 0)
(0.0157373 0.000105762 0)
(0.0150494 0.000153353 0)
(0.0142814 0.000187536 0)
(0.013486 0.000206483 0)
(0.0127052 0.000210633 0)
(0.0119681 0.000202965 0)
(0.0112976 0.000186772 0)
(0.0107082 0.000165276 0)
(0.0102083 0.00014074 0)
(0.00980001 0.00011517 0)
(0.0094803 8.99659e-05 0)
(0.0092423 6.64329e-05 0)
(0.00907632 4.53721e-05 0)
(0.00897146 2.74057e-05 0)
(0.00891621 1.26933e-05 0)
(0.00889979 1.23886e-06 0)
(0.00891215 -7.25563e-06 0)
(0.00894487 -1.31278e-05 0)
(0.0089907 -1.68436e-05 0)
(0.00904409 -1.88143e-05 0)
(0.0091006 -1.94712e-05 0)
(0.00915712 -1.91545e-05 0)
(0.00921133 -1.818e-05 0)
(0.00926186 -1.67771e-05 0)
(0.00930778 -1.51439e-05 0)
(0.00934875 -1.34123e-05 0)
(0.00938466 -1.16897e-05 0)
(0.0094157 -1.00396e-05 0)
(0.00944216 -8.51019e-06 0)
(0.00946443 -7.12272e-06 0)
(0.00948297 -5.89089e-06 0)
(0.00949821 -4.8134e-06 0)
(0.0095106 -3.88617e-06 0)
(0.00952056 -3.09766e-06 0)
(0.00952846 -2.4363e-06 0)
(0.00953465 -1.88747e-06 0)
(0.00953942 -1.43784e-06 0)
(0.00954304 -1.07337e-06 0)
(0.00954572 -7.81807e-07 0)
(0.00954766 -5.51306e-07 0)
(0.00954902 -3.71785e-07 0)
(0.00954993 -2.34015e-07 0)
(0.00955049 -1.30294e-07 0)
(0.00955079 -5.38353e-08 0)
(0.0095509 9.25628e-10 0)
(0.00955088 3.87423e-08 0)
(0.00955076 6.3448e-08 0)
(0.00955059 7.8228e-08 0)
(0.00955038 8.56051e-08 0)
(0.00955015 8.76201e-08 0)
(0.00954992 8.58561e-08 0)
(0.0095497 8.15566e-08 0)
(0.00954948 7.56615e-08 0)
(0.00954929 6.88824e-08 0)
(0.00954911 6.17377e-08 0)
(0.00954895 5.45998e-08 0)
(0.00954881 4.77235e-08 0)
(0.00954869 4.12752e-08 0)
(0.00954858 3.53537e-08 0)
(0.00954849 3.00077e-08 0)
(0.00954841 2.52502e-08 0)
(0.00954835 2.10685e-08 0)
(0.00954829 1.74334e-08 0)
(0.00954825 1.43047e-08 0)
(0.00954821 1.1637e-08 0)
(0.00954818 9.38203e-09 0)
(0.00954816 7.49212e-09 0)
(0.00954814 5.92097e-09 0)
(0.00954812 4.62572e-09 0)
(0.00954811 3.56657e-09 0)
(0.0095481 2.70811e-09 0)
(0.00954809 2.01833e-09 0)
(0.00954809 1.46968e-09 0)
(0.00954808 1.03757e-09 0)
(0.00954808 7.01636e-10 0)
(0.00954808 4.43477e-10 0)
(0.00954808 2.48925e-10 0)
(0.00954808 1.04188e-10 0)
(0.00954808 4.51701e-13 0)
(0.00954808 -7.32951e-11 0)
(0.00954808 -1.20785e-10 0)
(0.00954808 -1.52557e-10 0)
(0.00954808 -1.66427e-10 0)
(0.00954808 -1.75857e-10 0)
(0.00954808 -1.6984e-10 0)
(0.00954808 -1.70618e-10 0)
(0.00954808 -1.51492e-10 0)
(0.00954808 -1.54589e-10 0)
(0.00954808 -1.22739e-10 0)
(0.00954808 -1.39979e-10 0)
(0.00954808 -8.8074e-11 0)
(0.00954808 -1.37205e-10 0)
(0.00954808 -4.57647e-11 0)
(0.00954808 -1.58995e-10 0)
(0.00954808 1.35691e-11 0)
(0.00954808 -2.26027e-10 0)
(0.00954809 1.11445e-10 0)
(0.00954808 -3.75921e-10 0)
(0.00954809 2.90851e-10 0)
(0.00954808 -6.78266e-10 0)
(0.0095481 6.33281e-10 0)
(0.00954807 -1.25904e-09 0)
(0.00954811 1.28679e-09 0)
(0.00954805 -2.33735e-09 0)
(0.00954814 2.50646e-09 0)
(0.00954802 -4.27235e-09 0)
(0.00954819 4.69978e-09 0)
(0.00954795 -7.60378e-09 0)
(0.0095483 8.44753e-09 0)
(0.00954782 -1.3044e-08 0)
(0.0095485 1.44395e-08 0)
(0.00954757 -2.13771e-08 0)
(0.00954887 2.32961e-08 0)
(0.0095471 -3.34265e-08 0)
(0.00954957 3.56565e-08 0)
(0.00954623 -5.12839e-08 0)
(0.00955085 5.45957e-08 0)
(0.00954464 -8.54949e-08 0)
(0.00955316 9.8194e-08 0)
(0.00954182 -1.95927e-07 0)
(0.0095573 3.72688e-07 0)
(0.00953678 -1.98066e-06 0)
(0.0302075 -0.00364617 0)
(0.0334405 -0.00254239 0)
(0.0358285 -0.00147592 0)
(0.0373415 -0.000532054 0)
(0.0380143 0.000227096 0)
(0.0379349 0.00077665 0)
(0.0372515 0.00112749 0)
(0.0361383 0.00131768 0)
(0.0347771 0.00139027 0)
(0.0333218 0.00138265 0)
(0.0318905 0.00131858 0)
(0.0305585 0.0012146 0)
(0.0293708 0.00108179 0)
(0.028348 0.000931487 0)
(0.0274964 0.000773519 0)
(0.0268114 0.000617697 0)
(0.0262811 0.000471291 0)
(0.0258891 0.000340068 0)
(0.0256159 0.000226995 0)
(0.0254414 0.00013354 0)
(0.0253458 5.91957e-05 0)
(0.0253112 2.67127e-06 0)
(0.0253214 -3.82856e-05 0)
(0.0253631 -6.60201e-05 0)
(0.0254251 -8.31071e-05 0)
(0.025499 -9.18207e-05 0)
(0.025578 -9.42999e-05 0)
(0.0256576 -9.22687e-05 0)
(0.0257343 -8.72127e-05 0)
(0.0258059 -8.02468e-05 0)
(0.0258713 -7.22712e-05 0)
(0.0259296 -6.39135e-05 0)
(0.0259809 -5.5649e-05 0)
(0.0260254 -4.77751e-05 0)
(0.0260633 -4.04967e-05 0)
(0.0260953 -3.3913e-05 0)
(0.0261221 -2.80743e-05 0)
(0.0261441 -2.29746e-05 0)
(0.0261621 -1.85863e-05 0)
(0.0261766 -1.48559e-05 0)
(0.0261882 -1.17245e-05 0)
(0.0261973 -9.12437e-06 0)
(0.0262044 -6.99057e-06 0)
(0.0262098 -5.2581e-06 0)
(0.0262138 -3.86828e-06 0)
(0.0262168 -2.76625e-06 0)
(0.026219 -1.90419e-06 0)
(0.0262204 -1.23932e-06 0)
(0.0262214 -7.35261e-07 0)
(0.0262219 -3.60485e-07 0)
(0.0262222 -8.87592e-08 0)
(0.0262223 1.02066e-07 0)
(0.0262222 2.30073e-07 0)
(0.026222 3.10169e-07 0)
(0.0262217 3.54292e-07 0)
(0.0262215 3.72051e-07 0)
(0.0262212 3.70979e-07 0)
(0.0262209 3.56986e-07 0)
(0.0262206 3.34585e-07 0)
(0.0262204 3.07206e-07 0)
(0.0262201 2.77378e-07 0)
(0.0262199 2.46936e-07 0)
(0.0262197 2.17162e-07 0)
(0.0262196 1.88915e-07 0)
(0.0262194 1.6273e-07 0)
(0.0262193 1.389e-07 0)
(0.0262192 1.17544e-07 0)
(0.0262191 9.8651e-08 0)
(0.026219 8.21287e-08 0)
(0.0262189 6.78263e-08 0)
(0.0262189 5.55619e-08 0)
(0.0262189 4.51363e-08 0)
(0.0262188 3.6348e-08 0)
(0.0262188 2.89988e-08 0)
(0.0262188 2.29021e-08 0)
(0.0262187 1.78838e-08 0)
(0.0262187 1.37869e-08 0)
(0.0262187 1.04693e-08 0)
(0.0262187 7.80724e-09 0)
(0.0262187 5.69004e-09 0)
(0.0262187 4.02499e-09 0)
(0.0262187 2.72858e-09 0)
(0.0262187 1.73522e-09 0)
(0.0262187 9.82075e-10 0)
(0.0262187 4.27061e-10 0)
(0.0262187 2.04491e-11 0)
(0.0262187 -2.57936e-10 0)
(0.0262187 -4.54013e-10 0)
(0.0262187 -5.6349e-10 0)
(0.0262187 -6.41797e-10 0)
(0.0262187 -6.49823e-10 0)
(0.0262187 -6.74922e-10 0)
(0.0262187 -6.17856e-10 0)
(0.0262187 -6.39877e-10 0)
(0.0262187 -5.26637e-10 0)
(0.0262187 -5.96203e-10 0)
(0.0262187 -4.04323e-10 0)
(0.0262187 -5.9312e-10 0)
(0.0262187 -2.52381e-10 0)
(0.0262187 -6.87674e-10 0)
(0.0262187 -4.12922e-11 0)
(0.0262187 -9.69941e-10 0)
(0.0262187 3.06811e-10 0)
(0.0262187 -1.6044e-09 0)
(0.0262187 9.57407e-10 0)
(0.0262187 -2.90312e-09 0)
(0.0262187 2.24088e-09 0)
(0.0262187 -5.45666e-09 0)
(0.0262187 4.7944e-09 0)
(0.0262187 -1.03634e-08 0)
(0.0262188 9.8076e-09 0)
(0.0262186 -1.96183e-08 0)
(0.0262188 1.9423e-08 0)
(0.0262185 -3.67435e-08 0)
(0.026219 3.73449e-08 0)
(0.0262184 -6.77705e-08 0)
(0.0262192 6.96875e-08 0)
(0.026218 -1.22706e-07 0)
(0.0262197 1.25967e-07 0)
(0.0262174 -2.1755e-07 0)
(0.0262206 2.19427e-07 0)
(0.0262163 -3.76132e-07 0)
(0.0262223 3.62084e-07 0)
(0.0262143 -6.26629e-07 0)
(0.0262251 5.32879e-07 0)
(0.0262109 -9.70166e-07 0)
(0.0262299 5.21399e-07 0)
(0.0262056 -1.19399e-06 0)
(0.0400443 -0.00783852 0)
(0.0436849 -0.0060201 0)
(0.0466853 -0.0041379 0)
(0.0490078 -0.00230356 0)
(0.0506291 -0.000627123 0)
(0.051533 0.000794313 0)
(0.0517388 0.00188471 0)
(0.0513087 0.00261284 0)
(0.0503613 0.00299364 0)
(0.0490513 0.00308726 0)
(0.0475473 0.00297063 0)
(0.0460003 0.0027205 0)
(0.0445275 0.00239521 0)
(0.0432047 0.00203768 0)
(0.0420712 0.00167554 0)
(0.0411386 0.00132908 0)
(0.0404 0.00101119 0)
(0.039838 0.000731021 0)
(0.0394292 0.000492628 0)
(0.0391489 0.000297284 0)
(0.0389724 0.000142862 0)
(0.0388773 2.58133e-05 0)
(0.0388434 -5.89496e-05 0)
(0.0388541 -0.000116613 0)
(0.0388951 -0.000152568 0)
(0.0389557 -0.00017157 0)
(0.0390272 -0.000177955 0)
(0.0391034 -0.000175236 0)
(0.0391796 -0.000166374 0)
(0.0392528 -0.000153614 0)
(0.039321 -0.000138733 0)
(0.0393829 -0.000122993 0)
(0.0394381 -0.000107329 0)
(0.0394866 -9.23437e-05 0)
(0.0395284 -7.8444e-05 0)
(0.0395641 -6.5839e-05 0)
(0.0395942 -5.46326e-05 0)
(0.0396193 -4.48244e-05 0)
(0.0396399 -3.63662e-05 0)
(0.0396567 -2.91619e-05 0)
(0.0396703 -2.31013e-05 0)
(0.0396811 -1.8058e-05 0)
(0.0396897 -1.3909e-05 0)
(0.0396963 -1.05317e-05 0)
(0.0397013 -7.81401e-06 0)
(0.0397051 -5.65187e-06 0)
(0.0397079 -3.95366e-06 0)
(0.0397099 -2.63769e-06 0)
(0.0397113 -1.63409e-06 0)
(0.0397122 -8.82425e-07 0)
(0.0397127 -3.3212e-07 0)
(0.039713 5.94621e-08 0)
(0.0397131 3.27313e-07 0)
(0.039713 5.00263e-07 0)
(0.0397129 6.01519e-07 0)
(0.0397127 6.49774e-07 0)
(0.0397124 6.59762e-07 0)
(0.0397122 6.43065e-07 0)
(0.0397119 6.08586e-07 0)
(0.0397117 5.63119e-07 0)
(0.0397114 5.11717e-07 0)
(0.0397112 4.58082e-07 0)
(0.039711 4.0483e-07 0)
(0.0397109 3.5375e-07 0)
(0.0397107 3.05993e-07 0)
(0.0397106 2.62228e-07 0)
(0.0397105 2.22773e-07 0)
(0.0397104 1.8769e-07 0)
(0.0397103 1.56867e-07 0)
(0.0397102 1.30072e-07 0)
(0.0397102 1.07002e-07 0)
(0.0397101 8.73145e-08 0)
(0.0397101 7.06556e-08 0)
(0.0397101 5.66715e-08 0)
(0.03971 4.50254e-08 0)
(0.03971 3.54008e-08 0)
(0.03971 2.751e-08 0)
(0.03971 2.10913e-08 0)
(0.03971 1.59152e-08 0)
(0.03971 1.17763e-08 0)
(0.03971 8.50097e-09 0)
(0.0397099 5.93306e-09 0)
(0.0397099 3.94859e-09 0)
(0.0397099 2.42952e-09 0)
(0.0397099 1.29511e-09 0)
(0.0397099 4.52068e-10 0)
(0.0397099 -1.40091e-10 0)
(0.0397099 -5.66643e-10 0)
(0.0397099 -8.23381e-10 0)
(0.0397099 -1.01162e-09 0)
(0.0397099 -1.06403e-09 0)
(0.0397099 -1.13843e-09 0)
(0.0397099 -1.05898e-09 0)
(0.0397099 -1.11568e-09 0)
(0.0397099 -9.25387e-10 0)
(0.0397099 -1.05953e-09 0)
(0.0397099 -7.21482e-10 0)
(0.0397099 -1.06444e-09 0)
(0.0397099 -4.5519e-10 0)
(0.0397099 -1.23599e-09 0)
(0.0397099 -7.75369e-11 0)
(0.0397099 -1.73544e-09 0)
(0.0397099 5.46433e-10 0)
(0.0397099 -2.85086e-09 0)
(0.03971 1.7037e-09 0)
(0.0397099 -5.11986e-09 0)
(0.03971 3.96112e-09 0)
(0.0397099 -9.54201e-09 0)
(0.03971 8.39259e-09 0)
(0.0397099 -1.79347e-08 0)
(0.03971 1.69502e-08 0)
(0.0397099 -3.34908e-08 0)
(0.0397101 3.30025e-08 0)
(0.0397098 -6.15558e-08 0)
(0.0397102 6.19535e-08 0)
(0.0397096 -1.10487e-07 0)
(0.0397104 1.1153e-07 0)
(0.0397094 -1.92046e-07 0)
(0.0397108 1.90548e-07 0)
(0.0397088 -3.19968e-07 0)
(0.0397116 3.03367e-07 0)
(0.0397078 -5.04186e-07 0)
(0.0397131 4.33932e-07 0)
(0.0397059 -7.36564e-07 0)
(0.0397157 5.04667e-07 0)
(0.0397026 -9.58625e-07 0)
(0.0397203 2.71812e-07 0)
(0.0396964 -9.8781e-07 0)
(0.0501426 -0.0115224 0)
(0.0530707 -0.00918103 0)
(0.0554119 -0.00679129 0)
(0.0572198 -0.00446228 0)
(0.0585743 -0.00228115 0)
(0.0595335 -0.0003153 0)
(0.0601226 0.00136604 0)
(0.0603292 0.00270376 0)
(0.0601369 0.00365032 0)
(0.0595552 0.00419595 0)
(0.0586389 0.00436789 0)
(0.0574836 0.00423373 0)
(0.0562032 0.00387807 0)
(0.0549083 0.0033896 0)
(0.0536862 0.00284173 0)
(0.0525966 0.002291 0)
(0.0516695 0.00177367 0)
(0.0509139 0.00131232 0)
(0.0503219 0.000917043 0)
(0.0498772 0.000591001 0)
(0.0495582 0.000331199 0)
(0.049343 0.000131917 0)
(0.0492099 -1.49155e-05 0)
(0.0491403 -0.000117634 0)
(0.0491174 -0.000184781 0)
(0.0491281 -0.000223969 0)
(0.0491613 -0.00024208 0)
(0.0492087 -0.000244761 0)
(0.0492637 -0.000236747 0)
(0.0493217 -0.000221686 0)
(0.0493794 -0.000202463 0)
(0.0494345 -0.000181172 0)
(0.0494856 -0.000159372 0)
(0.0495319 -0.000138108 0)
(0.049573 -0.000118095 0)
(0.0496089 -9.97404e-05 0)
(0.0496399 -8.32676e-05 0)
(0.0496662 -6.87355e-05 0)
(0.0496884 -5.61142e-05 0)
(0.0497068 -4.52953e-05 0)
(0.0497219 -3.61383e-05 0)
(0.0497343 -2.84743e-05 0)
(0.0497442 -2.21323e-05 0)
(0.049752 -1.69396e-05 0)
(0.0497582 -1.27352e-05 0)
(0.049763 -9.36814e-06 0)
(0.0497667 -6.70408e-06 0)
(0.0497694 -4.62263e-06 0)
(0.0497715 -3.01978e-06 0)
(0.0497729 -1.80531e-06 0)
(0.0497739 -9.03087e-07 0)
(0.0497745 -2.48722e-07 0)
(0.0497749 2.11001e-07 0)
(0.0497751 5.20097e-07 0)
(0.0497752 7.14233e-07 0)
(0.0497751 8.22274e-07 0)
(0.049775 8.6714e-07 0)
(0.0497748 8.66955e-07 0)
(0.0497747 8.35776e-07 0)
(0.0497745 7.84422e-07 0)
(0.0497743 7.21038e-07 0)
(0.0497741 6.5167e-07 0)
(0.049774 5.80678e-07 0)
(0.0497738 5.1112e-07 0)
(0.0497737 4.45042e-07 0)
(0.0497736 3.83723e-07 0)
(0.0497734 3.27871e-07 0)
(0.0497733 2.77774e-07 0)
(0.0497733 2.33422e-07 0)
(0.0497732 1.94602e-07 0)
(0.0497731 1.6097e-07 0)
(0.0497731 1.32103e-07 0)
(0.049773 1.07541e-07 0)
(0.049773 8.68114e-08 0)
(0.049773 6.94555e-08 0)
(0.049773 5.50359e-08 0)
(0.0497729 4.31489e-08 0)
(0.0497729 3.34251e-08 0)
(0.0497729 2.55361e-08 0)
(0.0497729 1.91877e-08 0)
(0.0497729 1.41273e-08 0)
(0.0497729 1.01296e-08 0)
(0.0497729 7.01003e-09 0)
(0.0497729 4.59949e-09 0)
(0.0497729 2.77171e-09 0)
(0.0497729 1.39784e-09 0)
(0.0497729 4.0318e-10 0)
(0.0497729 -3.19879e-10 0)
(0.0497729 -7.94504e-10 0)
(0.0497729 -1.13182e-09 0)
(0.0497729 -1.29072e-09 0)
(0.0497729 -1.42424e-09 0)
(0.0497729 -1.38998e-09 0)
(0.0497729 -1.45133e-09 0)
(0.0497729 -1.28051e-09 0)
(0.0497729 -1.38317e-09 0)
(0.0497729 -1.06803e-09 0)
(0.0497729 -1.34577e-09 0)
(0.0497729 -7.95046e-10 0)
(0.0497729 -1.45971e-09 0)
(0.0497729 -4.44552e-10 0)
(0.0497729 -1.88613e-09 0)
(0.0497729 7.66113e-11 0)
(0.0497729 -2.89387e-09 0)
(0.0497729 9.84626e-10 0)
(0.0497729 -4.9687e-09 0)
(0.0497729 2.71301e-09 0)
(0.0497729 -8.99625e-09 0)
(0.0497729 6.07923e-09 0)
(0.0497729 -1.6562e-08 0)
(0.0497729 1.25514e-08 0)
(0.0497728 -3.04196e-08 0)
(0.049773 2.46292e-08 0)
(0.0497728 -5.51722e-08 0)
(0.0497731 4.6303e-08 0)
(0.0497727 -9.81782e-08 0)
(0.0497732 8.3441e-08 0)
(0.0497724 -1.70602e-07 0)
(0.0497736 1.43665e-07 0)
(0.049772 -2.88095e-07 0)
(0.0497743 2.34037e-07 0)
(0.049771 -4.67654e-07 0)
(0.0497756 3.48318e-07 0)
(0.0497693 -7.02359e-07 0)
(0.0497781 4.11666e-07 0)
(0.0497658 -8.63087e-07 0)
(0.0497829 1.81354e-07 0)
(0.049759 -6.72926e-07 0)
(0.0624986 -0.014315 0)
(0.0645979 -0.011298 0)
(0.0660101 -0.00829533 0)
(0.0667994 -0.005472 0)
(0.0670868 -0.00294486 0)
(0.0670287 -0.000755703 0)
(0.0667856 0.00108915 0)
(0.0664684 0.00260064 0)
(0.0661119 0.00377061 0)
(0.0656899 0.00458785 0)
(0.0651515 0.00504323 0)
(0.0644644 0.00515552 0)
(0.0636296 0.00496845 0)
(0.0626858 0.00455224 0)
(0.0616904 0.00398493 0)
(0.0607069 0.00334405 0)
(0.0597873 0.00269256 0)
(0.0589691 0.00207788 0)
(0.0582711 0.00152886 0)
(0.0576988 0.00106076 0)
(0.0572461 0.000676962 0)
(0.0569016 0.000374091 0)
(0.0566497 0.000143782 0)
(0.0564747 -2.4025e-05 0)
(0.0563609 -0.000140307 0)
(0.0562951 -0.000215283 0)
(0.056265 -0.000258369 0)
(0.056261 -0.000277487 0)
(0.0562749 -0.000279349 0)
(0.0563007 -0.000269258 0)
(0.0563335 -0.000251452 0)
(0.0563697 -0.000229101 0)
(0.0564066 -0.000204607 0)
(0.0564426 -0.000179655 0)
(0.0564764 -0.000155437 0)
(0.0565074 -0.000132704 0)
(0.0565351 -0.00011192 0)
(0.0565595 -9.33017e-05 0)
(0.0565807 -7.69164e-05 0)
(0.0565988 -6.27068e-05 0)
(0.0566141 -5.05512e-05 0)
(0.0566269 -4.02764e-05 0)
(0.0566375 -3.16925e-05 0)
(0.0566461 -2.45982e-05 0)
(0.0566531 -1.87994e-05 0)
(0.0566587 -1.41101e-05 0)
(0.0566631 -1.03609e-05 0)
(0.0566665 -7.39822e-06 0)
(0.0566691 -5.08741e-06 0)
(0.0566711 -3.31041e-06 0)
(0.0566726 -1.96653e-06 0)
(0.0566737 -9.69867e-07 0)
(0.0566744 -2.48732e-07 0)
(0.0566749 2.56622e-07 0)
(0.0566753 5.95083e-07 0)
(0.0566754 8.06524e-07 0)
(0.0566755 9.22928e-07 0)
(0.0566755 9.69815e-07 0)
(0.0566755 9.67213e-07 0)
(0.0566754 9.30715e-07 0)
(0.0566753 8.72241e-07 0)
(0.0566752 8.00786e-07 0)
(0.056675 7.22988e-07 0)
(0.0566749 6.43638e-07 0)
(0.0566748 5.66075e-07 0)
(0.0566747 4.92528e-07 0)
(0.0566746 4.2438e-07 0)
(0.0566746 3.62383e-07 0)
(0.0566745 3.06833e-07 0)
(0.0566744 2.577e-07 0)
(0.0566744 2.14732e-07 0)
(0.0566743 1.77534e-07 0)
(0.0566743 1.45629e-07 0)
(0.0566742 1.18498e-07 0)
(0.0566742 9.56154e-08 0)
(0.0566742 7.64669e-08 0)
(0.0566742 6.05674e-08 0)
(0.0566742 4.7466e-08 0)
(0.0566742 3.67555e-08 0)
(0.0566741 2.80681e-08 0)
(0.0566741 2.10832e-08 0)
(0.0566741 1.55142e-08 0)
(0.0566741 1.11218e-08 0)
(0.0566741 7.6886e-09 0)
(0.0566741 5.04673e-09 0)
(0.0566741 3.03061e-09 0)
(0.0566741 1.53529e-09 0)
(0.0566741 4.25698e-10 0)
(0.0566741 -3.41685e-10 0)
(0.0566741 -8.99256e-10 0)
(0.0566741 -1.21709e-09 0)
(0.0566741 -1.46723e-09 0)
(0.0566741 -1.50808e-09 0)
(0.0566741 -1.62593e-09 0)
(0.0566741 -1.47805e-09 0)
(0.0566741 -1.60823e-09 0)
(0.0566741 -1.28078e-09 0)
(0.0566741 -1.58265e-09 0)
(0.0566741 -9.87084e-10 0)
(0.0566741 -1.7008e-09 0)
(0.0566741 -5.92745e-10 0)
(0.0566741 -2.15204e-09 0)
(0.0566741 -2.15502e-12 0)
(0.0566741 -3.24102e-09 0)
(0.0566741 1.02376e-09 0)
(0.0566741 -5.51238e-09 0)
(0.0566741 2.97563e-09 0)
(0.0566741 -9.95843e-09 0)
(0.0566741 6.78888e-09 0)
(0.0566741 -1.83562e-08 0)
(0.0566741 1.41509e-08 0)
(0.0566741 -3.37741e-08 0)
(0.0566742 2.79137e-08 0)
(0.056674 -6.12225e-08 0)
(0.0566743 5.24607e-08 0)
(0.0566739 -1.08197e-07 0)
(0.0566744 9.34877e-08 0)
(0.0566737 -1.84284e-07 0)
(0.0566747 1.5579e-07 0)
(0.0566733 -2.9785e-07 0)
(0.0566753 2.36268e-07 0)
(0.0566724 -4.46655e-07 0)
(0.0566765 3.09072e-07 0)
(0.0566707 -6.02771e-07 0)
(0.0566789 3.05547e-07 0)
(0.0566672 -7.08268e-07 0)
(0.0566839 8.57457e-08 0)
(0.0566599 -5.34498e-07 0)
(0.0747328 -0.0164382 0)
(0.0760504 -0.012697 0)
(0.0766645 -0.00899943 0)
(0.0766441 -0.00554625 0)
(0.0760802 -0.00251641 0)
(0.075092 -1.60476e-05 0)
(0.0738415 0.0019279 0)
(0.0725193 0.00338111 0)
(0.0712845 0.00443288 0)
(0.0702233 0.00516022 0)
(0.0693326 0.00559698 0)
(0.0685585 0.00575929 0)
(0.0678302 0.00565998 0)
(0.0670986 0.00533165 0)
(0.0663421 0.00482269 0)
(0.0655692 0.0041956 0)
(0.0648026 0.00351241 0)
(0.0640723 0.00282916 0)
(0.0634029 0.00218765 0)
(0.0628127 0.00161608 0)
(0.0623098 0.00112834 0)
(0.0618956 0.00072835 0)
(0.0615648 0.00041199 0)
(0.0613093 0.000171042 0)
(0.0611185 -5.28416e-06 0)
(0.060982 -0.000128046 0)
(0.0608892 -0.000208036 0)
(0.0608309 -0.000254777 0)
(0.0607989 -0.00027659 0)
(0.0607864 -0.000280279 0)
(0.0607877 -0.000271416 0)
(0.0607984 -0.000254314 0)
(0.0608151 -0.000232328 0)
(0.0608351 -0.000207914 0)
(0.0608565 -0.000182878 0)
(0.060878 -0.000158445 0)
(0.0608985 -0.00013544 0)
(0.0609177 -0.000114344 0)
(0.060935 -9.5414e-05 0)
(0.0609504 -7.87229e-05 0)
(0.0609639 -6.4233e-05 0)
(0.0609755 -5.18213e-05 0)
(0.0609853 -4.13228e-05 0)
(0.0609936 -3.25434e-05 0)
(0.0610005 -2.52838e-05 0)
(0.0610062 -1.93449e-05 0)
(0.0610108 -1.45399e-05 0)
(0.0610145 -1.06951e-05 0)
(0.0610174 -7.65526e-06 0)
(0.0610197 -5.28203e-06 0)
(0.0610215 -3.45561e-06 0)
(0.0610229 -2.07263e-06 0)
(0.0610239 -1.04567e-06 0)
(0.0610247 -3.01118e-07 0)
(0.0610252 2.21937e-07 0)
(0.0610256 5.73685e-07 0)
(0.0610258 7.94842e-07 0)
(0.0610259 9.18248e-07 0)
(0.061026 9.69997e-07 0)
(0.061026 9.70664e-07 0)
(0.061026 9.36218e-07 0)
(0.061026 8.78914e-07 0)
(0.0610259 8.07983e-07 0)
(0.0610259 7.30262e-07 0)
(0.0610258 6.50682e-07 0)
(0.0610257 5.72694e-07 0)
(0.0610257 4.98607e-07 0)
(0.0610256 4.29862e-07 0)
(0.0610256 3.67255e-07 0)
(0.0610255 3.11108e-07 0)
(0.0610255 2.6141e-07 0)
(0.0610254 2.17919e-07 0)
(0.0610254 1.80249e-07 0)
(0.0610254 1.47921e-07 0)
(0.0610253 1.20419e-07 0)
(0.0610253 9.72131e-08 0)
(0.0610253 7.77864e-08 0)
(0.0610253 6.16483e-08 0)
(0.0610253 4.83461e-08 0)
(0.0610253 3.74653e-08 0)
(0.0610253 2.86381e-08 0)
(0.0610252 2.15344e-08 0)
(0.0610252 1.58719e-08 0)
(0.0610252 1.13974e-08 0)
(0.0610252 7.90589e-09 0)
(0.0610252 5.20545e-09 0)
(0.0610252 3.15894e-09 0)
(0.0610252 1.61616e-09 0)
(0.0610252 5.02182e-10 0)
(0.0610252 -3.15766e-10 0)
(0.0610252 -8.46074e-10 0)
(0.0610252 -1.23823e-09 0)
(0.0610252 -1.41077e-09 0)
(0.0610252 -1.58574e-09 0)
(0.0610252 -1.53243e-09 0)
(0.0610252 -1.64751e-09 0)
(0.0610252 -1.4214e-09 0)
(0.0610252 -1.6226e-09 0)
(0.0610252 -1.19523e-09 0)
(0.0610252 -1.66756e-09 0)
(0.0610252 -8.99989e-10 0)
(0.0610252 -1.94368e-09 0)
(0.0610252 -5.14914e-10 0)
(0.0610252 -2.67331e-09 0)
(0.0610252 6.25484e-11 0)
(0.0610252 -4.21758e-09 0)
(0.0610252 1.05469e-09 0)
(0.0610252 -7.18988e-09 0)
(0.0610252 2.86421e-09 0)
(0.0610252 -1.26148e-08 0)
(0.0610253 6.14024e-09 0)
(0.0610252 -2.2122e-08 0)
(0.0610253 1.17874e-08 0)
(0.0610251 -3.81165e-08 0)
(0.0610253 2.07776e-08 0)
(0.061025 -6.38269e-08 0)
(0.0610255 3.36095e-08 0)
(0.0610248 -1.0337e-07 0)
(0.0610258 4.98836e-08 0)
(0.0610244 -1.63575e-07 0)
(0.0610263 7.15137e-08 0)
(0.0610236 -2.63962e-07 0)
(0.0610275 1.17653e-07 0)
(0.0610219 -4.48177e-07 0)
(0.0610298 1.84607e-07 0)
(0.0610183 -5.36132e-07 0)
(0.0610349 4.57459e-08 0)
(0.0610107 -3.77432e-07 0)
(0.0856846 -0.0177006 0)
(0.0861122 -0.0132319 0)
(0.0858725 -0.00889007 0)
(0.0850596 -0.00488879 0)
(0.08378 -0.00139658 0)
(0.0821362 0.0014764 0)
(0.080224 0.00365443 0)
(0.0781769 0.00515175 0)
(0.0761531 0.00606292 0)
(0.0743104 0.00653774 0)
(0.0727398 0.00670664 0)
(0.0714603 0.00665688 0)
(0.0704232 0.00642732 0)
(0.0695594 0.00603957 0)
(0.0687994 0.00551375 0)
(0.0680997 0.00488318 0)
(0.0674366 0.00418912 0)
(0.0668083 0.00347736 0)
(0.0662205 0.00278817 0)
(0.0656845 0.00215361 0)
(0.0652081 0.00159379 0)
(0.0647972 0.00111884 0)
(0.0644521 0.0007298 0)
(0.0641706 0.000422006 0)
(0.0639469 0.000186771 0)
(0.0637745 1.38948e-05 0)
(0.0636456 -0.000107416 0)
(0.063553 -0.000187269 0)
(0.0634892 -0.000234879 0)
(0.0634484 -0.000258094 0)
(0.0634249 -0.000263536 0)
(0.0634142 -0.000256517 0)
(0.0634127 -0.000241278 0)
(0.0634175 -0.000221049 0)
(0.0634264 -0.000198275 0)
(0.0634375 -0.000174711 0)
(0.0634497 -0.000151598 0)
(0.0634622 -0.000129742 0)
(0.0634742 -0.000109649 0)
(0.0634855 -9.15753e-05 0)
(0.0634957 -7.56152e-05 0)
(0.0635048 -6.17387e-05 0)
(0.0635129 -4.98414e-05 0)
(0.0635198 -3.97673e-05 0)
(0.0635257 -3.13375e-05 0)
(0.0635306 -2.43615e-05 0)
(0.0635348 -1.8652e-05 0)
(0.0635382 -1.40295e-05 0)
(0.0635409 -1.03294e-05 0)
(0.0635432 -7.40212e-06 0)
(0.0635449 -5.11584e-06 0)
(0.0635463 -3.3552e-06 0)
(0.0635474 -2.02131e-06 0)
(0.0635482 -1.02997e-06 0)
(0.0635489 -3.10634e-07 0)
(0.0635493 1.95399e-07 0)
(0.0635497 5.36298e-07 0)
(0.0635499 7.5131e-07 0)
(0.06355 8.7199e-07 0)
(0.0635501 9.235e-07 0)
(0.0635502 9.25628e-07 0)
(0.0635502 8.93779e-07 0)
(0.0635502 8.39753e-07 0)
(0.0635502 7.72462e-07 0)
(0.0635501 6.98496e-07 0)
(0.0635501 6.2262e-07 0)
(0.0635501 5.48171e-07 0)
(0.06355 4.77384e-07 0)
(0.06355 4.11659e-07 0)
(0.06355 3.51771e-07 0)
(0.0635499 2.98041e-07 0)
(0.0635499 2.50467e-07 0)
(0.0635499 2.08825e-07 0)
(0.0635499 1.72747e-07 0)
(0.0635498 1.41781e-07 0)
(0.0635498 1.15432e-07 0)
(0.0635498 9.31957e-08 0)
(0.0635498 7.45782e-08 0)
(0.0635498 5.91116e-08 0)
(0.0635498 4.63603e-08 0)
(0.0635498 3.59309e-08 0)
(0.0635498 2.74667e-08 0)
(0.0635498 2.0658e-08 0)
(0.0635497 1.52256e-08 0)
(0.0635497 1.09391e-08 0)
(0.0635497 7.58469e-09 0)
(0.0635497 5.00321e-09 0)
(0.0635497 3.02799e-09 0)
(0.0635497 1.56515e-09 0)
(0.0635497 4.71346e-10 0)
(0.0635497 -2.78715e-10 0)
(0.0635497 -8.38888e-10 0)
(0.0635497 -1.14429e-09 0)
(0.0635497 -1.41474e-09 0)
(0.0635497 -1.43738e-09 0)
(0.0635497 -1.60036e-09 0)
(0.0635497 -1.41293e-09 0)
(0.0635497 -1.63272e-09 0)
(0.0635497 -1.21611e-09 0)
(0.0635497 -1.69473e-09 0)
(0.0635497 -9.04981e-10 0)
(0.0635497 -1.9692e-09 0)
(0.0635497 -4.51936e-10 0)
(0.0635497 -2.70555e-09 0)
(0.0635497 2.83768e-10 0)
(0.0635497 -4.31818e-09 0)
(0.0635497 1.62626e-09 0)
(0.0635497 -7.54419e-09 0)
(0.0635497 4.21699e-09 0)
(0.0635497 -1.36974e-08 0)
(0.0635498 9.23546e-09 0)
(0.0635497 -2.50533e-08 0)
(0.0635498 1.87091e-08 0)
(0.0635496 -4.5355e-08 0)
(0.0635499 3.58241e-08 0)
(0.0635495 -8.02521e-08 0)
(0.06355 6.48691e-08 0)
(0.0635493 -1.36939e-07 0)
(0.0635502 1.09682e-07 0)
(0.063549 -2.20603e-07 0)
(0.0635507 1.67413e-07 0)
(0.0635482 -3.20206e-07 0)
(0.0635518 2.09595e-07 0)
(0.0635466 -3.64321e-07 0)
(0.0635542 1.40466e-07 0)
(0.0635429 -4.10593e-07 0)
(0.0635593 1.0778e-08 0)
(0.0635351 -2.87148e-07 0)
(0.093992 -0.0180384 0)
(0.093471 -0.0128932 0)
(0.0923963 -0.00795429 0)
(0.0908644 -0.00345932 0)
(0.0889705 0.000404681 0)
(0.0868245 0.00353983 0)
(0.084507 0.00588809 0)
(0.0821023 0.00745291 0)
(0.0796969 0.00830009 0)
(0.077412 0.00857417 0)
(0.0753549 0.00844761 0)
(0.0736018 0.00807651 0)
(0.0721619 0.00756158 0)
(0.0710031 0.0069563 0)
(0.0700621 0.00628322 0)
(0.0692801 0.00555935 0)
(0.0686064 0.00480458 0)
(0.0680118 0.00404604 0)
(0.0674783 0.00331208 0)
(0.067001 0.00262898 0)
(0.0665774 0.00201589 0)
(0.0662088 0.00148454 0)
(0.0658939 0.00103866 0)
(0.0656316 0.000676228 0)
(0.0654176 0.000390671 0)
(0.0652475 0.000173111 0)
(0.0651155 1.34087e-05 0)
(0.0650161 -9.84925e-05 0)
(0.0649432 -0.000172135 0)
(0.064892 -0.000215965 0)
(0.0648576 -0.000237312 0)
(0.0648362 -0.000242236 0)
(0.0648244 -0.000235693 0)
(0.0648197 -0.000221567 0)
(0.0648199 -0.000202871 0)
(0.0648233 -0.000181841 0)
(0.0648288 -0.000160113 0)
(0.0648354 -0.000138816 0)
(0.0648424 -0.000118703 0)
(0.0648495 -0.000100226 0)
(0.0648562 -8.36249e-05 0)
(0.0648624 -6.89773e-05 0)
(0.0648681 -5.6256e-05 0)
(0.0648731 -4.53587e-05 0)
(0.0648774 -3.61416e-05 0)
(0.0648811 -2.84363e-05 0)
(0.0648843 -2.20672e-05 0)
(0.064887 -1.686e-05 0)
(0.0648892 -1.26498e-05 0)
(0.064891 -9.28388e-06 0)
(0.0648924 -6.62513e-06 0)
(0.0648936 -4.55191e-06 0)
(0.0648945 -2.95855e-06 0)
(0.0648953 -1.7541e-06 0)
(0.0648958 -8.61569e-07 0)
(0.0648963 -2.16256e-07 0)
(0.0648966 2.35424e-07 0)
(0.0648968 5.37524e-07 0)
(0.064897 7.25799e-07 0)
(0.0648971 8.29028e-07 0)
(0.0648972 8.70079e-07 0)
(0.0648972 8.66944e-07 0)
(0.0648972 8.33579e-07 0)
(0.0648972 7.80672e-07 0)
(0.0648972 7.16264e-07 0)
(0.0648972 6.46292e-07 0)
(0.0648972 5.75027e-07 0)
(0.0648972 5.05446e-07 0)
(0.0648971 4.39529e-07 0)
(0.0648971 3.78501e-07 0)
(0.0648971 3.23022e-07 0)
(0.0648971 2.73347e-07 0)
(0.0648971 2.29438e-07 0)
(0.0648971 1.91063e-07 0)
(0.064897 1.57862e-07 0)
(0.064897 1.29403e-07 0)
(0.064897 1.05217e-07 0)
(0.064897 8.48305e-08 0)
(0.064897 6.77825e-08 0)
(0.064897 5.36356e-08 0)
(0.064897 4.19877e-08 0)
(0.064897 3.24709e-08 0)
(0.064897 2.47601e-08 0)
(0.064897 1.85625e-08 0)
(0.064897 1.36302e-08 0)
(0.064897 9.7381e-09 0)
(0.064897 6.70802e-09 0)
(0.064897 4.36758e-09 0)
(0.064897 2.60111e-09 0)
(0.064897 1.26975e-09 0)
(0.064897 3.17503e-10 0)
(0.064897 -3.85803e-10 0)
(0.064897 -8.2826e-10 0)
(0.064897 -1.16775e-09 0)
(0.064897 -1.2956e-09 0)
(0.064897 -1.45787e-09 0)
(0.064897 -1.38198e-09 0)
(0.064897 -1.51145e-09 0)
(0.064897 -1.27106e-09 0)
(0.064897 -1.50592e-09 0)
(0.064897 -1.06711e-09 0)
(0.064897 -1.58206e-09 0)
(0.064897 -8.18203e-10 0)
(0.064897 -1.88101e-09 0)
(0.064897 -5.32104e-10 0)
(0.064897 -2.57822e-09 0)
(0.064897 -1.94255e-10 0)
(0.0648969 -3.90711e-09 0)
(0.064897 1.86268e-10 0)
(0.0648969 -6.14082e-09 0)
(0.064897 4.33342e-10 0)
(0.0648969 -9.43519e-09 0)
(0.064897 -2.1213e-10 0)
(0.0648969 -1.32792e-08 0)
(0.0648971 -4.19169e-09 0)
(0.0648968 -1.49843e-08 0)
(0.0648972 -1.82312e-08 0)
(0.0648966 -6.36666e-09 0)
(0.0648974 -5.81125e-08 0)
(0.0648962 2.95546e-08 0)
(0.0648979 -1.48041e-07 0)
(0.0648954 9.07382e-08 0)
(0.0648991 -2.27595e-07 0)
(0.0648937 -1.52318e-07 0)
(0.0649015 4.59645e-08 0)
(0.0648901 -2.5093e-07 0)
(0.0649066 9.91993e-09 0)
(0.0648822 -1.76804e-07 0)
(0.0983444 -0.0173045 0)
(0.0968746 -0.0116398 0)
(0.0950589 -0.00628615 0)
(0.092989 -0.00146698 0)
(0.0907223 0.00263923 0)
(0.0883362 0.0059345 0)
(0.0858802 0.00837159 0)
(0.0834145 0.00995769 0)
(0.0809794 0.0107504 0)
(0.0786441 0.0108778 0)
(0.0764773 0.0105151 0)
(0.0745541 0.00984805 0)
(0.0729112 0.00902396 0)
(0.0715558 0.00813753 0)
(0.0704561 0.00723514 0)
(0.0695699 0.00633767 0)
(0.0688475 0.00545651 0)
(0.0682511 0.00460498 0)
(0.0677494 0.00379869 0)
(0.0673242 0.00305441 0)
(0.0669618 0.00238584 0)
(0.0666554 0.0018022 0)
(0.0663983 0.00130685 0)
(0.0661864 0.000898245 0)
(0.0660142 0.000570637 0)
(0.0658773 0.000315782 0)
(0.0657704 0.000123905 0)
(0.065689 -1.50588e-05 0)
(0.0656282 -0.000110903 0)
(0.0655843 -0.000172534 0)
(0.0655535 -0.000207826 0)
(0.065533 -0.000223432 0)
(0.06552 -0.00022487 0)
(0.0655128 -0.000216548 0)
(0.0655096 -0.000201935 0)
(0.0655092 -0.00018366 0)
(0.0655107 -0.000163678 0)
(0.0655134 -0.000143382 0)
(0.0655168 -0.000123731 0)
(0.0655204 -0.00010534 0)
(0.065524 -8.85712e-05 0)
(0.0655275 -7.35974e-05 0)
(0.0655308 -6.04588e-05 0)
(0.0655337 -4.91025e-05 0)
(0.0655363 -3.9419e-05 0)
(0.0655386 -3.12627e-05 0)
(0.0655406 -2.44725e-05 0)
(0.0655422 -1.88822e-05 0)
(0.0655436 -1.43306e-05 0)
(0.0655448 -1.06656e-05 0)
(0.0655457 -7.74881e-06 0)
(0.0655465 -5.45576e-06 0)
(0.0655471 -3.67737e-06 0)
(0.0655476 -2.31891e-06 0)
(0.065548 -1.29953e-06 0)
(0.0655483 -5.50851e-07 0)
(0.0655485 -1.58165e-08 0)
(0.0655487 3.5277e-07 0)
(0.0655488 5.93475e-07 0)
(0.0655489 7.37535e-07 0)
(0.065549 8.09948e-07 0)
(0.065549 8.3052e-07 0)
(0.065549 8.14742e-07 0)
(0.065549 7.74578e-07 0)
(0.065549 7.19125e-07 0)
(0.065549 6.55185e-07 0)
(0.065549 5.8773e-07 0)
(0.065549 5.20298e-07 0)
(0.065549 4.55314e-07 0)
(0.065549 3.94352e-07 0)
(0.065549 3.38344e-07 0)
(0.065549 2.87752e-07 0)
(0.065549 2.42694e-07 0)
(0.0655489 2.03052e-07 0)
(0.0655489 1.6855e-07 0)
(0.0655489 1.38814e-07 0)
(0.0655489 1.13414e-07 0)
(0.0655489 9.18998e-08 0)
(0.0655489 7.38244e-08 0)
(0.0655489 5.87561e-08 0)
(0.0655489 4.62921e-08 0)
(0.0655489 3.60615e-08 0)
(0.0655489 2.77317e-08 0)
(0.0655489 2.10037e-08 0)
(0.0655489 1.56191e-08 0)
(0.0655489 1.13467e-08 0)
(0.0655489 7.99655e-09 0)
(0.0655489 5.39295e-09 0)
(0.0655489 3.40623e-09 0)