/*--------------------------------*- C++ -*----------------------------------*\
| =========                 |                                                 |
| \\      /  F ield         | OpenFOAM: The Open Source CFD Toolbox           |
|  \\    /   O peration     | Version:  4.1                                   |
|   \\  /    A nd           | Web:      www.OpenFOAM.org                      |
|    \\/     M anipulation  |                                                 |
\*---------------------------------------------------------------------------*/
FoamFile
{
    version     2.0;
    format      ascii;
    class       volVectorField;
    location    "175";
    object      U;
}
// * * * * * * * * * * * * * * * * * * * * * * * * * * * * * * * * * * * * * //

dimensions      [0 1 -1 0 0 0 0];

internalField   nonuniform List<vector> 
3264
(
(9.95672e-06 -1.25982e-05 0)
(-6.14287e-05 1.05564e-05 0)
(-0.000247476 2.74615e-05 0)
(-0.000480471 3.06233e-05 0)
(-0.000744921 3.28384e-05 0)
(-0.00103247 3.23505e-05 0)
(-0.00133767 3.41388e-05 0)
(-0.00166516 3.62875e-05 0)
(-0.00201405 4.04008e-05 0)
(-0.00238977 4.59047e-05 0)
(-0.00279445 5.35368e-05 0)
(-0.00323286 6.33657e-05 0)
(-0.00370785 7.58015e-05 0)
(-0.00422245 9.09581e-05 0)
(-0.00477785 0.000108877 0)
(-0.00537387 0.000129313 0)
(-0.00600806 0.00015176 0)
(-0.00667571 0.000175408 0)
(-0.00736956 0.00019919 0)
(-0.00807993 0.000221849 0)
(-0.00879487 0.000242044 0)
(-0.00950061 0.000258466 0)
(-0.010182 0.000269948 0)
(-0.010823 0.000275557 0)
(-0.0114078 0.00027464 0)
(-0.0119205 0.000266851 0)
(-0.0123465 0.000252137 0)
(-0.0126725 0.000230711 0)
(-0.012887 0.000203009 0)
(-0.0129804 0.000169646 0)
(-0.0129451 0.000131377 0)
(-0.0127759 8.90601e-05 0)
(-0.0124697 4.36293e-05 0)
(-0.0120258 -3.93062e-06 0)
(-0.0114455 -5.25999e-05 0)
(-0.0107325 -0.000101338 0)
(-0.00989262 -0.000149097 0)
(-0.00893372 -0.000194828 0)
(-0.00786579 -0.000237499 0)
(-0.00670079 -0.000276105 0)
(-0.00545261 -0.000309682 0)
(-0.00413702 -0.000337338 0)
(-0.00277146 -0.000358273 0)
(-0.00137495 -0.000371815 0)
(3.21512e-05 -0.000377461 0)
(0.00142846 -0.000374923 0)
(0.00279191 -0.00036417 0)
(0.00410025 -0.000345478 0)
(0.0053316 -0.000319469 0)
(0.0064651 -0.000287128 0)
(0.00748171 -0.000249806 0)
(0.00836498 -0.000209177 0)
(0.00910192 -0.000167148 0)
(0.00968374 -0.000125715 0)
(0.0101065 -8.67666e-05 0)
(0.0103716 -5.18527e-05 0)
(0.0104859 -2.19736e-05 0)
(0.0104613 2.54651e-06 0)
(0.0103142 2.20308e-05 0)
(0.0100645 3.72392e-05 0)
(0.00973394 4.90308e-05 0)
(0.00934469 5.8039e-05 0)
(0.00891723 6.45172e-05 0)
(0.0084691 6.84377e-05 0)
(0.00801403 6.97915e-05 0)
(0.00756203 6.89286e-05 0)
(0.00711994 6.67538e-05 0)
(0.00669227 6.46374e-05 0)
(0.0062816 6.40244e-05 0)
(0.00588901 6.58935e-05 0)
(0.00551451 7.03542e-05 0)
(0.00515785 7.66164e-05 0)
(0.00481933 8.33345e-05 0)
(0.00450045 8.90968e-05 0)
(0.00420415 9.27952e-05 0)
(0.00393481 9.37544e-05 0)
(0.00369793 9.16693e-05 0)
(0.00349978 8.6473e-05 0)
(0.00334687 7.82308e-05 0)
(0.00324545 6.70898e-05 0)
(0.00320104 5.32728e-05 0)
(0.00321807 3.70889e-05 0)
(0.00329954 1.89417e-05 0)
(0.00344685 -6.73061e-07 0)
(0.00365968 -2.11815e-05 0)
(0.00393593 -4.19528e-05 0)
(0.00427172 -6.23238e-05 0)
(0.00466142 -8.16236e-05 0)
(0.00509778 -9.9199e-05 0)
(0.00557201 -0.00011444 0)
(0.00607404 -0.000126808 0)
(0.00659279 -0.000135863 0)
(0.00711656 -0.000141297 0)
(0.00763349 -0.000142958 0)
(0.00813209 -0.000140878 0)
(0.00860185 -0.000135276 0)
(0.00903375 -0.000126557 0)
(0.00942073 -0.000115283 0)
(0.00975805 -0.000102129 0)
(0.0100434 -8.78266e-05 0)
(0.0102767 -7.31066e-05 0)
(0.0104601 -5.86385e-05 0)
(0.0105974 -4.49886e-05 0)
(0.0106937 -3.25923e-05 0)
(0.0107549 -2.17443e-05 0)
(0.0107869 -1.26029e-05 0)
(0.010796 -5.2062e-06 0)
(0.0107878 5.05884e-07 0)
(0.0107674 4.66724e-06 0)
(0.0107391 7.46126e-06 0)
(0.0107067 9.09904e-06 0)
(0.0106731 9.8008e-06 0)
(0.0106402 9.78118e-06 0)
(0.0106097 9.23832e-06 0)
(0.0105825 8.34669e-06 0)
(0.0105591 7.25309e-06 0)
(0.0105397 6.07536e-06 0)
(0.0105241 4.9033e-06 0)
(0.0105121 3.80097e-06 0)
(0.0105033 2.81012e-06 0)
(0.0104972 1.95395e-06 0)
(0.0104933 1.24107e-06 0)
(0.0104912 6.69248e-07 0)
(0.0104905 2.28682e-07 0)
(0.0104907 -9.51114e-08 0)
(0.0104917 -3.19036e-07 0)
(0.0104931 -4.60658e-07 0)
(0.0104947 -5.36948e-07 0)
(0.0104964 -5.63441e-07 0)
(0.0104981 -5.53755e-07 0)
(0.0104997 -5.19369e-07 0)
(0.0105011 -4.69613e-07 0)
(0.0105023 -4.1179e-07 0)
(0.0105034 -3.51383e-07 0)
(0.0105043 -2.92312e-07 0)
(0.010505 -2.372e-07 0)
(0.0105056 -1.87635e-07 0)
(0.0105061 -1.44406e-07 0)
(0.0105064 -1.07717e-07 0)
(0.0105066 -7.73586e-08 0)
(0.0105068 -5.28558e-08 0)
(0.0105069 -3.35769e-08 0)
(0.010507 -1.88201e-08 0)
(0.010507 -7.87395e-09 0)
(0.010507 -5.90467e-11 0)
(0.010507 5.24568e-09 0)
(0.010507 8.58878e-09 0)
(0.010507 1.04407e-08 0)
(0.0105069 1.11946e-08 0)
(0.0105069 1.11708e-08 0)
(0.0105069 1.06241e-08 0)
(0.0105068 9.75198e-09 0)
(0.0105068 8.70333e-09 0)
(0.0105068 7.58685e-09 0)
(0.0105068 6.47877e-09 0)
(0.0105068 5.42969e-09 0)
(0.0105068 4.47056e-09 0)
(0.0105067 3.61766e-09 0)
(0.0105067 2.87665e-09 0)
(0.0105067 2.24581e-09 0)
(0.0105067 1.71866e-09 0)
(0.0105067 1.2858e-09 0)
(0.0105067 9.36431e-10 0)
(0.0105067 6.59296e-10 0)
(0.0105067 4.43431e-10 0)
(0.0105067 2.78592e-10 0)
(0.0105067 1.55518e-10 0)
(0.0105067 6.60528e-11 0)
(0.0105067 3.17019e-12 0)
(0.0105067 -3.90648e-11 0)
(0.0105067 -6.5573e-11 0)
(0.0105067 -8.03679e-11 0)
(0.0105067 -8.66701e-11 0)
(0.0105067 -8.70178e-11 0)
(0.0105067 -8.3378e-11 0)
(0.0105067 -7.72433e-11 0)
(0.0105067 -6.97219e-11 0)
(0.0105067 -6.16147e-11 0)
(0.0105067 -5.34817e-11 0)
(0.0105067 -4.56964e-11 0)
(0.0105067 -3.84918e-11 0)
(0.0105067 -3.19953e-11 0)
(0.0105067 -2.62596e-11 0)
(0.0105067 -2.12873e-11 0)
(0.0105067 -1.70435e-11 0)
(0.0105067 -1.34734e-11 0)
(0.0105067 -1.05099e-11 0)
(0.0105067 -8.0818e-12 0)
(0.0105067 -6.11803e-12 0)
(0.0105067 -4.55106e-12 0)
(0.0105067 -3.31828e-12 0)
(0.0105067 -2.36608e-12 0)
(0.0105067 -1.64253e-12 0)
(0.0105067 -1.11897e-12 0)
(0.0105067 -7.48662e-13 0)
(0.0105067 -5.37725e-13 0)
(0.0105067 -4.94576e-13 0)
(0.0105067 -4.84637e-13 0)
(0.0105067 -1.3323e-12 0)
(0.0105067 -1.07664e-12 0)
(-6.56612e-05 6.38421e-05 0)
(-0.000486141 0.000261932 0)
(-0.00113945 0.000411212 0)
(-0.00188392 0.000488358 0)
(-0.00268505 0.000547134 0)
(-0.00352974 0.000588483 0)
(-0.0044037 0.000631639 0)
(-0.00531184 0.000674323 0)
(-0.00624891 0.00072226 0)
(-0.00721904 0.000774879 0)
(-0.00822007 0.000833433 0)
(-0.00925182 0.000896865 0)
(-0.0103097 0.000963808 0)
(-0.0113873 0.00103169 0)
(-0.0124744 0.00109729 0)
(-0.0135582 0.00115676 0)
(-0.0146227 0.00120592 0)
(-0.0156498 0.00124058 0)
(-0.0166198 0.00125678 0)
(-0.0175121 0.00125115 0)
(-0.0183065 0.00122105 0)
(-0.0189832 0.00116477 0)
(-0.0195238 0.00108155 0)
(-0.0199119 0.000971568 0)
(-0.0201331 0.000835876 0)
(-0.0201753 0.000676246 0)
(-0.020029 0.000495034 0)
(-0.0196871 0.000295045 0)
(-0.0191448 7.93949e-05 0)
(-0.0183998 -0.000148586 0)
(-0.0174522 -0.000385438 0)
(-0.0163043 -0.000627629 0)
(-0.0149602 -0.00087159 0)
(-0.0134266 -0.00111374 0)
(-0.0117119 -0.00135052 0)
(-0.00982658 -0.00157835 0)
(-0.00778317 -0.00179371 0)
(-0.00559611 -0.00199308 0)
(-0.00328179 -0.00217299 0)
(-0.000858552 -0.00233005 0)
(0.00165333 -0.00246094 0)
(0.00423166 -0.00256252 0)
(0.0068524 -0.00263184 0)
(0.00948973 -0.00266626 0)
(0.0121162 -0.00266356 0)
(0.0147028 -0.00262207 0)
(0.0172196 -0.00254081 0)
(0.0196355 -0.00241966 0)
(0.0219194 -0.00225954 0)
(0.0240401 -0.00206255 0)
(0.0259672 -0.00183211 0)
(0.0276722 -0.00157305 0)
(0.0291288 -0.00129169 0)
(0.0303142 -0.000995717 0)
(0.0312101 -0.000694089 0)
(0.0318038 -0.000396704 0)
(0.0320893 -0.000113935 0)
(0.032069 0.000144054 0)
(0.0317542 0.000368212 0)
(0.0311659 0.000551694 0)
(0.0303347 0.000690962 0)
(0.0292998 0.000786584 0)
(0.028107 0.000843258 0)
(0.0268056 0.000868741 0)
(0.0254454 0.000871813 0)
(0.0240734 0.000860074 0)
(0.0227301 0.000838626 0)
(0.0214466 0.000810173 0)
(0.0202441 0.000776095 0)
(0.019134 0.000737458 0)
(0.0181213 0.000695325 0)
(0.0172076 0.000650466 0)
(0.0163938 0.000602953 0)
(0.0156819 0.000552002 0)
(0.0150743 0.000496102 0)
(0.0145745 0.000433368 0)
(0.0141862 0.000362016 0)
(0.0139131 0.000280822 0)
(0.0137586 0.000189434 0)
(0.0137252 8.84725e-05 0)
(0.0138147 -2.05539e-05 0)
(0.0140269 -0.000135445 0)
(0.0143604 -0.000253525 0)
(0.0148114 -0.000371839 0)
(0.0153743 -0.000487291 0)
(0.0160414 -0.000596751 0)
(0.0168026 -0.000697136 0)
(0.0176458 -0.000785479 0)
(0.0185569 -0.000859019 0)
(0.0195198 -0.000915301 0)
(0.0205166 -0.00095231 0)
(0.021528 -0.000968629 0)
(0.0225337 -0.000963608 0)
(0.0235132 -0.000937507 0)
(0.0244468 -0.000891605 0)
(0.0253161 -0.000828203 0)
(0.0261058 -0.000750524 0)
(0.0268038 -0.000662492 0)
(0.0274027 -0.000568418 0)
(0.0278997 -0.000472639 0)
(0.0282963 -0.000379173 0)
(0.0285983 -0.000291431 0)
(0.0288148 -0.000212035 0)
(0.0289568 -0.000142737 0)
(0.0290366 -8.44451e-05 0)
(0.0290668 -3.73156e-05 0)
(0.0290592 -8.93225e-07 0)
(0.0290247 2.57289e-05 0)
(0.0289726 4.37526e-05 0)
(0.0289107 5.45336e-05 0)
(0.0288451 5.94657e-05 0)
(0.0287803 5.98903e-05 0)
(0.0287195 5.70339e-05 0)
(0.028665 5.19686e-05 0)
(0.0286176 4.55918e-05 0)
(0.028578 3.86234e-05 0)
(0.0285459 3.16128e-05 0)
(0.0285208 2.4955e-05 0)
(0.028502 1.89118e-05 0)
(0.0284885 1.3634e-05 0)
(0.0284796 9.18521e-06 0)
(0.0284743 5.5633e-06 0)
(0.0284718 2.71996e-06 0)
(0.0284713 5.77251e-07 0)
(0.0284724 -9.58891e-07 0)
(0.0284744 -1.98829e-06 0)
(0.028477 -2.60892e-06 0)
(0.0284799 -2.91169e-06 0)
(0.0284828 -2.97736e-06 0)
(0.0284855 -2.87494e-06 0)
(0.0284881 -2.66139e-06 0)
(0.0284904 -2.38205e-06 0)
(0.0284924 -2.07174e-06 0)
(0.028494 -1.75604e-06 0)
(0.0284954 -1.45282e-06 0)
(0.0284965 -1.17361e-06 0)
(0.0284974 -9.25037e-07 0)
(0.0284981 -7.09993e-07 0)
(0.0284986 -5.2868e-07 0)
(0.0284989 -3.79464e-07 0)
(0.0284992 -2.59558e-07 0)
(0.0284993 -1.65549e-07 0)
(0.0284994 -9.37826e-08 0)
(0.0284995 -4.06427e-08 0)
(0.0284995 -2.72997e-09 0)
(0.0284994 2.30268e-08 0)
(0.0284994 3.93154e-08 0)
(0.0284994 4.84251e-08 0)
(0.0284993 5.22567e-08 0)
(0.0284993 5.23527e-08 0)
(0.0284992 4.99346e-08 0)
(0.0284992 4.59467e-08 0)
(0.0284991 4.10994e-08 0)
(0.0284991 3.59103e-08 0)
(0.0284991 3.07424e-08 0)
(0.0284991 2.5837e-08 0)
(0.028499 2.1342e-08 0)
(0.028499 1.73362e-08 0)
(0.028499 1.3848e-08 0)
(0.028499 1.08712e-08 0)
(0.028499 8.37664e-09 0)
(0.028499 6.32174e-09 0)
(0.028499 4.65686e-09 0)
(0.028499 3.33024e-09 0)
(0.028499 2.29122e-09 0)
(0.028499 1.4924e-09 0)
(0.028499 8.90808e-10 0)
(0.028499 4.48542e-10 0)
(0.028499 1.32867e-10 0)
(0.028499 -8.393e-11 0)
(0.028499 -2.24907e-10 0)
(0.028499 -3.08932e-10 0)
(0.028499 -3.51191e-10 0)
(0.028499 -3.63721e-10 0)
(0.028499 -3.55889e-10 0)
(0.028499 -3.34857e-10 0)
(0.028499 -3.05991e-10 0)
(0.028499 -2.73211e-10 0)
(0.028499 -2.39303e-10 0)
(0.028499 -2.06166e-10 0)
(0.028499 -1.75022e-10 0)
(0.028499 -1.46597e-10 0)
(0.028499 -1.21243e-10 0)
(0.028499 -9.90655e-11 0)
(0.028499 -7.99837e-11 0)
(0.028499 -6.38046e-11 0)
(0.028499 -5.0275e-11 0)
(0.028499 -3.91024e-11 0)
(0.028499 -2.99965e-11 0)
(0.028499 -2.26672e-11 0)
(0.028499 -1.68406e-11 0)
(0.028499 -1.22805e-11 0)
(0.028499 -8.75945e-12 0)
(0.028499 -6.12111e-12 0)
(0.028499 -4.15989e-12 0)
(0.028499 -2.87362e-12 0)
(0.028499 -2.11484e-12 0)
(0.028499 -1.62136e-12 0)
(0.028499 -3.43932e-12 0)
(0.028499 -3.04366e-12 0)
(-0.000173053 0.000529097 0)
(-0.0010179 0.00108472 0)
(-0.00214765 0.00141265 0)
(-0.0033391 0.00154772 0)
(-0.00453469 0.00164694 0)
(-0.00572216 0.00170904 0)
(-0.00688024 0.00177266 0)
(-0.00801548 0.00183226 0)
(-0.0091199 0.00189635 0)
(-0.010196 0.00196208 0)
(-0.0112381 0.00202886 0)
(-0.0122419 0.00209251 0)
(-0.0131985 0.00214847 0)
(-0.0140976 0.00219103 0)
(-0.014926 0.00221427 0)
(-0.0156694 0.00221236 0)
(-0.0163126 0.00218003 0)
(-0.01684 0.00211287 0)
(-0.0172366 0.00200757 0)
(-0.0174883 0.00186205 0)
(-0.0175823 0.00167549 0)
(-0.0175077 0.00144827 0)
(-0.0172552 0.00118188 0)
(-0.0168174 0.000878756 0)
(-0.0161888 0.000542118 0)
(-0.0153657 0.000175785 0)
(-0.0143461 -0.000215964 0)
(-0.0131296 -0.000628531 0)
(-0.0117174 -0.0010571 0)
(-0.0101122 -0.0014967 0)
(-0.00831804 -0.00194229 0)
(-0.00634058 -0.00238872 0)
(-0.00418684 -0.00283083 0)
(-0.00186536 -0.00326338 0)
(0.000613824 -0.00368108 0)
(0.00323909 -0.00407861 0)
(0.00599723 -0.00445057 0)
(0.00887337 -0.00479153 0)
(0.011851 -0.00509604 0)
(0.0149117 -0.00535864 0)
(0.0180355 -0.00557392 0)
(0.0212006 -0.00573661 0)
(0.0243834 -0.00584166 0)
(0.0275587 -0.00588438 0)
(0.0306996 -0.00586065 0)
(0.033778 -0.00576707 0)
(0.0367647 -0.00560122 0)
(0.0396296 -0.00536191 0)
(0.0423425 -0.00504941 0)
(0.044873 -0.0046657 0)
(0.0471916 -0.00421467 0)
(0.04927 -0.00370222 0)
(0.0510814 -0.00313639 0)
(0.0526011 -0.00252731 0)
(0.053807 -0.00188714 0)
(0.0546802 -0.00122995 0)
(0.0552048 -0.000571481 0)
(0.0553691 7.11369e-05 0)
(0.0551663 0.000679822 0)
(0.0545954 0.0012362 0)
(0.0536634 0.00172259 0)
(0.0523869 0.00212331 0)
(0.0507946 0.00242632 0)
(0.0489286 0.002625 0)
(0.0468455 0.00271974 0)
(0.0446133 0.00271909 0)
(0.042308 0.00263948 0)
(0.0400057 0.0025031 0)
(0.0377767 0.00233353 0)
(0.0356789 0.00215049 0)
(0.0337552 0.00196605 0)
(0.0320324 0.00178394 0)
(0.0305226 0.00160189 0)
(0.0292265 0.00141523 0)
(0.0281382 0.00121974 0)
(0.0272488 0.00101284 0)
(0.0265499 0.000793662 0)
(0.0260341 0.000562587 0)
(0.0256952 0.000320901 0)
(0.0255279 7.06209e-05 0)
(0.0255266 -0.000185567 0)
(0.0256852 -0.000444341 0)
(0.0259967 -0.000701811 0)
(0.0264532 -0.000953616 0)
(0.0270458 -0.00119503 0)
(0.0277644 -0.00142108 0)
(0.0285973 -0.00162666 0)
(0.0295319 -0.0018066 0)
(0.0305534 -0.00195589 0)
(0.0316458 -0.00206978 0)
(0.0327911 -0.00214408 0)
(0.0339691 -0.00217547 0)
(0.0351585 -0.00216193 0)
(0.0363363 -0.00210314 0)
(0.0374791 -0.00200088 0)
(0.0385637 -0.00185924 0)
(0.0395686 -0.00168464 0)
(0.0404753 -0.00148543 0)
(0.0412696 -0.00127132 0)
(0.0419428 -0.00105247 0)
(0.0424917 -0.000838562 0)
(0.0429193 -0.000637986 0)
(0.0432336 -0.000457216 0)
(0.0434469 -0.00030053 0)
(0.0435741 -0.000170026 0)
(0.0436312 -6.58726e-05 0)
(0.0436344 1.329e-05 0)
(0.0435984 6.98974e-05 0)
(0.0435366 0.000107032 0)
(0.0434598 0.000128057 0)
(0.0433767 0.000136327 0)
(0.043294 0.000134987 0)
(0.043216 0.000126844 0)
(0.0431459 0.000114291 0)
(0.043085 9.92861e-05 0)
(0.0430342 8.33642e-05 0)
(0.042993 6.76657e-05 0)
(0.0429609 5.29861e-05 0)
(0.0429369 3.98296e-05 0)
(0.0429198 2.8465e-05 0)
(0.0429085 1.89797e-05 0)
(0.0429017 1.13284e-05 0)
(0.0428984 5.37583e-06 0)
(0.0428978 9.31528e-07 0)
(0.042899 -2.22201e-06 0)
(0.0429014 -4.30837e-06 0)
(0.0429046 -5.54224e-06 0)
(0.042908 -6.11964e-06 0)
(0.0429115 -6.21233e-06 0)
(0.0429148 -5.9654e-06 0)
(0.0429179 -5.49732e-06 0)
(0.0429206 -4.90147e-06 0)
(0.0429229 -4.2488e-06 0)
(0.0429249 -3.59089e-06 0)
(0.0429265 -2.96325e-06 0)
(0.0429278 -2.38845e-06 0)
(0.0429288 -1.87901e-06 0)
(0.0429296 -1.43998e-06 0)
(0.0429301 -1.07104e-06 0)
(0.0429305 -7.68311e-07 0)
(0.0429308 -5.25671e-07 0)
(0.042931 -3.35864e-07 0)
(0.0429311 -1.91246e-07 0)
(0.0429311 -8.43327e-08 0)
(0.0429311 -8.14366e-09 0)
(0.0429311 4.35871e-08 0)
(0.0429311 7.63159e-08 0)
(0.042931 9.46687e-08 0)
(0.042931 1.02473e-07 0)
(0.0429309 1.02824e-07 0)
(0.0429309 9.81654e-08 0)
(0.0429308 9.03808e-08 0)
(0.0429308 8.08841e-08 0)
(0.0429307 7.07034e-08 0)
(0.0429307 6.05578e-08 0)
(0.0429307 5.09245e-08 0)
(0.0429307 4.20958e-08 0)
(0.0429306 3.42267e-08 0)
(0.0429306 2.7373e-08 0)
(0.0429306 2.15223e-08 0)
(0.0429306 1.66175e-08 0)
(0.0429306 1.25749e-08 0)
(0.0429306 9.29687e-09 0)
(0.0429306 6.68207e-09 0)
(0.0429306 4.63124e-09 0)
(0.0429306 3.05153e-09 0)
(0.0429306 1.85886e-09 0)
(0.0429306 9.79047e-10 0)
(0.0429306 3.48066e-10 0)
(0.0429306 -8.83049e-11 0)
(0.0429306 -3.75182e-10 0)
(0.0429306 -5.49501e-10 0)
(0.0429306 -6.41016e-10 0)
(0.0429306 -6.73307e-10 0)
(0.0429306 -6.64769e-10 0)
(0.0429306 -6.29482e-10 0)
(0.0429306 -5.78019e-10 0)
(0.0429306 -5.18135e-10 0)
(0.0429306 -4.55349e-10 0)
(0.0429306 -3.93459e-10 0)
(0.0429306 -3.34938e-10 0)
(0.0429306 -2.81276e-10 0)
(0.0429306 -2.33239e-10 0)
(0.0429306 -1.91075e-10 0)
(0.0429306 -1.54692e-10 0)
(0.0429306 -1.23765e-10 0)
(0.0429306 -9.7834e-11 0)
(0.0429306 -7.63741e-11 0)
(0.0429306 -5.88313e-11 0)
(0.0429306 -4.46697e-11 0)
(0.0429306 -3.33803e-11 0)
(0.0429306 -2.45014e-11 0)
(0.0429306 -1.76205e-11 0)
(0.0429306 -1.23872e-11 0)
(0.0429306 -8.46657e-12 0)
(0.0429306 -5.71266e-12 0)
(0.0429306 -3.73356e-12 0)
(0.0429306 -2.66746e-12 0)
(0.0429306 -3.06429e-12 0)
(0.0429306 -2.46113e-12 0)
(-0.00031605 0.00115803 0)
(-0.00157585 0.00218208 0)
(-0.00299879 0.00267433 0)
(-0.00435059 0.00281674 0)
(-0.00554815 0.00288453 0)
(-0.00663659 0.00288962 0)
(-0.0075975 0.00288967 0)
(-0.00845874 0.00288121 0)
(-0.00921615 0.00287548 0)
(-0.00987913 0.00286883 0)
(-0.0104449 0.00285924 0)
(-0.010913 0.00284075 0)
(-0.011278 0.00280713 0)
(-0.0115341 0.00275142 0)
(-0.0116736 0.00266694 0)
(-0.0116885 0.00254757 0)
(-0.0115707 0.00238818 0)
(-0.0113123 0.00218484 0)
(-0.0109059 0.00193493 0)
(-0.0103451 0.00163723 0)
(-0.00962451 0.00129182 0)
(-0.00873969 0.000900002 0)
(-0.00768725 0.000464175 0)
(-0.00646483 -1.23625e-05 0)
(-0.00507106 -0.000525561 0)
(-0.0035055 -0.00107077 0)
(-0.00176865 -0.0016429 0)
(0.000138027 -0.00223647 0)
(0.00221212 -0.00284575 0)
(0.00445018 -0.00346479 0)
(0.00684767 -0.00408743 0)
(0.00939888 -0.00470735 0)
(0.0120968 -0.00531804 0)
(0.0149331 -0.00591282 0)
(0.017898 -0.00648484 0)
(0.0209801 -0.00702708 0)
(0.0241664 -0.00753235 0)
(0.0274421 -0.00799333 0)
(0.030791 -0.00840257 0)
(0.0341948 -0.00875257 0)
(0.0376336 -0.00903579 0)
(0.0410857 -0.00924484 0)
(0.0445278 -0.00937255 0)
(0.0479348 -0.00941223 0)
(0.0512806 -0.0093579 0)
(0.0545379 -0.00920456 0)
(0.0576788 -0.00894854 0)
(0.0606752 -0.00858785 0)
(0.0634998 -0.00812249 0)
(0.0661258 -0.00755472 0)
(0.0685286 -0.00688934 0)
(0.0706851 -0.0061337 0)
(0.0725752 -0.00529776 0)
(0.0741811 -0.00439393 0)
(0.0754878 -0.00343686 0)
(0.0764828 -0.00244311 0)
(0.0771557 -0.00143085 0)
(0.0774982 -0.000419464 0)
(0.0775032 0.000570743 0)
(0.0771652 0.00151891 0)
(0.0764799 0.00240392 0)
(0.075445 0.00320471 0)
(0.0740616 0.0039007 0)
(0.072336 0.00447241 0)
(0.0702826 0.00490265 0)
(0.0679277 0.00517839 0)
(0.0653126 0.00529339 0)
(0.0624957 0.0052509 0)
(0.0595522 0.00506527 0)
(0.0565699 0.00476138 0)
(0.0536417 0.00437138 0)
(0.050855 0.00392936 0)
(0.0482831 0.0034654 0)
(0.0459781 0.00300083 0)
(0.0439694 0.00254652 0)
(0.042266 0.00210424 0)
(0.0408617 0.00167037 0)
(0.0397403 0.00123977 0)
(0.0388815 0.000808681 0)
(0.038264 0.000375931 0)
(0.0378677 -5.7077e-05 0)
(0.0376748 -0.000486979 0)
(0.0376692 -0.00090915 0)
(0.0378366 -0.00131823 0)
(0.0381634 -0.00170846 0)
(0.0386366 -0.00207378 0)
(0.039243 -0.00240793 0)
(0.0399696 -0.00270449 0)
(0.0408025 -0.00295688 0)
(0.0417272 -0.00315858 0)
(0.0427279 -0.00330331 0)
(0.0437876 -0.00338549 0)
(0.0448875 -0.00340076 0)
(0.0460075 -0.00334673 0)
(0.0471259 -0.00322366 0)
(0.0482201 -0.00303516 0)
(0.0492675 -0.0027885 0)
(0.0502465 -0.00249455 0)
(0.0511379 -0.00216717 0)
(0.0519262 -0.00182213 0)
(0.0526006 -0.00147565 0)
(0.0531562 -0.00114287 0)
(0.0535937 -0.000836555 0)
(0.0539193 -0.000566115 0)
(0.0541438 -0.000337247 0)
(0.0542809 -0.000152035 0)
(0.0543463 -9.45789e-06 0)
(0.0543561 9.38577e-05 0)
(0.0543253 0.000162824 0)
(0.0542675 0.000203136 0)
(0.0541941 0.000220654 0)
(0.0541141 0.000220954 0)
(0.0540342 0.000209032 0)
(0.0539591 0.000189155 0)
(0.0538919 0.000164798 0)
(0.0538341 0.000138669 0)
(0.0537861 0.000112771 0)
(0.0537477 8.84922e-05 0)
(0.0537181 6.6708e-05 0)
(0.0536964 4.78839e-05 0)
(0.0536812 3.21724e-05 0)
(0.0536714 1.94993e-05 0)
(0.0536659 9.63807e-06 0)
(0.0536636 2.27021e-06 0)
(0.0536636 -2.96721e-06 0)
(0.0536653 -6.44612e-06 0)
(0.0536679 -8.52253e-06 0)
(0.0536711 -9.52043e-06 0)
(0.0536744 -9.72284e-06 0)
(0.0536778 -9.36812e-06 0)
(0.0536809 -8.65029e-06 0)
(0.0536837 -7.72188e-06 0)
(0.0536861 -6.69842e-06 0)
(0.0536882 -5.6637e-06 0)
(0.05369 -4.67526e-06 0)
(0.0536914 -3.76956e-06 0)
(0.0536925 -2.96682e-06 0)
(0.0536933 -2.27518e-06 0)
(0.053694 -1.69418e-06 0)
(0.0536944 -1.21762e-06 0)
(0.0536948 -8.35794e-07 0)
(0.053695 -5.37165e-07 0)
(0.0536951 -3.09628e-07 0)
(0.0536952 -1.41343e-07 0)
(0.0536952 -2.12952e-08 0)
(0.0536952 6.03898e-08 0)
(0.0536951 1.12293e-07 0)
(0.0536951 1.41677e-07 0)
(0.053695 1.54541e-07 0)
(0.053695 1.55729e-07 0)
(0.0536949 1.4906e-07 0)
(0.0536949 1.37475e-07 0)
(0.0536949 1.23178e-07 0)
(0.0536948 1.07771e-07 0)
(0.0536948 9.23729e-08 0)
(0.0536948 7.77283e-08 0)
(0.0536947 6.42927e-08 0)
(0.0536947 5.23089e-08 0)
(0.0536947 4.18663e-08 0)
(0.0536947 3.29483e-08 0)
(0.0536947 2.54694e-08 0)
(0.0536947 1.93027e-08 0)
(0.0536947 1.43002e-08 0)
(0.0536947 1.03077e-08 0)
(0.0536947 7.17397e-09 0)
(0.0536947 4.75785e-09 0)
(0.0536947 2.93134e-09 0)
(0.0536947 1.58155e-09 0)
(0.0536947 6.11058e-10 0)
(0.0536947 -6.2626e-11 0)
(0.0536947 -5.08137e-10 0)
(0.0536947 -7.81662e-10 0)
(0.0536947 -9.28463e-10 0)
(0.0536947 -9.84435e-10 0)
(0.0536947 -9.77569e-10 0)
(0.0536947 -9.29319e-10 0)
(0.0536947 -8.55801e-10 0)
(0.0536947 -7.68847e-10 0)
(0.0536947 -6.76912e-10 0)
(0.0536947 -5.85816e-10 0)
(0.0536947 -4.99375e-10 0)
(0.0536947 -4.19904e-10 0)
(0.0536947 -3.48615e-10 0)
(0.0536947 -2.85943e-10 0)
(0.0536947 -2.31785e-10 0)
(0.0536947 -1.85688e-10 0)
(0.0536947 -1.46994e-10 0)
(0.0536947 -1.14931e-10 0)
(0.0536947 -8.86904e-11 0)
(0.0536947 -6.74782e-11 0)
(0.0536947 -5.05457e-11 0)
(0.0536947 -3.72053e-11 0)
(0.0536947 -2.68424e-11 0)
(0.0536947 -1.89141e-11 0)
(0.0536947 -1.29597e-11 0)
(0.0536947 -8.60125e-12 0)
(0.0536947 -5.42699e-12 0)
(0.0536947 -3.49429e-12 0)
(0.0536947 -1.95071e-12 0)
(0.0536947 -1.23121e-12 0)
(-0.00042045 0.00242095 0)
(-0.00179198 0.00374244 0)
(-0.00311408 0.00417067 0)
(-0.00420663 0.00403999 0)
(-0.00498555 0.00389323 0)
(-0.00556066 0.00370958 0)
(-0.0059291 0.00355651 0)
(-0.0061479 0.00341416 0)
(-0.00622277 0.00328681 0)
(-0.00617463 0.00316499 0)
(-0.00600616 0.00304257 0)
(-0.00572275 0.00291103 0)
(-0.00532348 0.00276226 0)
(-0.00480756 0.00258823 0)
(-0.00417209 0.00238161 0)
(-0.0034141 0.00213608 0)
(-0.00253017 0.00184655 0)
(-0.00151702 0.00150928 0)
(-0.000371524 0.00112197 0)
(0.000909134 0.000683721 0)
(0.00232743 0.000194922 0)
(0.00388543 -0.000342824 0)
(0.00558481 -0.000926867 0)
(0.00742677 -0.00155364 0)
(0.00941197 -0.00221881 0)
(0.0115405 -0.00291738 0)
(0.0138117 -0.00364381 0)
(0.0162243 -0.0043921 0)
(0.0187757 -0.00515583 0)
(0.0214626 -0.00592823 0)
(0.0242805 -0.00670215 0)
(0.0272234 -0.00747011 0)
(0.0302841 -0.00822427 0)
(0.0334536 -0.00895646 0)
(0.0367215 -0.00965817 0)
(0.0400753 -0.0103206 0)
(0.0435011 -0.0109346 0)
(0.0469827 -0.0114909 0)
(0.0505023 -0.0119799 0)
(0.0540402 -0.0123921 0)
(0.0575749 -0.0127176 0)
(0.0610831 -0.0129471 0)
(0.0645402 -0.0130712 0)
(0.0679201 -0.0130814 0)
(0.0711961 -0.0129702 0)
(0.0743413 -0.0127314 0)
(0.0773292 -0.0123608 0)
(0.0801349 -0.0118566 0)
(0.0827354 -0.0112195 0)
(0.0851108 -0.0104535 0)
(0.087245 -0.00956552 0)
(0.0891255 -0.00856587 0)
(0.0907443 -0.00746759 0)
(0.0920969 -0.00628629 0)
(0.0931821 -0.00503961 0)
(0.0940013 -0.0037467 0)
(0.0945572 -0.00242768 0)
(0.094853 -0.00110328 0)
(0.0948913 0.000205576 0)
(0.0946737 0.00147793 0)
(0.0941996 0.00269298 0)
(0.093467 0.00383013 0)
(0.0924718 0.00486909 0)
(0.0912085 0.00579 0)
(0.0896717 0.00657361 0)
(0.0878574 0.00720181 0)
(0.0857655 0.0076585 0)
(0.0834036 0.00793102 0)
(0.0807911 0.00801194 0)
(0.0779627 0.00790109 0)
(0.0749711 0.0076074 0)
(0.0718864 0.00714988 0)
(0.0687913 0.00655701 0)
(0.0657743 0.00586399 0)
(0.0629193 0.00510824 0)
(0.0602967 0.00432409 0)
(0.0579573 0.00353864 0)
(0.0559296 0.00276977 0)
(0.0542223 0.00202687 0)
(0.0528278 0.00131316 0)
(0.0517284 0.000628667 0)
(0.0509005 -2.72958e-05 0)
(0.0503187 -0.000654578 0)
(0.0499581 -0.00125153 0)
(0.0497955 -0.00181494 0)
(0.0498093 -0.00234026 0)
(0.0499801 -0.00282195 0)
(0.05029 -0.00325365 0)
(0.0507223 -0.00362844 0)
(0.0512607 -0.00393906 0)
(0.0518895 -0.00417811 0)
(0.052593 -0.00433858 0)
(0.053355 -0.00441439 0)
(0.0541591 -0.00440125 0)
(0.0549879 -0.00429764 0)
(0.0558242 -0.00410572 0)
(0.05665 -0.00383209 0)
(0.057448 -0.00348796 0)
(0.0582017 -0.00308891 0)
(0.0588964 -0.00265375 0)
(0.0595197 -0.00220307 0)
(0.0600623 -0.00175736 0)
(0.0605187 -0.00133517 0)
(0.0608875 -0.000951656 0)
(0.0611711 -0.000617568 0)
(0.0613756 -0.000338938 0)
(0.0615098 -0.000117315 0)
(0.0615844 4.95397e-05 0)
(0.0616113 0.000166698 0)
(0.0616021 0.000241031 0)
(0.0615675 0.000280257 0)
(0.0615169 0.000292157 0)
(0.0614583 0.000284004 0)
(0.0613975 0.000262202 0)
(0.061339 0.000232106 0)
(0.0612856 0.000197974 0)
(0.0612391 0.000163023 0)
(0.0612 0.000129537 0)
(0.0611685 9.90121e-05 0)
(0.0611441 7.2302e-05 0)
(0.0611259 4.97682e-05 0)
(0.0611131 3.14098e-05 0)
(0.0611048 1.6978e-05 0)
(0.0610999 6.0694e-06 0)
(0.0610978 -1.80024e-06 0)
(0.0610975 -7.14068e-06 0)
(0.0610986 -1.0448e-05 0)
(0.0611006 -1.21787e-05 0)
(0.061103 -1.27351e-05 0)
(0.0611056 -1.24584e-05 0)
(0.0611082 -1.16279e-05 0)
(0.0611107 -1.04646e-05 0)
(0.0611129 -9.13723e-06 0)
(0.0611148 -7.76895e-06 0)
(0.0611164 -6.4454e-06 0)
(0.0611178 -5.22189e-06 0)
(0.0611189 -4.13019e-06 0)
(0.0611197 -3.18451e-06 0)
(0.0611204 -2.38645e-06 0)
(0.0611209 -1.7291e-06 0)
(0.0611212 -1.20028e-06 0)
(0.0611215 -7.84934e-07 0)
(0.0611216 -4.66971e-07 0)
(0.0611217 -2.3047e-07 0)
(0.0611218 -6.05105e-08 0)
(0.0611218 5.63496e-08 0)
(0.0611218 1.3184e-07 0)
(0.0611218 1.75919e-07 0)
(0.0611217 1.9684e-07 0)
(0.0611217 2.01279e-07 0)
(0.0611216 1.94519e-07 0)
(0.0611216 1.80637e-07 0)
(0.0611216 1.62702e-07 0)
(0.0611215 1.42954e-07 0)
(0.0611215 1.22969e-07 0)
(0.0611215 1.03802e-07 0)
(0.0611215 8.61119e-08 0)
(0.0611214 7.02607e-08 0)
(0.0611214 5.63964e-08 0)
(0.0611214 4.45188e-08 0)
(0.0611214 3.45297e-08 0)
(0.0611214 2.62715e-08 0)
(0.0611214 1.95551e-08 0)
(0.0611214 1.41804e-08 0)
(0.0611214 9.95008e-09 0)
(0.0611214 6.6782e-09 0)
(0.0611214 4.19571e-09 0)
(0.0611214 2.35297e-09 0)
(0.0611214 1.02046e-09 0)
(0.0611214 8.82554e-11 0)
(0.0611214 -5.35314e-10 0)
(0.0611214 -9.25439e-10 0)
(0.0611214 -1.14283e-09 0)
(0.0611214 -1.23574e-09 0)
(0.0611214 -1.24187e-09 0)
(0.0611214 -1.19023e-09 0)
(0.0611214 -1.10265e-09 0)
(0.0611214 -9.95243e-10 0)
(0.0611214 -8.79571e-10 0)
(0.0611214 -7.63659e-10 0)
(0.0611214 -6.52824e-10 0)
(0.0611214 -5.50347e-10 0)
(0.0611214 -4.58016e-10 0)
(0.0611214 -3.76553e-10 0)
(0.0611214 -3.05938e-10 0)
(0.0611214 -2.45673e-10 0)
(0.0611214 -1.94959e-10 0)
(0.0611214 -1.52835e-10 0)
(0.0611214 -1.18285e-10 0)
(0.0611214 -9.02905e-11 0)
(0.0611214 -6.78907e-11 0)
(0.0611214 -5.01959e-11 0)
(0.0611214 -3.64048e-11 0)
(0.0611214 -2.58172e-11 0)
(0.0611214 -1.78147e-11 0)
(0.0611214 -1.18677e-11 0)
(0.0611214 -7.51101e-12 0)
(0.0611214 -4.48303e-12 0)
(0.0611214 -1.53748e-12 0)
(0.0611214 -6.23938e-13 0)
(-0.000710616 0.00306426 0)
(-0.00214644 0.00469099 0)
(-0.0026062 0.00497908 0)
(-0.00279736 0.00461373 0)
(-0.0025365 0.00422589 0)
(-0.00214808 0.00383635 0)
(-0.00157099 0.00350145 0)
(-0.000889067 0.00320379 0)
(-9.07605e-05 0.002937 0)
(0.000802352 0.00268874 0)
(0.00179265 0.00244734 0)
(0.00287549 0.00220217 0)
(0.00405265 0.00194274 0)
(0.00532455 0.00165997 0)
(0.00669332 0.0013456 0)
(0.00816082 0.000992767 0)
(0.00972933 0.000595878 0)
(0.011401 0.000150805 0)
(0.0131781 -0.000345173 0)
(0.0150626 -0.000893367 0)
(0.0170566 -0.00149376 0)
(0.019162 -0.00214507 0)
(0.0213802 -0.00284489 0)
(0.0237124 -0.00358974 0)
(0.0261591 -0.00437524 0)
(0.0287204 -0.00519612 0)
(0.0313951 -0.00604641 0)
(0.0341813 -0.00691944 0)
(0.0370757 -0.00780796 0)
(0.0400739 -0.00870413 0)
(0.0431699 -0.0095996 0)
(0.0463563 -0.0104855 0)
(0.0496239 -0.0113523 0)
(0.0529617 -0.0121902 0)
(0.056357 -0.0129886 0)
(0.0597949 -0.0137367 0)
(0.0632583 -0.0144232 0)
(0.0667284 -0.0150365 0)
(0.070184 -0.0155648 0)
(0.0736022 -0.015996 0)
(0.0769582 -0.0163183 0)
(0.0802258 -0.0165198 0)
(0.0833775 -0.0165895 0)
(0.0863856 -0.0165174 0)
(0.0892227 -0.016295 0)
(0.0918629 -0.0159162 0)
(0.0942834 -0.0153777 0)
(0.0964652 -0.0146798 0)
(0.0983948 -0.0138265 0)
(0.100065 -0.0128258 0)
(0.101474 -0.0116899 0)
(0.102627 -0.0104343 0)
(0.103535 -0.00907723 0)
(0.104214 -0.00763925 0)
(0.104682 -0.00614185 0)
(0.104958 -0.00460687 0)
(0.105062 -0.0030558 0)
(0.105011 -0.00150922 0)
(0.10482 1.3363e-05 0)
(0.104498 0.00149358 0)
(0.104051 0.00291403 0)
(0.10348 0.00425798 0)
(0.102781 0.00550905 0)
(0.101945 0.00665091 0)
(0.10096 0.00766711 0)
(0.099812 0.00854114 0)
(0.0984843 0.00925679 0)
(0.096962 0.00979885 0)
(0.0952327 0.0101541 0)
(0.0932902 0.0103123 0)
(0.0911373 0.0102682 0)
(0.0887894 0.0100224 0)
(0.0862764 0.00958325 0)
(0.0836433 0.00896745 0)
(0.0809488 0.00819986 0)
(0.0782604 0.00731193 0)
(0.0756481 0.00633884 0)
(0.0731771 0.00531601 0)
(0.0709015 0.00427566 0)
(0.0688604 0.00324439 0)
(0.0670767 0.00224211 0)
(0.065558 0.00128243 0)
(0.0642996 0.000373916 0)
(0.063288 -0.000478154 0)
(0.062504 -0.00127023 0)
(0.0619257 -0.00199923 0)
(0.0615301 -0.00266175 0)
(0.0612943 -0.0032536 0)
(0.0611967 -0.00376971 0)
(0.0612164 -0.00420418 0)
(0.0613344 -0.00455052 0)
(0.0615326 -0.00480219 0)
(0.0617945 -0.00495324 0)
(0.0621048 -0.00499923 0)
(0.0624495 -0.00493838 0)
(0.062816 -0.00477261 0)
(0.0631933 -0.00450844 0)
(0.0635718 -0.00415739 0)
(0.063943 -0.00373575 0)
(0.0642997 -0.00326363 0)
(0.0646355 -0.00276341 0)
(0.0649446 -0.00225798 0)
(0.0652222 -0.00176874 0)
(0.0654641 -0.00131408 0)
(0.0656675 -0.000908098 0)
(0.0658312 -0.000560094 0)
(0.0659554 -0.000274475 0)
(0.0660426 -5.12311e-05 0)
(0.0660963 0.000113267 0)