/*--------------------------------*- C++ -*----------------------------------*\
| =========                 |                                                 |
| \\      /  F ield         | OpenFOAM: The Open Source CFD Toolbox           |
|  \\    /   O peration     | Version:  4.1                                   |
|   \\  /    A nd           | Web:      www.OpenFOAM.org                      |
|    \\/     M anipulation  |                                                 |
\*---------------------------------------------------------------------------*/
FoamFile
{
    version     2.0;
    format      ascii;
    class       volVectorField;
    location    "0.027";
    object      U;
}
// * * * * * * * * * * * * * * * * * * * * * * * * * * * * * * * * * * * * * //

dimensions      [0 1 -1 0 0 0 0];

internalField   nonuniform List<vector> 
441
(
(-0.000101459 8.32672e-05 0)
(-0.000499189 0.000284662 0)
(-0.00109747 0.000483744 0)
(-0.0018442 0.000619311 0)
(-0.0026667 0.000680215 0)
(-0.00349122 0.00067186 0)
(-0.00425289 0.000605533 0)
(-0.00489933 0.00049401 0)
(-0.00539111 0.000349616 0)
(-0.00570083 0.000183596 0)
(-0.00581188 6.25388e-06 0)
(-0.00571768 -0.000172505 0)
(-0.00542164 -0.000342453 0)
(-0.00493789 -0.000492392 0)
(-0.00429267 -0.000609772 0)
(-0.00352585 -0.000680849 0)
(-0.00269178 -0.000691666 0)
(-0.00185836 -0.000630365 0)
(-0.00110251 -0.000491866 0)
(-0.000499158 -0.000288587 0)
(-0.000100783 -8.36188e-05 0)
(-0.000345975 0.000457129 0)
(-0.00153119 0.00135782 0)
(-0.00317267 0.00213111 0)
(-0.0051371 0.00263871 0)
(-0.00725352 0.00285141 0)
(-0.0093495 0.0027914 0)
(-0.0112722 0.00250261 0)
(-0.012897 0.0020351 0)
(-0.0141297 0.00143746 0)
(-0.0149044 0.000754161 0)
(-0.0151812 2.59871e-05 0)
(-0.0149446 -0.000707839 0)
(-0.0142029 -0.00140683 0)
(-0.0129903 -0.00202664 0)
(-0.0113698 -0.00251763 0)
(-0.00943661 -0.00282558 0)
(-0.00731931 -0.00289573 0)
(-0.00517747 -0.00268187 0)
(-0.00319066 -0.00216302 0)
(-0.00153517 -0.0013734 0)
(-0.000345681 -0.000459025 0)
(-0.000609055 0.00106784 0)
(-0.00254649 0.00296447 0)
(-0.00510805 0.00447374 0)
(-0.0080905 0.00542687 0)
(-0.0112518 0.00579755 0)
(-0.0143518 0.00563717 0)
(-0.0171779 0.0050328 0)
(-0.0195569 0.00408176 0)
(-0.0213575 0.00287829 0)
(-0.022488 0.00150863 0)
(-0.0228927 5.18468e-05 0)
(-0.0225496 -0.00141606 0)
(-0.0214703 -0.00281662 0)
(-0.019702 -0.0040639 0)
(-0.017332 -0.00506163 0)
(-0.0144924 -0.00570454 0)
(-0.0113618 -0.00588598 0)
(-0.00816214 -0.00551409 0)
(-0.00514417 -0.00453946 0)
(-0.00255821 -0.00299778 0)
(-0.000610336 -0.00107291 0)
(-0.000856335 0.00190781 0)
(-0.00349556 0.00508744 0)
(-0.00689616 0.0074862 0)
(-0.0107846 0.00894583 0)
(-0.0148537 0.00946864 0)
(-0.0188079 0.00915216 0)
(-0.0223897 0.0081392 0)
(-0.0253919 0.00658453 0)
(-0.0276585 0.00463626 0)
(-0.0290812 0.0024291 0)
(-0.0295943 8.59597e-05 0)
(-0.0291712 -0.00227527 0)
(-0.0278241 -0.00453284 0)
(-0.0256072 -0.00655294 0)
(-0.022622 -0.00818487 0)
(-0.0190245 -0.00926268 0)
(-0.0150289 -0.00961615 0)
(-0.0109046 -0.00909385 0)
(-0.00696221 -0.00760039 0)
(-0.00352124 -0.00514776 0)
(-0.000860717 -0.00191867 0)
(-0.00109207 0.00296879 0)
(-0.00440638 0.00771535 0)
(-0.00861179 0.0111589 0)
(-0.0133605 0.0131825 0)
(-0.0182783 0.0138443 0)
(-0.0230171 0.013309 0)
(-0.0272819 0.0117915 0)
(-0.0308399 0.00951562 0)
(-0.0335194 0.0066914 0)
(-0.0352025 0.00350735 0)
(-0.0358179 0.000133715 0)
(-0.0353353 -0.00326716 0)
(-0.0337652 -0.00652739 0)
(-0.0311628 -0.00946096 0)
(-0.0276358 -0.011856 0)
(-0.0233546 -0.0134757 0)
(-0.0185595 -0.0140724 0)
(-0.0135619 -0.0134167 0)
(-0.00873031 -0.0113449 0)
(-0.00445783 -0.00781831 0)
(-0.00110243 -0.00299042 0)
(-0.00133025 0.00425304 0)
(-0.00533294 0.0108583 0)
(-0.0103577 0.0155076 0)
(-0.0159749 0.0181514 0)
(-0.0217378 0.0189319 0)
(-0.027245 0.0181068 0)
(-0.0321672 0.0159824 0)
(-0.036253 0.0128657 0)
(-0.0393221 0.00903721 0)
(-0.0412535 0.00474355 0)
(-0.0419737 0.00020355 0)
(-0.0414499 -0.00437598 0)
(-0.039688 -0.00878067 0)
(-0.0367384 -0.0127699 0)
(-0.0327071 -0.0160646 0)
(-0.0277702 -0.0183458 0)
(-0.0221875 -0.0192709 0)
(-0.016309 -0.0185098 0)
(-0.0105645 -0.0158021 0)
(-0.00542933 -0.01103 0)
(-0.00135132 -0.00429476 0)
(-0.00158583 0.00577766 0)
(-0.00633154 0.0145546 0)
(-0.012234 0.0205786 0)
(-0.0187689 0.0238947 0)
(-0.0254086 0.0247623 0)
(-0.0316967 0.0235629 0)
(-0.0372736 0.0207185 0)
(-0.0418762 0.0166356 0)
(-0.0453236 0.0116745 0)
(-0.0474987 0.00614267 0)
(-0.0483307 0.000306604 0)
(-0.0477847 -0.0055855 0)
(-0.0458594 -0.0112755 0)
(-0.0425938 -0.0164681 0)
(-0.0380827 -0.0208117 0)
(-0.0324981 -0.0238929 0)
(-0.026111 -0.025253 0)
(-0.0193066 -0.0244316 0)
(-0.0125798 -0.0210366 0)
(-0.00650064 -0.0148364 0)
(-0.00162456 -0.00585551 0)
(-0.0018712 0.00757415 0)
(-0.00744839 0.0188687 0)
(-0.014318 0.026443 0)
(-0.021842 0.0304725 0)
(-0.0294022 0.0313763 0)
(-0.0364868 0.0296977 0)
(-0.042712 0.0260049 0)
(-0.0478134 0.0208229 0)
(-0.0516209 0.0146009 0)
(-0.0540305 0.00770866 0)
(-0.05498 0.000456009 0)
(-0.0544345 -0.00687437 0)
(-0.0523819 -0.0139872 0)
(-0.0488419 -0.0205359 0)
(-0.0438866 -0.0260931 0)
(-0.0376698 -0.0301375 0)
(-0.0304611 -0.0320697 0)
(-0.0226734 -0.0312611 0)
(-0.0148692 -0.0271427 0)
(-0.00772741 -0.0193224 0)
(-0.001937 -0.00771363 0)
(-0.00219372 0.00968572 0)
(-0.00871033 0.0238828 0)
(-0.016647 0.0331832 0)
(-0.0252274 0.0379446 0)
(-0.0337328 0.0388023 0)
(-0.0415993 0.0365117 0)
(-0.0484317 0.0318233 0)
(-0.0539802 0.0254029 0)
(-0.058101 0.0177971 0)
(-0.0607164 0.00943644 0)
(-0.0617816 0.000665426 0)
(-0.0612641 -0.00821073 0)
(-0.0591384 -0.0168717 0)
(-0.0553955 -0.0249279 0)
(-0.0500692 -0.0318762 0)
(-0.0432759 -0.0370756 0)
(-0.0352635 -0.0397568 0)
(-0.0264575 -0.0390772 0)
(-0.017484 -0.0342295 0)
(-0.00914596 -0.0245959 0)
(-0.00229861 -0.00992478 0)
(-0.00255307 0.0121626 0)
(-0.0101144 0.0296837 0)
(-0.0191976 0.040871 0)
(-0.0288592 0.0463414 0)
(-0.0382733 0.0470248 0)
(-0.0468358 0.0439531 0)
(-0.0541611 0.0381031 0)
(-0.0600382 0.030305 0)
(-0.064372 0.0212093 0)
(-0.0671284 0.0113014 0)
(-0.068291 0.000946358 0)
(-0.067835 -0.0095465 0)
(-0.0657186 -0.0198507 0)
(-0.0618939 -0.0295491 0)
(-0.0563381 -0.0380695 0)
(-0.0491038 -0.0446424 0)
(-0.0403871 -0.0482985 0)
(-0.0305977 -0.0479249 0)
(-0.0204103 -0.0423952 0)
(-0.0107612 -0.030772 0)
(-0.0027115 -0.0125545 0)
(-0.00293743 0.0150551 0)
(-0.0116132 0.0363413 0)
(-0.0218574 0.0495341 0)
(-0.0325294 0.0556232 0)
(-0.0426987 0.0559405 0)
(-0.0517463 0.0518761 0)
(-0.0593311 0.0446844 0)
(-0.0653151 0.0353826 0)
(-0.0696804 0.0247275 0)
(-0.0724577 0.0132463 0)
(-0.0736731 0.00130389 0)
(-0.0733161 -0.0108123 0)
(-0.0713281 -0.0227969 0)
(-0.0676127 -0.0342297 0)
(-0.0620698 -0.0444855 0)
(-0.0546566 -0.0526661 0)
(-0.0454739 -0.0575752 0)
(-0.0348701 -0.0577653 0)
(-0.0235334 -0.0516868 0)
(-0.0125295 -0.0379492 0)
(-0.00316552 -0.0156706 0)
(-0.00331766 0.0184038 0)
(-0.0130937 0.0438798 0)
(-0.0243843 0.0591102 0)
(-0.0358273 0.0656241 0)
(-0.0464093 0.0653009 0)
(-0.0555435 0.0599894 0)
(-0.0629846 0.0512758 0)
(-0.0687125 0.0403817 0)
(-0.0728199 0.0281628 0)
(-0.0754253 0.0151674 0)
(-0.076612 0.00173078 0)
(-0.0763921 -0.0119147 0)
(-0.0746924 -0.0255201 0)
(-0.0713622 -0.0386975 0)
(-0.0662063 -0.0507989 0)
(-0.0590508 -0.060812 0)
(-0.0498476 -0.0672971 0)
(-0.0388149 -0.0684075 0)
(-0.0265886 -0.0620423 0)
(-0.0143324 -0.0461724 0)
(-0.0036315 -0.0193317 0)
(-0.0036379 0.0222258 0)
(-0.0143434 0.0522362 0)
(-0.0263454 0.0693832 0)
(-0.0380552 0.0759791 0)
(-0.0484316 0.0746432 0)
(-0.0569977 0.0677986 0)
(-0.0636752 0.0574111 0)
(-0.0686134 0.04491 0)
(-0.0720488 0.0312278 0)
(-0.0742066 0.0169016 0)
(-0.0752386 0.00220046 0)
(-0.0751882 -0.0127369 0)
(-0.073974 -0.02776 0)
(-0.0713932 -0.0425587 0)
(-0.0671467 -0.0565089 0)
(-0.0609004 -0.0685221 0)
(-0.0523977 -0.0769245 0)
(-0.0416351 -0.0794187 0)
(-0.0290882 -0.0732091 0)
(-0.015937 -0.0553792 0)
(-0.00405054 -0.0235696 0)
(-0.00379937 0.0264944 0)
(-0.0149936 0.0612013 0)
(-0.0270211 0.0798969 0)
(-0.0381047 0.0860331 0)
(-0.0472866 0.083213 0)
(-0.0543161 0.0745512 0)
(-0.0593672 0.0624165 0)
(-0.0628077 0.0484203 0)
(-0.0650383 0.0335285 0)
(-0.0663966 0.0182212 0)
(-0.0671047 0.0026607 0)
(-0.0672419 -0.0131471 0)
(-0.0667308 -0.0291927 0)
(-0.0653319 -0.0452952 0)
(-0.0626535 -0.0609184 0)
(-0.0581932 -0.0749668 0)
(-0.0514379 -0.0855851 0)
(-0.0420575 -0.0900166 0)
(-0.0302095 -0.0846352 0)
(-0.0169309 -0.0653235 0)
(-0.00431606 -0.0283641 0)
(-0.00362897 0.0311089 0)
(-0.0144129 0.070335 0)
(-0.0252383 0.0898396 0)
(-0.0342649 0.0947342 0)
(-0.040811 0.0898924 0)
(-0.0450031 0.0792032 0)
(-0.0473484 0.0654072 0)
(-0.048456 0.0502242 0)
(-0.0488801 0.0345807 0)
(-0.0490487 0.0188444 0)
(-0.0492369 0.00303112 0)
(-0.0495575 -0.0130157 0)
(-0.0499524 -0.0294596 0)
(-0.0501795 -0.0462972 0)
(-0.0497986 -0.0631539 0)
(-0.0481741 -0.0790319 0)
(-0.044532 -0.0920119 0)
(-0.0381299 -0.0989536 0)
(-0.0286127 -0.0953286 0)
(-0.0166046 -0.0754642 0)
(-0.0042404 -0.0336032 0)
(-0.00281167 0.0358408 0)
(-0.0114853 0.0788342 0)
(-0.0190554 0.0978896 0)
(-0.0239015 0.100524 0)
(-0.0259005 0.0931608 0)
(-0.025702 0.0804421 0)
(-0.024173 0.0653454 0)
(-0.0221204 0.0495594 0)
(-0.0201839 0.0338692 0)
(-0.0188175 0.0184712 0)
(-0.0183048 0.00320969 0)
(-0.0187757 -0.012242 0)
(-0.0202089 -0.0282278 0)
(-0.022412 -0.0449482 0)
(-0.0249816 -0.0622581 0)
(-0.0272537 -0.0793865 0)
(-0.0282811 -0.0945447 0)
(-0.0269139 -0.104424 0)
(-0.0221168 -0.103687 0)
(-0.0137191 -0.0848027 0)
(-0.00348549 -0.0390182 0)
(-0.000721403 0.0402184 0)
(-0.0041077 0.0852968 0)
(-0.00513777 0.102005 0)
(-0.00290818 0.101259 0)
(0.0018579 0.0911484 0)
(0.00797269 0.0768215 0)
(0.0143347 0.0612035 0)
(0.0201033 0.045742 0)
(0.024703 0.0309656 0)
(0.0277672 0.016857 0)
(0.0290767 0.00309433 0)
(0.0285156 -0.0107897 0)
(0.0260568 -0.0252851 0)
(0.0217809 -0.0407798 0)
(0.0159332 -0.0573893 0)
(0.00901971 -0.074689 0)
(0.00192537 -0.0912735 0)
(-0.00400614 -0.104061 0)
(-0.00709283 -0.10731 0)
(-0.00599954 -0.0916176 0)
(-0.00139353 -0.0440517 0)
(0.00406728 0.0432899 0)
(0.0120235 0.087336 0)
(0.0225113 0.0992126 0)
(0.0352132 0.0942827 0)
(0.048669 0.0819077 0)
(0.0615553 0.0671009 0)
(0.0729498 0.0522826 0)
(0.0823025 0.0384234 0)
(0.0893262 0.0257121 0)
(0.0938847 0.0139243 0)
(0.0959068 0.00262443 0)
(0.0953314 -0.00871902 0)
(0.0920837 -0.0206579 0)
(0.0860852 -0.0336901 0)
(0.0773022 -0.0481494 0)
(0.0658473 -0.0640024 0)
(0.0521482 -0.0804545 0)
(0.0371829 -0.0951811 0)
(0.0227016 -0.102907 0)
(0.011052 -0.0930833 0)
(0.00350362 -0.047595 0)
(0.0156884 0.0427749 0)
(0.0464972 0.0805532 0)
(0.0750049 0.0853927 0)
(0.100677 0.0768605 0)
(0.122953 0.0640796 0)
(0.141603 0.0508773 0)
(0.156642 0.0387068 0)
(0.168227 0.0279373 0)
(0.176571 0.0184475 0)
(0.18187 0.0098946 0)
(0.18425 0.00183834 0)
(0.183731 -0.00620158 0)
(0.180214 -0.0147154 0)
(0.173465 -0.0241769 0)
(0.163129 -0.0349987 0)
(0.148764 -0.0474304 0)
(0.129921 -0.0613176 0)
(0.106324 -0.0755097 0)
(0.0782559 -0.086412 0)
(0.0471043 -0.0844048 0)
(0.0153952 -0.0471467 0)
(0.0494945 0.0347455 0)
(0.122396 0.0590438 0)
(0.173091 0.05698 0)
(0.208808 0.0481358 0)
(0.235148 0.0384732 0)
(0.254887 0.0296509 0)
(0.269641 0.0220684 0)
(0.280422 0.0156613 0)
(0.287911 0.0101975 0)
(0.292563 0.00538639 0)
(0.294642 0.000920349 0)
(0.294239 -0.00351082 0)
(0.29126 -0.00821623 0)
(0.285416 -0.0135019 0)
(0.276177 -0.019664 0)
(0.26269 -0.0269666 0)
(0.243624 -0.0355802 0)
(0.216855 -0.0453805 0)
(0.179054 -0.0552572 0)
(0.12469 -0.0598424 0)
(0.0496004 -0.0383585 0)
(0.182869 0.00466266 0)
(0.296773 0.00826777 0)
(0.350712 0.0117677 0)
(0.378062 0.0114856 0)
(0.394758 0.00964848 0)
(0.405845 0.00755967 0)
(0.413536 0.00564364 0)
(0.41888 0.00399213 0)
(0.422465 0.0025773 0)
(0.424631 0.00133246 0)
(0.425571 0.000179881 0)
(0.425356 -0.000959372 0)
(0.423946 -0.00216092 0)
(0.421179 -0.00349185 0)
(0.416725 -0.00499861 0)
(0.409974 -0.00667693 0)
(0.39975 -0.00839721 0)
(0.38349 -0.0097401 0)
(0.355348 -0.00966563 0)
(0.298365 -0.00703096 0)
(0.181145 -0.00730123 0)
)
;

boundaryField
{
    movingWall
    {
        type            fixedValue;
        value           uniform (0.5 0 0);
    }
    fixedWalls
    {
        type            noSlip;
    }
    frontAndBack
    {
        type            empty;
    }
}


// ************************************************************************* //
