/*--------------------------------*- C++ -*----------------------------------*\
| =========                 |                                                 |
| \\      /  F ield         | OpenFOAM: The Open Source CFD Toolbox           |
|  \\    /   O peration     | Version:  4.1                                   |
|   \\  /    A nd           | Web:      www.OpenFOAM.org                      |
|    \\/     M anipulation  |                                                 |
\*---------------------------------------------------------------------------*/
FoamFile
{
    version     2.0;
    format      ascii;
    class       volScalarField;
    location    "156";
    object      p;
}
// * * * * * * * * * * * * * * * * * * * * * * * * * * * * * * * * * * * * * //

dimensions      [1 -1 -2 0 0 0 0];

internalField   nonuniform List<scalar> 
3264
(
0.712658
0.712657
0.712655
0.712653
0.71265
0.712648
0.712645
0.712641
0.712638
0.712635
0.712632
0.71263
0.712628
0.712628
0.712629
0.712633
0.71264
0.71265
0.712664
0.712684
0.712709
0.712739
0.712777
0.712821
0.712873
0.712932
0.712999
0.713073
0.713154
0.713242
0.713336
0.713435
0.713538
0.713644
0.713753
0.713862
0.713971
0.714078
0.714182
0.714281
0.714375
0.714463
0.714544
0.714616
0.71468
0.714736
0.714783
0.714821
0.714852
0.714876
0.714892
0.714903
0.71491
0.714912
0.714911
0.714908
0.714904
0.714898
0.714892
0.714885
0.714879
0.714872
0.714866
0.714861
0.714857
0.714854
0.714852
0.714852
0.714854
0.714858
0.714865
0.714875
0.714889
0.714906
0.714927
0.714952
0.714981
0.715012
0.715047
0.715084
0.715122
0.715162
0.715201
0.71524
0.715277
0.715311
0.715343
0.71537
0.715393
0.715411
0.715424
0.715433
0.715438
0.715438
0.715435
0.71543
0.715422
0.715412
0.715401
0.715389
0.715376
0.715363
0.71535
0.715337
0.715324
0.715311
0.715299
0.715286
0.715275
0.715263
0.715252
0.71524
0.715229
0.715218
0.715207
0.715197
0.715186
0.715175
0.715164
0.715154
0.715143
0.715132
0.715122
0.715111
0.7151
0.715089
0.715079
0.715068
0.715057
0.715046
0.715036
0.715025
0.715014
0.715003
0.714992
0.714982
0.714971
0.71496
0.714949
0.714939
0.714928
0.714917
0.714906
0.714895
0.714885
0.714874
0.714863
0.714852
0.714841
0.714831
0.71482
0.714809
0.714798
0.714788
0.714777
0.714766
0.714755
0.714744
0.714734
0.714723
0.714712
0.714701
0.71469
0.71468
0.714669
0.714658
0.714647
0.714637
0.714626
0.714615
0.714604
0.714593
0.714583
0.714572
0.714561
0.71455
0.714539
0.714529
0.714518
0.714507
0.714496
0.714486
0.714475
0.714464
0.714453
0.714442
0.714432
0.714421
0.71441
0.714399
0.714388
0.714378
0.714367
0.714356
0.714345
0.714335
0.714324
0.714313
0.714302
0.714291
0.71266
0.712658
0.712657
0.712656
0.712654
0.712651
0.712649
0.712646
0.712643
0.71264
0.712637
0.712635
0.712633
0.712633
0.712634
0.712637
0.712643
0.712652
0.712666
0.712684
0.712707
0.712737
0.712773
0.712816
0.712866
0.712924
0.71299
0.713063
0.713144
0.713231
0.713324
0.713422
0.713525
0.713632
0.71374
0.713849
0.713958
0.714065
0.714169
0.714269
0.714364
0.714452
0.714533
0.714606
0.714671
0.714727
0.714775
0.714814
0.714846
0.71487
0.714888
0.714901
0.714908
0.714911
0.714911
0.714909
0.714905
0.7149
0.714894
0.714888
0.714882
0.714875
0.71487
0.714864
0.71486
0.714856
0.714854
0.714853
0.714854
0.714858
0.714864
0.714874
0.714887
0.714903
0.714924
0.714948
0.714976
0.715008
0.715042
0.715079
0.715118
0.715157
0.715197
0.715236
0.715274
0.715309
0.715341
0.715369
0.715392
0.715411
0.715425
0.715434
0.715439
0.715439
0.715436
0.715431
0.715423
0.715413
0.715401
0.715389
0.715376
0.715363
0.71535
0.715337
0.715324
0.715311
0.715299
0.715286
0.715275
0.715263
0.715251
0.71524
0.715229
0.715218
0.715207
0.715197
0.715186
0.715175
0.715164
0.715154
0.715143
0.715132
0.715122
0.715111
0.7151
0.715089
0.715079
0.715068
0.715057
0.715046
0.715036
0.715025
0.715014
0.715003
0.714992
0.714982
0.714971
0.71496
0.714949
0.714939
0.714928
0.714917
0.714906
0.714895
0.714885
0.714874
0.714863
0.714852
0.714841
0.714831
0.71482
0.714809
0.714798
0.714788
0.714777
0.714766
0.714755
0.714744
0.714734
0.714723
0.714712
0.714701
0.71469
0.71468
0.714669
0.714658
0.714647
0.714637
0.714626
0.714615
0.714604
0.714593
0.714583
0.714572
0.714561
0.71455
0.714539
0.714529
0.714518
0.714507
0.714496
0.714486
0.714475
0.714464
0.714453
0.714442
0.714432
0.714421
0.71441
0.714399
0.714388
0.714378
0.714367
0.714356
0.714345
0.714335
0.714324
0.714313
0.714302
0.714291
0.712663
0.71266
0.712659
0.712657
0.712655
0.712652
0.71265
0.712647
0.712643
0.71264
0.712637
0.712634
0.712631
0.71263
0.71263
0.712633
0.712638
0.712646
0.712658
0.712675
0.712698
0.712727
0.712762
0.712804
0.712854
0.712912
0.712977
0.71305
0.71313
0.713217
0.71331
0.713408
0.713511
0.713617
0.713725
0.713834
0.713943
0.71405
0.714154
0.714254
0.714348
0.714436
0.714517
0.714591
0.714655
0.714712
0.71476
0.714799
0.714831
0.714856
0.714874
0.714887
0.714895
0.714899
0.714901
0.7149
0.714898
0.714894
0.71489
0.714885
0.71488
0.714874
0.714868
0.714863
0.714859
0.714855
0.714853
0.714852
0.714853
0.714857
0.714863
0.714872
0.714884
0.714901
0.714921
0.714945
0.714973
0.715004
0.715038
0.715076
0.715115
0.715155
0.715195
0.715235
0.715273
0.715309
0.715341
0.715369
0.715393
0.715412
0.715426
0.715435
0.71544
0.715441
0.715438
0.715432
0.715423
0.715413
0.715401
0.715389
0.715376
0.715363
0.71535
0.715336
0.715323
0.715311
0.715298
0.715286
0.715274
0.715263
0.715251
0.71524
0.715229
0.715218
0.715207
0.715197
0.715186
0.715175
0.715164
0.715154
0.715143
0.715132
0.715122
0.715111
0.7151
0.715089
0.715079
0.715068
0.715057
0.715046
0.715036
0.715025
0.715014
0.715003
0.714992
0.714982
0.714971
0.71496
0.714949
0.714939
0.714928
0.714917
0.714906
0.714895
0.714885
0.714874
0.714863
0.714852
0.714841
0.714831
0.71482
0.714809
0.714798
0.714788
0.714777
0.714766
0.714755
0.714744
0.714734
0.714723
0.714712
0.714701
0.71469
0.71468
0.714669
0.714658
0.714647
0.714637
0.714626
0.714615
0.714604
0.714593
0.714583
0.714572
0.714561
0.71455
0.714539
0.714529
0.714518
0.714507
0.714496
0.714486
0.714475
0.714464
0.714453
0.714442
0.714432
0.714421
0.71441
0.714399
0.714388
0.714378
0.714367
0.714356
0.714345
0.714335
0.714324
0.714313
0.714302
0.714291
0.712658
0.712658
0.712656
0.712656
0.712653
0.712652
0.712649
0.712646
0.712642
0.712639
0.712635
0.712632
0.712629
0.712627
0.712626
0.712627
0.712631
0.712638
0.712649
0.712665
0.712687
0.712715
0.712749
0.71279
0.71284
0.712896
0.712961
0.713033
0.713113
0.713199
0.713292
0.713389
0.713491
0.713597
0.713704
0.713812
0.713919
0.714025
0.714128
0.714226
0.714318
0.714405
0.714484
0.714555
0.714618
0.714672
0.714718
0.714756
0.714787
0.71481
0.714828
0.714841
0.71485
0.714856
0.714859
0.714861
0.714862
0.714862
0.714862
0.714862
0.714862
0.714861
0.71486
0.714858
0.714856
0.714855
0.714853
0.714853
0.714854
0.714857
0.714863
0.714872
0.714884
0.7149
0.71492
0.714944
0.714972
0.715003
0.715037
0.715074
0.715113
0.715153
0.715194
0.715233
0.715272
0.715308
0.71534
0.715369
0.715393
0.715412
0.715426
0.715435
0.71544
0.71544
0.715437
0.715431
0.715422
0.715412
0.7154
0.715388
0.715375
0.715362
0.715349
0.715336
0.715323
0.71531
0.715298
0.715286
0.715274
0.715263
0.715251
0.71524
0.715229
0.715218
0.715207
0.715197
0.715186
0.715175
0.715164
0.715154
0.715143
0.715132
0.715122
0.715111
0.7151
0.715089
0.715079
0.715068
0.715057
0.715046
0.715036
0.715025
0.715014
0.715003
0.714992
0.714982
0.714971
0.71496
0.714949
0.714939
0.714928
0.714917
0.714906
0.714895
0.714885
0.714874
0.714863
0.714852
0.714841
0.714831
0.71482
0.714809
0.714798
0.714788
0.714777
0.714766
0.714755
0.714744
0.714734
0.714723
0.714712
0.714701
0.71469
0.71468
0.714669
0.714658
0.714647
0.714637
0.714626
0.714615
0.714604
0.714593
0.714583
0.714572
0.714561
0.71455
0.714539
0.714529
0.714518
0.714507
0.714496
0.714486
0.714475
0.714464
0.714453
0.714442
0.714432
0.714421
0.71441
0.714399
0.714388
0.714378
0.714367
0.714356
0.714345
0.714335
0.714324
0.714313
0.714302
0.714291
0.712657
0.712656
0.712654
0.712653
0.71265
0.712648
0.712646
0.712643
0.71264
0.712636
0.712632
0.712629
0.712625
0.712623
0.712621
0.712622
0.712625
0.712632
0.712642
0.712658
0.712678
0.712706
0.71274
0.712781
0.71283
0.712886
0.71295
0.713022
0.713101
0.713186
0.713278
0.713374
0.713474
0.713578
0.713683
0.713788
0.713893
0.713995
0.714094
0.714188
0.714277
0.714358
0.714432
0.714498
0.714556
0.714605
0.714646
0.714679
0.714706
0.714726
0.714741
0.714752
0.71476
0.714767
0.714772
0.714777
0.714782
0.714788
0.714794
0.714802
0.714809
0.714817
0.714824
0.714831
0.714838
0.714844
0.714849
0.714854
0.714859
0.714865
0.714872
0.714882
0.714894
0.71491
0.714929
0.714952
0.714979
0.71501
0.715044
0.71508
0.715118
0.715157
0.715197
0.715236
0.715274
0.715309
0.715341
0.715369
0.715393
0.715411
0.715425
0.715433
0.715437
0.715437
0.715434
0.715428
0.715419
0.715409
0.715398
0.715386
0.715373
0.71536
0.715347
0.715335
0.715322
0.71531
0.715297
0.715286
0.715274
0.715263
0.715251
0.71524
0.715229
0.715218
0.715207
0.715197
0.715186
0.715175
0.715164
0.715154
0.715143
0.715132
0.715122
0.715111
0.7151
0.715089
0.715079
0.715068
0.715057
0.715046
0.715036
0.715025
0.715014
0.715003
0.714992
0.714982
0.714971
0.71496
0.714949
0.714939
0.714928
0.714917
0.714906
0.714895
0.714885
0.714874
0.714863
0.714852
0.714841
0.714831
0.71482
0.714809
0.714798
0.714788
0.714777
0.714766
0.714755
0.714744
0.714734
0.714723
0.714712
0.714701
0.71469
0.71468
0.714669
0.714658
0.714647
0.714637
0.714626
0.714615
0.714604
0.714593
0.714583
0.714572
0.714561
0.71455
0.714539
0.714529
0.714518
0.714507
0.714496
0.714486
0.714475
0.714464
0.714453
0.714442
0.714432
0.714421
0.71441
0.714399
0.714388
0.714378
0.714367
0.714356
0.714345
0.714335
0.714324
0.714313
0.714302
0.714291
0.712625
0.71264
0.71264
0.712646
0.712646
0.712646
0.712645
0.712643
0.71264
0.712636
0.712632
0.712629
0.712625
0.712622
0.71262
0.712621
0.712623
0.71263
0.71264
0.712655
0.712676
0.712703
0.712737
0.712778
0.712827
0.712883
0.712946
0.713018
0.713095
0.71318
0.713269
0.713364
0.713462
0.713562
0.713664
0.713765
0.713865
0.713962
0.714054
0.714142
0.714223
0.714297
0.714362
0.71442
0.714469
0.714509
0.714542
0.714568
0.714587
0.714601
0.714612
0.71462
0.714626
0.714633
0.71464
0.714648
0.714659
0.714671
0.714686
0.714702
0.71472
0.714739
0.714759
0.714778
0.714797
0.714815
0.714832
0.714847
0.714861
0.714875
0.714888
0.714902
0.714918
0.714935
0.714955
0.714977
0.715003
0.715032
0.715064
0.715098
0.715134
0.715171
0.715209
0.715246
0.715281
0.715315
0.715345
0.715371
0.715393
0.71541
0.715422
0.71543
0.715433
0.715433
0.715429
0.715423
0.715414
0.715404
0.715393
0.715382
0.71537
0.715357
0.715345
0.715333
0.715321
0.715309
0.715297
0.715285
0.715274
0.715262
0.715251
0.71524
0.715229
0.715218
0.715208
0.715197
0.715186
0.715175
0.715165
0.715154
0.715143
0.715132
0.715122
0.715111
0.7151
0.715089
0.715079
0.715068
0.715057
0.715046
0.715036
0.715025
0.715014
0.715003
0.714992
0.714982
0.714971
0.71496
0.714949
0.714939
0.714928
0.714917
0.714906
0.714895
0.714885
0.714874
0.714863
0.714852
0.714841
0.714831
0.71482
0.714809
0.714798
0.714788
0.714777
0.714766
0.714755
0.714744
0.714734
0.714723
0.714712
0.714701
0.71469
0.71468
0.714669
0.714658
0.714647
0.714637
0.714626
0.714615
0.714604
0.714593
0.714583
0.714572
0.714561
0.71455
0.714539
0.714529
0.714518
0.714507
0.714496
0.714486
0.714475
0.714464
0.714453
0.714442
0.714432
0.714421
0.71441
0.714399
0.714388
0.714378
0.714367
0.714356
0.714345
0.714335
0.714324
0.714313
0.714302
0.714291
0.712625
0.712643
0.712641
0.712645
0.712645
0.712645
0.712644
0.712643
0.712641
0.712638
0.712634
0.71263
0.712627
0.712624
0.712623
0.712623
0.712627
0.712633
0.712644
0.71266
0.712682
0.71271
0.712744
0.712786
0.712835
0.712892
0.712956
0.713026
0.713103
0.713186
0.713274
0.713366
0.713461
0.713557
0.713653
0.713748
0.713841
0.71393
0.714014
0.714092
0.714163
0.714226
0.71428
0.714326
0.714363
0.714392
0.714414
0.71443
0.714441
0.714448
0.714453
0.714458
0.714463
0.71447
0.71448
0.714493
0.714509
0.714529
0.714553
0.71458
0.714609
0.71464
0.714673
0.714706
0.714739
0.714772
0.714802
0.714832
0.714859
0.714884
0.714908
0.71493
0.714952
0.714974
0.714997
0.715021
0.715047
0.715074
0.715104
0.715135
0.715167
0.715201
0.715235
0.715268
0.715299
0.715329
0.715355
0.715378
0.715397
0.715411
0.715421
0.715427
0.715429
0.715427
0.715423
0.715416
0.715408
0.715398
0.715388
0.715377
0.715366
0.715354
0.715342
0.715331
0.715319
0.715307
0.715296
0.715285
0.715273
0.715262
0.715251
0.71524
0.715229
0.715219
0.715208
0.715197
0.715186
0.715175
0.715165
0.715154
0.715143
0.715132
0.715122
0.715111
0.7151
0.715089
0.715079
0.715068
0.715057
0.715046
0.715036
0.715025
0.715014
0.715003
0.714992
0.714982
0.714971
0.71496
0.714949
0.714939
0.714928
0.714917
0.714906
0.714895
0.714885
0.714874
0.714863
0.714852
0.714841
0.714831
0.71482
0.714809
0.714798
0.714788
0.714777
0.714766
0.714755
0.714744
0.714734
0.714723
0.714712
0.714701
0.71469
0.71468
0.714669
0.714658
0.714647
0.714637
0.714626
0.714615
0.714604
0.714593
0.714583
0.714572
0.714561
0.71455
0.714539
0.714529
0.714518
0.714507
0.714496
0.714486
0.714475
0.714464
0.714453
0.714442
0.714432
0.714421
0.71441
0.714399
0.714388
0.714378
0.714367
0.714356
0.714345
0.714335
0.714324
0.714313
0.714302
0.714291
0.712468
0.712609
0.712628
0.71265
0.712653
0.712654
0.712653
0.712651
0.712648
0.712645
0.712641
0.712638
0.712635
0.712633
0.712632
0.712634
0.712639
0.712647
0.71266
0.712678
0.712702
0.712732
0.712768
0.712812
0.712863
0.71292
0.712985
0.713056
0.713132
0.713214
0.713299
0.713388
0.713478
0.713568
0.713658
0.713745
0.713829
0.713907
0.71398
0.714045
0.714103
0.714152
0.714192
0.714224
0.714248
0.714265
0.714276
0.714282
0.714285
0.714287
0.714288
0.714292
0.714298
0.714307
0.714321
0.714339
0.714363
0.714391
0.714423
0.71446
0.7145
0.714543
0.714587
0.714633
0.714679
0.714725
0.71477
0.714813
0.714854
0.714892
0.714928
0.714961
0.714992
0.715022
0.71505
0.715077
0.715105
0.715132
0.71516
0.715189
0.715217
0.715246
0.715275
0.715302
0.715328
0.715352
0.715373
0.715391
0.715405
0.715415
0.715422
0.715425
0.715424
0.715422
0.715416
0.715409
0.715401
0.715392
0.715382
0.715372
0.715361
0.71535
0.715339
0.715328
0.715317
0.715306
0.715295
0.715284
0.715273
0.715262
0.715251
0.71524
0.71523
0.715219
0.715208
0.715197
0.715186
0.715176
0.715165
0.715154
0.715143
0.715133
0.715122
0.715111
0.7151
0.715089
0.715079
0.715068
0.715057
0.715046
0.715036
0.715025
0.715014
0.715003
0.714992
0.714982
0.714971
0.71496
0.714949
0.714939
0.714928
0.714917
0.714906
0.714895
0.714885
0.714874
0.714863
0.714852
0.714841
0.714831
0.71482
0.714809
0.714798
0.714788
0.714777
0.714766
0.714755
0.714744
0.714734
0.714723
0.714712
0.714701
0.71469
0.71468
0.714669
0.714658
0.714647
0.714637
0.714626
0.714615
0.714604
0.714593
0.714583
0.714572
0.714561
0.71455
0.714539
0.714529
0.714518
0.714507
0.714496
0.714486
0.714475
0.714464
0.714453
0.714442
0.714432
0.714421
0.71441
0.714399
0.714388
0.714378
0.714367
0.714356
0.714345
0.714335
0.714324
0.714313
0.714302
0.714291
0.713212
0.713156
0.713093
0.713025
0.712952
0.712873
0.712784
0.712662
0.713219
0.713173
0.713109
0.71304
0.712966
0.712886
0.712795
0.712695
0.713224
0.713185
0.713127
0.713061
0.712991
0.712919
0.712847
0.712776
0.713235
0.713201
0.713148
0.713087
0.713022
0.712958
0.712894
0.712836
0.713248
0.713217
0.713167
0.713111
0.713052
0.712995
0.712942
0.712895
0.713264
0.713231
0.713183
0.71313
0.713076
0.713025
0.712978
0.712937
0.71328
0.713243
0.713193
0.713141
0.713091
0.713044
0.713001
0.712963
0.713288
0.713241
0.713192
0.713142
0.713095
0.71305
0.713009
0.712971
0.712596
0.712616
0.712637
0.712649
0.712655
0.712657
0.712657
0.712657
0.712655
0.712653
0.712651
0.712649
0.712648
0.712649
0.712651
0.712656
0.712665
0.712677
0.712693
0.712715
0.712743
0.712777
0.712818
0.712865
0.712918
0.712978
0.713044
0.713115
0.713191
0.71327
0.713353
0.713436
0.71352
0.713603
0.713684
0.71376
0.713832
0.713897
0.713956
0.714006
0.714049
0.714082
0.714108
0.714126
0.714137
0.714143
0.714145
0.714145
0.714144
0.714144
0.714146
0.714151
0.71416
0.714174
0.714193
0.714218
0.714247
0.714283
0.714322
0.714367
0.714415
0.714467
0.714521
0.714577
0.714633
0.71469
0.714746
0.7148
0.714852
0.714902
0.714949
0.714992
0.715033
0.71507
0.715105
0.715137
0.715168
0.715197
0.715224
0.715251
0.715276
0.7153
0.715323
0.715345
0.715364
0.715381
0.715396
0.715408
0.715416
0.715422
0.715424
0.715424
0.715421
0.715416
0.71541
0.715403
0.715395
0.715386
0.715376
0.715366
0.715356
0.715346
0.715336
0.715326
0.715315
0.715305
0.715294
0.715283
0.715273
0.715262
0.715251
0.715241
0.71523
0.715219
0.715208
0.715197
0.715187
0.715176
0.715165
0.715154
0.715143
0.715133
0.715122
0.715111
0.7151
0.71509
0.715079
0.715068
0.715057
0.715046
0.715036
0.715025
0.715014
0.715003
0.714992
0.714982
0.714971
0.71496
0.714949
0.714939
0.714928
0.714917
0.714906
0.714895
0.714885
0.714874
0.714863
0.714852
0.714841
0.714831
0.71482
0.714809
0.714798
0.714788
0.714777
0.714766
0.714755
0.714744
0.714734
0.714723
0.714712
0.714701
0.71469
0.71468
0.714669
0.714658
0.714647
0.714637
0.714626
0.714615
0.714604
0.714593
0.714583
0.714572
0.714561
0.71455
0.714539
0.714529
0.714518
0.714507
0.714496
0.714486
0.714475
0.714464
0.714453
0.714442
0.714432
0.714421
0.71441
0.714399
0.714388
0.714378
0.714367
0.714356
0.714345
0.714335
0.714324
0.714313
0.714302
0.714291
0.712621
0.712629
0.712643
0.712656
0.712664
0.712669
0.712671
0.712672
0.712673
0.712673
0.712674
0.712676
0.712679
0.712683
0.71269
0.712701
0.712714
0.712732
0.712755
0.712783
0.712816
0.712856
0.712901
0.712953
0.71301
0.713072
0.713139
0.71321
0.713284
0.71336
0.713437
0.713514
0.713589
0.713662
0.71373
0.713792
0.713849
0.713899
0.713941
0.713975
0.714002
0.714021
0.714033
0.714041
0.714044
0.714044
0.714043
0.714043
0.714043
0.714045
0.714051
0.71406
0.714073
0.714092
0.714115
0.714144
0.714178
0.714218
0.714262
0.714311
0.714365
0.714422
0.714482
0.714544
0.714607
0.714671
0.714735
0.714797
0.714858
0.714916
0.714971
0.715023
0.715071
0.715115
0.715156
0.715193
0.715226
0.715257
0.715284
0.71531
0.715332
0.715353
0.715371
0.715387
0.7154
0.715411
0.715419
0.715424
0.715428
0.715428
0.715427
0.715423
0.715418
0.715412
0.715405
0.715397
0.715389
0.71538
0.715371
0.715362
0.715352
0.715343
0.715333
0.715323
0.715313
0.715303
0.715293
0.715283
0.715272
0.715262
0.715251
0.715241
0.71523
0.715219
0.715208
0.715198
0.715187
0.715176
0.715165
0.715154
0.715144
0.715133
0.715122
0.715111
0.7151
0.71509
0.715079
0.715068
0.715057
0.715046
0.715036
0.715025
0.715014
0.715003
0.714992
0.714982
0.714971
0.71496
0.714949
0.714939
0.714928
0.714917
0.714906
0.714895
0.714885
0.714874
0.714863
0.714852
0.714841
0.714831
0.71482
0.714809
0.714798
0.714788
0.714777
0.714766
0.714755
0.714744
0.714734
0.714723
0.714712
0.714701
0.71469
0.71468
0.714669
0.714658
0.714647
0.714637
0.714626
0.714615
0.714604
0.714593
0.714583
0.714572
0.714561
0.71455
0.714539
0.714529
0.714518
0.714507
0.714496
0.714486
0.714475
0.714464
0.714453
0.714442
0.714432
0.714421
0.71441
0.714399
0.714388
0.714378
0.714367
0.714356
0.714345
0.714335
0.714324
0.714313
0.714302
0.714291
0.712722
0.712698
0.712692
0.712693
0.712695
0.712697
0.712699
0.712701
0.712703
0.712707
0.712711
0.712717
0.712725
0.712735
0.712749
0.712766
0.712787
0.712812
0.712842
0.712878
0.712919
0.712965
0.713016
0.713072
0.713133
0.713196
0.713263
0.713332
0.713402
0.713472
0.713542
0.713609
0.713672
0.71373
0.713782
0.713828
0.713868
0.7139
0.713926
0.713947
0.713961
0.713972
0.713979
0.713984
0.713986
0.713987
0.713988
0.71399
0.713994
0.713999
0.714008
0.71402
0.714036
0.714056
0.714082
0.714112
0.714148
0.714189
0.714235
0.714287
0.714342
0.714402
0.714465
0.714531
0.714599
0.714667
0.714736
0.714803
0.71487
0.714933
0.714994
0.715051
0.715104
0.715153
0.715198
0.715238
0.715274
0.715306
0.715334
0.715358
0.715378
0.715396
0.71541
0.715421
0.715429
0.715435
0.715438
0.715438
0.715437
0.715434
0.715429
0.715423
0.715416
0.715409
0.715401
0.715392
0.715384
0.715375
0.715366
0.715357
0.715348
0.715339
0.71533
0.715321
0.715312
0.715302
0.715292
0.715282
0.715272
0.715262
0.715251
0.715241
0.71523
0.715219
0.715209
0.715198
0.715187
0.715176
0.715165
0.715155
0.715144
0.715133
0.715122
0.715111
0.7151
0.71509
0.715079
0.715068
0.715057
0.715046
0.715036
0.715025
0.715014
0.715003
0.714992
0.714982
0.714971
0.71496
0.714949
0.714939
0.714928
0.714917
0.714906
0.714895
0.714885
0.714874
0.714863
0.714852
0.714841
0.714831
0.71482
0.714809
0.714798
0.714788
0.714777
0.714766
0.714755
0.714744
0.714734
0.714723
0.714712
0.714701
0.71469
0.71468
0.714669
0.714658
0.714647
0.714637
0.714626
0.714615
0.714604
0.714593
0.714583
0.714572
0.714561
0.71455
0.714539
0.714529
0.714518
0.714507
0.714496
0.714486
0.714475
0.714464
0.714453
0.714442
0.714432
0.714421
0.71441
0.714399
0.714388
0.714378
0.714367
0.714356
0.714345
0.714335
0.714324
0.714313
0.714302
0.714291
0.71279
0.712763
0.712749
0.712743
0.71274
0.71274
0.71274
0.712742
0.712746
0.712751
0.712759
0.712769
0.712782
0.712798
0.712818
0.712842
0.712871
0.712904
0.712942
0.712984
0.713032
0.713085
0.713142
0.713202
0.713264
0.713328
0.713393
0.713457
0.71352
0.713581
0.713638
0.713692
0.713739
0.713781
0.713817
0.713847
0.713874
0.713896
0.713914
0.713928
0.713938
0.713945
0.713949
0.713954
0.713959
0.713964
0.71397
0.713975
0.713982
0.713989
0.713999
0.714011
0.714027
0.714048
0.714073
0.714104
0.71414
0.714182
0.714229
0.714281
0.714338
0.7144
0.714464
0.714532
0.714602
0.714673
0.714744
0.714815
0.714884
0.714951
0.715015
0.715076
0.715132
0.715183
0.71523
0.715272
0.715309
0.715342
0.715369
0.715392
0.715411
0.715426
0.715437
0.715445
0.71545
0.715452
0.715451
0.715448
0.715444
0.715438
0.715431
0.715423
0.715415
0.715406
0.715397
0.715388
0.71538
0.715371
0.715363
0.715354
0.715346
0.715337
0.715328
0.715319
0.71531
0.715301
0.715292
0.715282
0.715272
0.715262
0.715251
0.715241
0.71523
0.71522
0.715209
0.715198
0.715187
0.715176
0.715166
0.715155
0.715144
0.715133
0.715122
0.715111
0.7151
0.71509
0.715079
0.715068
0.715057
0.715046
0.715036
0.715025
0.715014
0.715003
0.714992
0.714982
0.714971
0.71496
0.714949
0.714939
0.714928
0.714917
0.714906
0.714895
0.714885
0.714874
0.714863
0.714852
0.714841
0.714831
0.71482
0.714809
0.714798
0.714788
0.714777
0.714766
0.714755
0.714744
0.714734
0.714723
0.714712
0.714701
0.71469
0.71468
0.714669
0.714658
0.714647
0.714637
0.714626
0.714615
0.714604
0.714593
0.714583
0.714572
0.714561
0.71455
0.714539
0.714529
0.714518
0.714507
0.714496
0.714486
0.714475
0.714464
0.714453
0.714442
0.714432
0.714421
0.71441
0.714399
0.714388
0.714378
0.714367
0.714356
0.714345
0.714335
0.714324
0.714313
0.714302
0.714291
0.712856
0.712829
0.712811
0.712799
0.712792
0.712788
0.712786
0.712787
0.712791
0.712797
0.712807
0.712821
0.712838
0.71286
0.712885
0.712916
0.71295
0.71299
0.713034
0.713084
0.713137
0.713194
0.713253
0.713315
0.713376
0.713436
0.713494
0.713549
0.713602
0.713652
0.713699
0.713742
0.713779
0.71381
0.713834
0.713853
0.713868
0.713879
0.713891
0.713903
0.713917
0.71393
0.713942
0.713952
0.713959
0.713965
0.71397
0.713975
0.713981
0.713988
0.713998
0.714011
0.714028
0.714049
0.714075
0.714106
0.714143
0.714185
0.714233
0.714286
0.714344
0.714406
0.714472
0.714541
0.714611
0.714684
0.714756
0.714828
0.714899
0.714967
0.715033
0.715094
0.715152
0.715205
0.715253
0.715295
0.715333
0.715365
0.715392
0.715414
0.715431
0.715445
0.715454
0.71546
0.715462
0.715462
0.715459
0.715454
0.715448
0.71544
0.715432
0.715423
0.715413
0.715404
0.715395
0.715386
0.715377
0.715368
0.71536
0.715352
0.715344
0.715335
0.715327
0.715318
0.71531
0.7153
0.715291
0.715281
0.715272
0.715262
0.715251
0.715241
0.71523
0.71522
0.715209
0.715198
0.715187
0.715176
0.715166
0.715155
0.715144
0.715133
0.715122
0.715111
0.7151
0.71509
0.715079
0.715068
0.715057
0.715046
0.715036
0.715025
0.715014
0.715003
0.714992
0.714982
0.714971
0.71496
0.714949
0.714939
0.714928
0.714917
0.714906
0.714895
0.714885
0.714874
0.714863
0.714852
0.714841
0.714831
0.71482
0.714809
0.714798
0.714788
0.714777
0.714766
0.714755
0.714744
0.714734
0.714723
0.714712
0.714701
0.71469
0.71468
0.714669
0.714658
0.714647
0.714637
0.714626
0.714615
0.714604
0.714593
0.714583
0.714572
0.714561
0.71455
0.714539
0.714529
0.714518
0.714507
0.714496
0.714486
0.714475
0.714464
0.714453
0.714442
0.714432
0.714421
0.71441
0.714399
0.714388
0.714378
0.714367
0.714356
0.714345
0.714335
0.714324
0.714313
0.714302
0.714291
0.712903
0.712876
0.712856
0.712841
0.71283
0.712823
0.712819
0.712819
0.712823
0.712831
0.712843
0.712859
0.71288
0.712905
0.712934
0.712968
0.713007
0.71305
0.713098
0.71315
0.713205
0.713263
0.713322
0.713382
0.713441
0.713497
0.71355
0.713598
0.713643
0.713683
0.713718
0.713745
0.713766
0.713785
0.713804
0.713827
0.71385
0.713872
0.713892
0.713908
0.713922
0.713933
0.713941
0.713949
0.713955
0.713962
0.713968
0.713974
0.713982
0.713991
0.714002
0.714016
0.714034
0.714056
0.714083
0.714115
0.714152
0.714195
0.714243
0.714297
0.714355
0.714417
0.714484
0.714553
0.714624
0.714697
0.714769
0.714842
0.714913
0.714982
0.715047
0.715109
0.715167
0.71522
0.715267
0.71531
0.715347
0.715378
0.715405
0.715426
0.715443
0.715455
0.715463
0.715467
0.715469
0.715467
0.715463
0.715457
0.715449
0.715441
0.715432
0.715422
0.715412
0.715403
0.715393
0.715384
0.715376
0.715367
0.715359
0.715351
0.715343
0.715335
0.715326
0.715318
0.715309
0.7153
0.715291
0.715281
0.715271
0.715261
0.715251
0.715241
0.71523
0.71522
0.715209
0.715198
0.715187
0.715177
0.715166
0.715155
0.715144
0.715133
0.715122
0.715111
0.715101
0.71509
0.715079
0.715068
0.715057
0.715046
0.715036
0.715025
0.715014
0.715003
0.714992
0.714982
0.714971
0.71496
0.714949
0.714939
0.714928
0.714917
0.714906
0.714895
0.714885
0.714874
0.714863
0.714852
0.714841
0.714831
0.71482
0.714809
0.714798
0.714788
0.714777
0.714766
0.714755
0.714744
0.714734
0.714723
0.714712
0.714701
0.71469
0.71468
0.714669
0.714658
0.714647
0.714637
0.714626
0.714615
0.714604
0.714593
0.714583
0.714572
0.714561
0.71455
0.714539
0.714529
0.714518
0.714507
0.714496
0.714486
0.714475
0.714464
0.714453
0.714442
0.714432
0.714421
0.71441
0.714399
0.714388
0.714378
0.714367
0.714356
0.714345
0.714335
0.714324
0.714313
0.714302
0.714291
0.712931
0.712904
0.712882
0.712864
0.712851
0.712842
0.712837
0.712837
0.712841
0.71285
0.712863
0.712881
0.712903
0.71293
0.712962
0.712998
0.713038
0.713083
0.713132
0.713184
0.713239
0.713296
0.713353
0.713407
0.713458
0.713503
0.713544
0.713581
0.713618
0.713656
0.713694
0.71373
0.713762
0.713791
0.713815
0.713836
0.713855
0.713872
0.713887
0.713901
0.713915
0.713927
0.713937
0.713946
0.713954
0.713961
0.713968
0.713975
0.713983
0.713993
0.714005
0.71402
0.714039
0.714062
0.714089
0.714122
0.71416
0.714203
0.714252
0.714306
0.714364
0.714427
0.714493
0.714562
0.714633
0.714706
0.714779
0.714851
0.714922
0.71499
0.715055
0.715117
0.715174
0.715227
0.715274
0.715316
0.715353
0.715384
0.71541
0.71543
0.715446
0.715458
0.715465
0.715469
0.71547
0.715467
0.715463
0.715457
0.715449
0.71544
0.715431
0.715421
0.715412
0.715402
0.715393
0.715384
0.715375
0.715367
0.715358
0.71535
0.715342
0.715334
0.715326
0.715317
0.715309
0.7153
0.715291
0.715281
0.715271
0.715261
0.715251
0.715241
0.71523
0.71522
0.715209
0.715198
0.715187
0.715177
0.715166
0.715155
0.715144
0.715133
0.715122
0.715111
0.715101
0.71509
0.715079
0.715068
0.715057
0.715046
0.715036
0.715025
0.715014
0.715003
0.714992
0.714982
0.714971
0.71496
0.714949
0.714939
0.714928
0.714917
0.714906
0.714895
0.714885
0.714874
0.714863
0.714852
0.714841
0.714831
0.71482
0.714809
0.714798
0.714788
0.714777
0.714766
0.714755
0.714744
0.714734
0.714723
0.714712
0.714701
0.71469
0.71468
0.714669
0.714658
0.714647
0.714637
0.714626
0.714615
0.714604
0.714593
0.714583
0.714572
0.714561
0.71455
0.714539
0.714529
0.714518
0.714507
0.714496
0.714486
0.714475
0.714464
0.714453
0.714442
0.714432
0.714421
0.71441
0.714399
0.714388
0.714378
0.714367
0.714356
0.714345
0.714335
0.714324
0.714313
0.714302
0.714291
0.712938
0.71291
0.712885
0.712866
0.712851
0.712841
0.712835
0.712835
0.712839
0.712847
0.712861
0.712878
0.712901
0.712927
0.712957
0.712992
0.713031
0.713073
0.713119
0.713168
0.71322
0.713274
0.713329
0.713384
0.713436
0.713487
0.713534
0.713578
0.71362
0.71366
0.713697
0.713729
0.713757
0.713781
0.713805
0.713827
0.713848
0.713867
0.713885
0.7139
0.713913
0.713925
0.713935
0.713943
0.713951
0.713958
0.713965
0.713973
0.713982
0.713992
0.714005
0.714021
0.714041
0.714065
0.714094
0.714127
0.714166
0.71421
0.714259
0.714314
0.714373
0.714436
0.714502
0.714571
0.714643
0.714715
0.714788
0.71486
0.71493
0.714999
0.715064
0.715125
0.715181
0.715233
0.71528
0.715321
0.715357
0.715387
0.715412
0.715432
0.715448
0.715458
0.715465
0.715469
0.715469
0.715466
0.715462
0.715455
0.715448
0.715439
0.71543
0.715421
0.715411
0.715402
0.715393
0.715384
0.715375
0.715367
0.715359
0.71535
0.715342
0.715334
0.715326
0.715317
0.715309
0.7153
0.71529
0.715281
0.715271
0.715261
0.715251
0.715241
0.71523
0.71522
0.715209
0.715198
0.715187
0.715177
0.715166
0.715155
0.715144
0.715133
0.715122
0.715111
0.715101
0.71509
0.715079
0.715068
0.715057
0.715046
0.715036
0.715025
0.715014
0.715003
0.714992
0.714982
0.714971
0.71496
0.714949
0.714939
0.714928
0.714917
0.714906
0.714895
0.714885
0.714874
0.714863
0.714852
0.714841
0.714831
0.71482
0.714809
0.714798
0.714788
0.714777
0.714766
0.714755
0.714744
0.714734
0.714723
0.714712
0.714701
0.71469
0.71468
0.714669
0.714658
0.714647
0.714637
0.714626
0.714615
0.714604
0.714593
0.714583
0.714572
0.714561
0.71455
0.714539
0.714529
0.714518
0.714507
0.714496
0.714486
0.714475
0.714464
0.714453
0.714442
0.714432
0.714421
0.71441
0.714399
0.714388
0.714378
0.714367
0.714356
0.714345
0.714335
0.714324
0.714313
0.714302
0.714291
)
;

boundaryField
{
    inlet
    {
        type            zeroGradient;
    }
    outlet
    {