/*--------------------------------*- C++ -*----------------------------------*\
| =========                 |                                                 |
| \\      /  F ield         | OpenFOAM: The Open Source CFD Toolbox           |
|  \\    /   O peration     | Version:  4.1                                   |
|   \\  /    A nd           | Web:      www.OpenFOAM.org                      |
|    \\/     M anipulation  |                                                 |
\*---------------------------------------------------------------------------*/
FoamFile
{
    version     2.0;
    format      ascii;
    class       volVectorField;
    location    "249";
    object      U;
}
// * * * * * * * * * * * * * * * * * * * * * * * * * * * * * * * * * * * * * //

dimensions      [0 1 -1 0 0 0 0];

internalField   nonuniform List<vector> 
3264
(
(-1.96583e-06 -6.77575e-07 0)
(-0.000124514 2.88877e-05 0)
(-0.000369112 4.63644e-05 0)
(-0.000645153 4.82956e-05 0)
(-0.000936816 4.95284e-05 0)
(-0.00123403 4.82251e-05 0)
(-0.00153136 4.87678e-05 0)
(-0.00183109 4.87114e-05 0)
(-0.00212969 4.9304e-05 0)
(-0.00242955 4.97081e-05 0)
(-0.00273 5.0464e-05 0)
(-0.00303357 5.14704e-05 0)
(-0.00334177 5.30558e-05 0)
(-0.00365749 5.5361e-05 0)
(-0.00398332 5.86441e-05 0)
(-0.00432226 6.30969e-05 0)
(-0.00467699 6.89151e-05 0)
(-0.00504993 7.62328e-05 0)
(-0.00544282 8.51205e-05 0)
(-0.00585662 9.55476e-05 0)
(-0.00629112 0.000107363 0)
(-0.00674488 0.000120272 0)
(-0.00721493 0.000133832 0)
(-0.00769676 0.000147462 0)
(-0.00818428 0.000160463 0)
(-0.0086699 0.000172066 0)
(-0.00914467 0.00018148 0)
(-0.00959861 0.000187953 0)
(-0.010021 0.000190823 0)
(-0.0104006 0.000189567 0)
(-0.0107264 0.000183823 0)
(-0.0109876 0.000173411 0)
(-0.0111742 0.000158329 0)
(-0.0112771 0.000138746 0)
(-0.0112884 0.000114977 0)
(-0.0112019 8.74683e-05 0)
(-0.0110126 5.67654e-05 0)
(-0.0107174 2.34961e-05 0)
(-0.0103147 -1.16532e-05 0)
(-0.00980471 -4.79558e-05 0)
(-0.0091893 -8.46609e-05 0)
(-0.00847195 -0.000121009 0)
(-0.00765775 -0.000156242 0)
(-0.00675335 -0.00018962 0)
(-0.00576682 -0.000220429 0)
(-0.00470763 -0.000247997 0)
(-0.00358653 -0.0002717 0)
(-0.00241538 -0.000290987 0)
(-0.0012071 -0.000305385 0)
(2.4589e-05 -0.000314521 0)
(0.00126528 -0.000318135 0)
(0.00250011 -0.000316095 0)
(0.00371405 -0.000308416 0)
(0.00489208 -0.000295263 0)
(0.00601957 -0.000276961 0)
(0.0070825 -0.000253998 0)
(0.00806782 -0.000227017 0)
(0.00896374 -0.000196806 0)
(0.00976002 -0.000164279 0)
(0.0104482 -0.000130449 0)
(0.011022 -9.6396e-05 0)
(0.0114772 -6.32265e-05 0)
(0.0118122 -3.20281e-05 0)
(0.0120277 -3.81485e-06 0)
(0.012127 2.05349e-05 0)
(0.0121159 4.0346e-05 0)
(0.0120024 5.52168e-05 0)
(0.0117966 6.50821e-05 0)
(0.0115101 7.02546e-05 0)
(0.011156 7.1424e-05 0)
(0.0107479 6.95958e-05 0)
(0.0102999 6.5956e-05 0)
(0.00982556 6.1673e-05 0)
(0.00933785 5.7673e-05 0)
(0.00884861 5.44559e-05 0)
(0.00836816 5.20257e-05 0)
(0.00790499 4.99753e-05 0)
(0.0074655 4.77046e-05 0)
(0.00705392 4.46843e-05 0)
(0.00667247 4.06643e-05 0)
(0.00632184 3.5761e-05 0)
(0.00600168 3.04174e-05 0)
(0.00571093 2.52696e-05 0)
(0.00544806 2.09669e-05 0)
(0.00521101 1.79967e-05 0)
(0.0049972 1.65685e-05 0)
(0.00480368 1.65993e-05 0)
(0.00462731 1.77955e-05 0)
(0.00446509 1.97853e-05 0)
(0.00431433 2.22338e-05 0)
(0.00417288 2.48976e-05 0)
(0.00403925 2.76164e-05 0)
(0.00391276 3.02689e-05 0)
(0.00379352 3.27268e-05 0)
(0.00368249 3.48294e-05 0)
(0.0035814 3.6381e-05 0)
(0.00349262 3.7168e-05 0)
(0.003419 3.69835e-05 0)
(0.0033637 3.5652e-05 0)
(0.00332999 3.30494e-05 0)
(0.00332108 2.91154e-05 0)
(0.00333993 2.38588e-05 0)
(0.00338911 1.7356e-05 0)
(0.00347063 9.7454e-06 0)
(0.00358588 1.21831e-06 0)
(0.00373551 -7.99229e-06 0)
(0.00391939 -1.76235e-05 0)
(0.00413658 -2.73948e-05 0)
(0.00438535 -3.70199e-05 0)
(0.00466318 -4.62187e-05 0)
(0.00496682 -5.47279e-05 0)
(0.00529239 -6.23113e-05 0)
(0.00563543 -6.87692e-05 0)
(0.00599106 -7.39454e-05 0)
(0.00635406 -7.77335e-05 0)
(0.00671908 -8.00798e-05 0)
(0.00708076 -8.09841e-05 0)
(0.00743388 -8.04973e-05 0)
(0.00777357 -7.87159e-05 0)
(0.00809542 -7.5774e-05 0)
(0.00839562 -7.18339e-05 0)
(0.0086711 -6.70748e-05 0)
(0.00891956 -6.16835e-05 0)
(0.00913953 -5.58446e-05 0)
(0.00933038 -4.97343e-05 0)
(0.00949225 -4.35155e-05 0)
(0.009626 -3.73351e-05 0)
(0.00973311 -3.13222e-05 0)
(0.00981555 -2.55882e-05 0)
(0.00987568 -2.02256e-05 0)
(0.00991608 -1.53085e-05 0)
(0.00993952 -1.08926e-05 0)
(0.00994878 -7.01544e-06 0)
(0.0099466 -3.69838e-06 0)
(0.0099356 -9.47482e-07 0)
(0.00991825 1.24456e-06 0)
(0.00989677 2.89698e-06 0)
(0.00987317 4.03974e-06 0)
(0.00984916 4.71259e-06 0)
(0.00982617 4.96404e-06 0)
(0.00980534 4.85027e-06 0)
(0.00978754 4.43347e-06 0)
(0.00977333 3.77981e-06 0)
(0.00976304 2.95691e-06 0)
(0.00975674 2.03115e-06 0)
(0.00975433 1.06496e-06 0)
(0.00975552 1.14353e-07 0)
(0.00975989 -7.72994e-07 0)
(0.00976694 -1.55915e-06 0)
(0.0097761 -2.21664e-06 0)
(0.00978679 -2.72846e-06 0)
(0.00979844 -3.0876e-06 0)
(0.00981052 -3.29593e-06 0)
(0.00982254 -3.36289e-06 0)
(0.0098341 -3.3038e-06 0)
(0.00984487 -3.13817e-06 0)
(0.00985461 -2.88796e-06 0)
(0.00986314 -2.57606e-06 0)
(0.00987039 -2.22485e-06 0)
(0.00987633 -1.85513e-06 0)
(0.00988098 -1.48522e-06 0)
(0.00988444 -1.13042e-06 0)
(0.00988682 -8.02723e-07 0)
(0.00988826 -5.10757e-07 0)
(0.00988889 -2.59922e-07 0)
(0.00988888 -5.27113e-08 0)
(0.00988837 1.10889e-07 0)
(0.00988749 2.32916e-07 0)
(0.00988638 3.16937e-07 0)
(0.00988513 3.67561e-07 0)
(0.00988384 3.89994e-07 0)
(0.00988256 3.89649e-07 0)
(0.00988136 3.71826e-07 0)
(0.00988027 3.41469e-07 0)
(0.00987931 3.0299e-07 0)
(0.00987849 2.60164e-07 0)
(0.00987782 2.16083e-07 0)
(0.00987728 1.73154e-07 0)
(0.00987687 1.3314e-07 0)
(0.00987658 9.72232e-08 0)
(0.00987638 6.60844e-08 0)
(0.00987626 3.9994e-08 0)
(0.0098762 1.88995e-08 0)
(0.0098762 2.51085e-09 0)
(0.00987623 -9.62358e-09 0)
(0.00987629 -1.80514e-08 0)
(0.00987636 -2.33625e-08 0)
(0.00987644 -2.61465e-08 0)
(0.00987653 -2.69627e-08 0)
(0.00987661 -2.63182e-08 0)
(0.00987668 -2.46559e-08 0)
(0.00987675 -2.23484e-08 0)
(0.00987681 -1.96989e-08 0)
(0.00987686 -1.69388e-08 0)
(0.0098769 -1.42492e-08 0)
(0.00987694 -1.1721e-08 0)
(0.00987697 -9.46776e-09 0)
(0.00987699 -7.42253e-09 0)
(0.00987701 -5.44062e-09 0)
(0.00987702 -4.67009e-09 0)
(-8.05609e-05 0.000126944 0)
(-0.000563289 0.000359451 0)
(-0.00127055 0.000496539 0)
(-0.00202873 0.000542735 0)
(-0.00279869 0.000567031 0)
(-0.00356553 0.000572537 0)
(-0.00431667 0.000577392 0)
(-0.00505705 0.000577603 0)
(-0.0057818 0.000578384 0)
(-0.00649612 0.000579418 0)
(-0.00720048 0.000583107 0)
(-0.00789965 0.00059015 0)
(-0.00859639 0.000601634 0)
(-0.00929456 0.000617943 0)
(-0.00999663 0.000639227 0)
(-0.0107044 0.000665141 0)
(-0.0114182 0.000694926 0)
(-0.0121365 0.000727349 0)
(-0.0128559 0.000760735 0)
(-0.0135709 0.000792998 0)
(-0.0142739 0.000821726 0)
(-0.0149552 0.00084428 0)
(-0.0156035 0.000857937 0)
(-0.0162059 0.000860044 0)
(-0.0167486 0.000848175 0)
(-0.0172175 0.000820273 0)
(-0.0175981 0.000774771 0)
(-0.0178766 0.000710666 0)
(-0.01804 0.000627564 0)
(-0.0180763 0.00052567 0)
(-0.0179754 0.000405758 0)
(-0.0177283 0.000269103 0)
(-0.0173282 0.000117409 0)
(-0.01677 -4.7278e-05 0)
(-0.0160505 -0.000222644 0)
(-0.0151683 -0.000406184 0)
(-0.014124 -0.000595261 0)
(-0.0129198 -0.000787162 0)
(-0.0115598 -0.000979134 0)
(-0.0100499 -0.00116843 0)
(-0.00839729 -0.00135231 0)
(-0.00661101 -0.00152811 0)
(-0.00470152 -0.00169321 0)
(-0.00268071 -0.0018451 0)
(-0.000561862 -0.00198138 0)
(0.00164045 -0.00209979 0)
(0.00391043 -0.00219822 0)
(0.00623119 -0.00227479 0)
(0.00858482 -0.00232784 0)
(0.0109526 -0.00235604 0)
(0.0133151 -0.00235834 0)
(0.0156523 -0.00233411 0)
(0.0179441 -0.00228314 0)
(0.0201703 -0.00220566 0)
(0.0223109 -0.00210243 0)
(0.0243464 -0.00197469 0)
(0.0262581 -0.00182422 0)
(0.0280285 -0.00165326 0)
(0.0296413 -0.00146456 0)
(0.0310817 -0.00126125 0)
(0.0323369 -0.00104686 0)
(0.033396 -0.000825216 0)
(0.0342501 -0.000600361 0)
(0.0348928 -0.000376507 0)
(0.0353198 -0.000157933 0)
(0.0355297 5.10929e-05 0)
(0.0355238 0.000246423 0)
(0.0353061 0.000424144 0)
(0.0348841 0.000580714 0)
(0.0342686 0.000713113 0)
(0.033474 0.000819018 0)
(0.0325187 0.000896981 0)
(0.0314247 0.000946619 0)
(0.0302176 0.00096879 0)
(0.0289256 0.000965737 0)
(0.027579 0.000941101 0)
(0.0262079 0.000899703 0)
(0.0248415 0.000847015 0)
(0.0235059 0.000788359 0)
(0.0222236 0.00072807 0)
(0.0210122 0.000668952 0)
(0.0198844 0.000612297 0)
(0.0188474 0.000558415 0)
(0.017904 0.000507343 0)
(0.0170527 0.000459352 0)
(0.0162892 0.000415042 0)
(0.0156076 0.000375131 0)
(0.0150014 0.000340153 0)
(0.0144639 0.000310231 0)
(0.0139893 0.000284981 0)
(0.0135725 0.000263517 0)
(0.0132095 0.000244533 0)
(0.0128975 0.000226456 0)
(0.0126349 0.000207627 0)
(0.0124216 0.000186482 0)
(0.0122585 0.000161694 0)
(0.0121475 0.000132256 0)
(0.0120911 9.75219e-05 0)
(0.0120922 5.72081e-05 0)
(0.0121535 1.13717e-05 0)
(0.0122775 -3.96187e-05 0)
(0.0124662 -9.51191e-05 0)
(0.0127209 -0.00015425 0)
(0.0130417 -0.000215937 0)
(0.013428 -0.00027896 0)
(0.0138781 -0.00034199 0)
(0.0143893 -0.000403641 0)
(0.0149575 -0.000462508 0)
(0.0155779 -0.000517212 0)
(0.0162445 -0.000566439 0)
(0.0169506 -0.000608979 0)
(0.0176885 -0.000643765 0)
(0.0184498 -0.000669907 0)
(0.0192258 -0.000686729 0)
(0.0200071 -0.000693798 0)
(0.0207842 -0.00069095 0)
(0.0215477 -0.000678312 0)
(0.0222883 -0.000656307 0)
(0.0229971 -0.000625648 0)
(0.0236661 -0.000587327 0)
(0.0242878 -0.00054257 0)
(0.0248563 -0.000492792 0)
(0.0253667 -0.000439527 0)
(0.0258157 -0.00038436 0)
(0.0262017 -0.000328842 0)
(0.0265245 -0.00027442 0)
(0.0267857 -0.000222376 0)
(0.0269882 -0.000173774 0)
(0.0271363 -0.000129444 0)
(0.0272354 -8.99676e-05 0)
(0.0272916 -5.56931e-05 0)
(0.0273116 -2.67597e-05 0)
(0.027302 -3.12659e-06 0)
(0.0272697 1.53944e-05 0)
(0.027221 2.9109e-05 0)
(0.0271616 3.84135e-05 0)
(0.0270968 4.37717e-05 0)
(0.027031 4.56949e-05 0)
(0.0269679 4.4724e-05 0)
(0.0269102 4.14122e-05 0)
(0.0268601 3.63093e-05 0)
(0.026819 2.99461e-05 0)
(0.0267875 2.28207e-05 0)
(0.0267657 1.53856e-05 0)
(0.0267534 8.03755e-06 0)
(0.0267499 1.1095e-06 0)
(0.026754 -5.1342e-06 0)
(0.0267647 -1.04997e-05 0)
(0.0267806 -1.48625e-05 0)
(0.0268004 -1.81634e-05 0)
(0.0268227 -2.04016e-05 0)
(0.0268464 -2.16269e-05 0)
(0.0268705 -2.19294e-05 0)
(0.0268938 -2.14289e-05 0)
(0.0269158 -2.02648e-05 0)
(0.0269358 -1.85858e-05 0)
(0.0269535 -1.65412e-05 0)
(0.0269687 -1.42731e-05 0)
(0.0269812 -1.19103e-05 0)
(0.0269911 -9.56462e-06 0)
(0.0269987 -7.32751e-06 0)
(0.027004 -5.26948e-06 0)
(0.0270073 -3.44012e-06 0)
(0.0270091 -1.8695e-06 0)
(0.0270094 -5.70308e-07 0)
(0.0270088 4.59518e-07 0)
(0.0270073 1.23379e-06 0)
(0.0270053 1.77509e-06 0)
(0.0270031 2.11186e-06 0)
(0.0270006 2.27579e-06 0)
(0.0269982 2.29961e-06 0)
(0.0269959 2.21522e-06 0)
(0.0269938 2.05227e-06 0)
(0.026992 1.83727e-06 0)
(0.0269903 1.59291e-06 0)
(0.026989 1.33785e-06 0)
(0.0269879 1.08672e-06 0)
(0.0269871 8.50376e-07 0)
(0.0269865 6.36219e-07 0)
(0.0269861 4.48709e-07 0)
(0.0269858 2.89858e-07 0)
(0.0269857 1.59743e-07 0)
(0.0269856 5.69992e-08 0)
(0.0269856 -2.07375e-08 0)
(0.0269857 -7.64504e-08 0)
(0.0269859 -1.13424e-07 0)
(0.026986 -1.34995e-07 0)
(0.0269861 -1.44367e-07 0)
(0.0269863 -1.44478e-07 0)
(0.0269864 -1.37927e-07 0)
(0.0269865 -1.26926e-07 0)
(0.0269866 -1.13298e-07 0)
(0.0269867 -9.84898e-08 0)
(0.0269868 -8.35933e-08 0)
(0.0269869 -6.9421e-08 0)
(0.0269869 -5.64163e-08 0)
(0.026987 -4.50651e-08 0)
(0.026987 -3.50024e-08 0)
(0.026987 -2.65757e-08 0)
(0.0269871 -1.97186e-08 0)
(-0.000177073 0.00062482 0)
(-0.00102992 0.00121575 0)
(-0.00214224 0.00149505 0)
(-0.00327463 0.00154686 0)
(-0.00436783 0.00155646 0)
(-0.00541292 0.00152978 0)
(-0.00639426 0.00150567 0)
(-0.00732391 0.00147713 0)
(-0.00819936 0.00145321 0)
(-0.00902995 0.0014331 0)
(-0.00981794 0.00141979 0)
(-0.010569 0.00141354 0)
(-0.0112854 0.0014147 0)
(-0.0119693 0.00142249 0)
(-0.0126208 0.00143548 0)
(-0.0132385 0.00145144 0)
(-0.0138192 0.00146748 0)
(-0.0143576 0.00148016 0)
(-0.0148472 0.00148563 0)
(-0.0152795 0.00147981 0)
(-0.015645 0.00145862 0)
(-0.0159333 0.00141817 0)
(-0.0161333 0.00135499 0)
(-0.0162339 0.00126619 0)
(-0.0162241 0.00114958 0)
(-0.0160938 0.00100378 0)
(-0.0158333 0.00082827 0)
(-0.0154345 0.000623323 0)
(-0.0148903 0.000390011 0)
(-0.0141949 0.000130104 0)
(-0.0133442 -0.000154021 0)
(-0.0123353 -0.000459486 0)
(-0.0111668 -0.000783009 0)
(-0.00983875 -0.001121 0)
(-0.00835252 -0.00146965 0)
(-0.0067108 -0.00182498 0)
(-0.00491762 -0.0021829 0)
(-0.00297827 -0.00253929 0)
(-0.000899337 -0.00288997 0)
(0.00131137 -0.00323079 0)
(0.0036448 -0.0035576 0)
(0.00609065 -0.00386634 0)
(0.00863746 -0.00415298 0)
(0.0112725 -0.00441364 0)
(0.0139821 -0.00464454 0)
(0.0167512 -0.00484211 0)
(0.0195638 -0.00500299 0)
(0.0224031 -0.00512409 0)
(0.0252512 -0.00520272 0)
(0.0280897 -0.00523658 0)
(0.0308994 -0.00522392 0)
(0.0336611 -0.00516358 0)
(0.0363552 -0.00505505 0)
(0.0389625 -0.00489858 0)
(0.0414641 -0.00469521 0)
(0.0438419 -0.00444677 0)
(0.0460787 -0.00415588 0)
(0.0481587 -0.00382592 0)
(0.0500672 -0.00346097 0)
(0.0517914 -0.0030657 0)
(0.0533199 -0.00264526 0)
(0.0546429 -0.00220519 0)
(0.0557524 -0.00175128 0)
(0.0566418 -0.00128951 0)
(0.0573059 -0.000825926 0)
(0.0577409 -0.000366627 0)
(0.0579442 8.23056e-05 0)
(0.0579146 0.000514805 0)
(0.0576521 0.000924826 0)
(0.0571582 0.00130635 0)
(0.0564361 0.00165338 0)
(0.0554914 0.00196003 0)
(0.0543322 0.00222064 0)
(0.05297 0.00243005 0)
(0.0514203 0.00258401 0)
(0.0497035 0.00267974 0)
(0.0478451 0.00271658 0)
(0.045876 0.00269646 0)
(0.0438318 0.00262418 0)
(0.0417519 0.00250731 0)
(0.0396771 0.00235563 0)
(0.0376473 0.00218034 0)
(0.0356984 0.00199289 0)
(0.0338602 0.00180378 0)
(0.0321549 0.00162137 0)
(0.0305969 0.00145114 0)
(0.029193 0.00129564 0)
(0.0279438 0.00115501 0)
(0.0268447 0.00102789 0)
(0.0258883 0.000912181 0)
(0.0250654 0.00080557 0)
(0.0243667 0.000705637 0)
(0.0237836 0.000609888 0)
(0.023309 0.000515781 0)
(0.0229371 0.000420845 0)
(0.0226635 0.000322851 0)
(0.022485 0.000219992 0)
(0.0223993 0.00011101 0)
(0.0224047 -4.72838e-06 0)
(0.0224995 -0.000127224 0)
(0.0226824 -0.000255881 0)
(0.0229516 -0.000389573 0)
(0.023305 -0.000526731 0)
(0.02374 -0.000665438 0)
(0.0242532 -0.000803523 0)
(0.0248405 -0.000938646 0)
(0.025497 -0.00106838 0)
(0.0262171 -0.0011903 0)
(0.0269944 -0.001302 0)
(0.0278216 -0.00140122 0)
(0.0286909 -0.00148587 0)
(0.0295938 -0.00155407 0)
(0.0305213 -0.00160423 0)
(0.0314639 -0.0016351 0)
(0.0324119 -0.00164583 0)
(0.0333554 -0.00163599 0)
(0.0342845 -0.00160563 0)
(0.0351895 -0.00155533 0)
(0.036061 -0.00148617 0)
(0.0368901 -0.00139977 0)
(0.0376687 -0.00129826 0)
(0.0383894 -0.00118422 0)
(0.0390462 -0.00106062 0)
(0.0396341 -0.000930693 0)
(0.0401496 -0.000797864 0)
(0.0405907 -0.00066556 0)
(0.0409571 -0.000537084 0)
(0.0412501 -0.000415456 0)
(0.0414728 -0.000303277 0)
(0.0416299 -0.000202618 0)
(0.0417272 -0.000114949 0)
(0.041772 -4.11123e-05 0)
(0.0417722 1.86568e-05 0)
(0.0417364 6.46736e-05 0)
(0.0416732 9.77142e-05 0)
(0.0415908 0.000118912 0)
(0.041497 0.000129654 0)
(0.0413987 0.000131478 0)
(0.0413017 0.00012599 0)
(0.0412108 0.000114792 0)
(0.0411295 9.94257e-05 0)
(0.0410604 8.133e-05 0)
(0.0410049 6.18062e-05 0)
(0.0409635 4.19944e-05 0)
(0.040936 2.28569e-05 0)
(0.0409216 5.16914e-06 0)
(0.0409189 -1.04832e-05 0)
(0.0409264 -2.36992e-05 0)
(0.0409421 -3.42523e-05 0)
(0.0409641 -4.20736e-05 0)
(0.0409907 -4.72314e-05 0)
(0.0410199 -4.99066e-05 0)
(0.0410502 -5.03669e-05 0)
(0.0410802 -4.89399e-05 0)
(0.0411088 -4.5988e-05 0)
(0.0411351 -4.18846e-05 0)
(0.0411586 -3.6994e-05 0)
(0.0411788 -3.16543e-05 0)
(0.0411956 -2.61658e-05 0)
(0.041209 -2.07818e-05 0)
(0.0412191 -1.57049e-05 0)
(0.0412264 -1.1086e-05 0)
(0.041231 -7.02608e-06 0)
(0.0412334 -3.58125e-06 0)
(0.041234 -7.68168e-07 0)
(0.0412332 1.42874e-06 0)
(0.0412314 3.05003e-06 0)
(0.0412289 4.15411e-06 0)
(0.041226 4.81054e-06 0)
(0.0412229 5.09427e-06 0)
(0.0412198 5.0807e-06 0)
(0.0412168 4.84185e-06 0)
(0.0412141 4.44353e-06 0)
(0.0412117 3.9435e-06 0)
(0.0412097 3.39048e-06 0)
(0.041208 2.82379e-06 0)
(0.0412067 2.27369e-06 0)
(0.0412056 1.76203e-06 0)
(0.0412049 1.30323e-06 0)
(0.0412044 9.05415e-07 0)
(0.041204 5.71598e-07 0)
(0.0412039 3.00824e-07 0)
(0.0412038 8.92581e-08 0)
(0.0412039 -6.88659e-08 0)
(0.041204 -1.80435e-07 0)
(0.0412042 -2.52805e-07 0)
(0.0412044 -2.93292e-07 0)
(0.0412045 -3.08805e-07 0)
(0.0412047 -3.05602e-07 0)
(0.0412049 -2.89141e-07 0)
(0.041205 -2.64028e-07 0)
(0.0412052 -2.34009e-07 0)
(0.0412053 -2.02023e-07 0)
(0.0412054 -1.70278e-07 0)
(0.0412055 -1.40349e-07 0)
(0.0412055 -1.13221e-07 0)
(0.0412056 -8.96256e-08 0)
(0.0412056 -6.92863e-08 0)
(0.0412056 -5.3072e-08 0)
(0.0412056 -3.88856e-08 0)
(-0.000307503 0.00123728 0)
(-0.00152359 0.00227101 0)
(-0.00288272 0.00268422 0)
(-0.00415843 0.00271304 0)
(-0.00526966 0.00266509 0)
(-0.00626613 0.00256187 0)
(-0.0071329 0.00246137 0)
(-0.00790284 0.00235864 0)
(-0.00857629 0.00226578 0)
(-0.00916869 0.00218193 0)
(-0.00968357 0.00210937 0)
(-0.0101276 0.00204707 0)
(-0.0105029 0.00199385 0)
(-0.0108109 0.00194732 0)
(-0.0110508 0.00190443 0)
(-0.0112207 0.00186143 0)
(-0.0113171 0.00181406 0)
(-0.0113354 0.00175769 0)
(-0.01127 0.00168753 0)
(-0.0111146 0.00159883 0)
(-0.0108626 0.00148708 0)
(-0.0105072 0.00134827 0)
(-0.0100415 0.00117904 0)
(-0.00945927 0.000976801 0)
(-0.00875456 0.000739864 0)
(-0.00792217 0.000467462 0)
(-0.0069577 0.000159758 0)
(-0.00585759 -0.000182202 0)
(-0.00461923 -0.000556554 0)
(-0.0032409 -0.000960712 0)
(-0.00172182 -0.00139147 0)
(-6.21724e-05 -0.00184509 0)
(0.00173695 -0.00231742 0)
(0.00367351 -0.00280398 0)
(0.0057445 -0.0033 0)
(0.00794596 -0.00380054 0)
(0.0102729 -0.00430046 0)
(0.0127194 -0.00479453 0)
(0.0152782 -0.00527742 0)
(0.0179413 -0.00574376 0)
(0.0206993 -0.00618814 0)
(0.0235417 -0.00660517 0)
(0.0264568 -0.00698949 0)
(0.0294318 -0.00733586 0)
(0.0324527 -0.00763914 0)
(0.0355046 -0.00789441 0)
(0.0385713 -0.00809702 0)
(0.0416357 -0.00824269 0)
(0.0446802 -0.00832763 0)
(0.0476864 -0.00834865 0)
(0.0506354 -0.00830328 0)
(0.0535085 -0.00818994 0)
(0.0562872 -0.008008 0)
(0.0589535 -0.00775794 0)
(0.0614904 -0.00744136 0)
(0.0638822 -0.00706102 0)
(0.0661147 -0.00662081 0)
(0.0681757 -0.00612566 0)
(0.0700548 -0.00558139 0)
(0.0717435 -0.00499458 0)
(0.0732356 -0.00437233 0)
(0.0745263 -0.00372209 0)
(0.0756127 -0.00305147 0)
(0.0764932 -0.00236803 0)
(0.077167 -0.00167924 0)
(0.0776344 -0.000992332 0)
(0.0778958 -0.000314284 0)
(0.0779521 0.000348162 0)
(0.0778042 0.000988477 0)
(0.0774528 0.00160027 0)
(0.0768988 0.00217724 0)
(0.0761429 0.00271306 0)
(0.0751861 0.0032014 0)
(0.07403 0.00363588 0)
(0.0726769 0.00401019 0)
(0.0711308 0.00431828 0)
(0.0693982 0.00455463 0)
(0.0674889 0.00471466 0)
(0.0654173 0.00479519 0)
(0.0632031 0.00479506 0)
(0.0608726 0.00471573 0)
(0.0584582 0.00456191 0)
(0.0559982 0.00434194 0)
(0.053535 0.00406771 0)
(0.0511134 0.00375388 0)
(0.0487768 0.00341642 0)
(0.0465649 0.00307089 0)
(0.0445101 0.00273068 0)
(0.0426365 0.00240571 0)
(0.0409589 0.00210187 0)
(0.0394834 0.00182104 0)
(0.038209 0.00156184 0)
(0.0371294 0.00132065 0)
(0.0362347 0.00109278 0)
(0.0355135 0.000873413 0)
(0.0349539 0.000658251 0)
(0.0345447 0.000443909 0)
(0.0342753 0.000228029 0)
(0.0341364 9.2702e-06 0)
(0.0341198 -0.000212766 0)
(0.0342179 -0.000437646 0)
(0.0344236 -0.000664216 0)
(0.0347304 -0.00089072 0)
(0.0351316 -0.00111492 0)
(0.0356206 -0.0013342 0)
(0.0361904 -0.00154572 0)
(0.0368337 -0.00174644 0)
(0.0375432 -0.0019333 0)
(0.0383107 -0.00210328 0)
(0.0391278 -0.00225347 0)
(0.039986 -0.00238117 0)
(0.040876 -0.00248395 0)
(0.0417885 -0.00255976 0)
(0.0427141 -0.00260698 0)
(0.0436432 -0.00262449 0)
(0.0445663 -0.00261174 0)
(0.0454742 -0.00256882 0)
(0.0463579 -0.00249647 0)
(0.0472092 -0.00239611 0)
(0.0480204 -0.00226985 0)
(0.0487845 -0.00212043 0)
(0.0494957 -0.00195119 0)
(0.050149 -0.001766 0)
(0.0507404 -0.00156912 0)
(0.051267 -0.00136509 0)
(0.0517272 -0.00115862 0)
(0.0521201 -0.000954416 0)
(0.0524461 -0.000757022 0)
(0.0527067 -0.000570666 0)
(0.0529044 -0.000399091 0)
(0.0530429 -0.00024541 0)
(0.0531268 -0.000111975 0)
(0.0531618 -2.86097e-07 0)
(0.0531545 8.90476e-05 0)
(0.0531119 0.000156294 0)
(0.0530418 0.000202526 0)
(0.0529517 0.000229496 0)
(0.0528491 0.000239484 0)
(0.0527409 0.000235122 0)
(0.0526333 0.000219218 0)
(0.0525313 0.000194606 0)
(0.052439 0.000164008 0)
(0.0523594 0.000129933 0)
(0.0522943 9.46032e-05 0)
(0.0522445 5.991e-05 0)
(0.05221 2.73856e-05 0)
(0.0521899 -1.79998e-06 0)
(0.0521829 -2.68291e-05 0)
(0.0521872 -4.72141e-05 0)
(0.052201 -6.27648e-05 0)
(0.052222 -7.35488e-05 0)
(0.0522481 -7.98467e-05 0)
(0.0522775 -8.21043e-05 0)
(0.0523083 -8.08838e-05 0)
(0.0523389 -7.68179e-05 0)
(0.0523683 -7.05664e-05 0)
(0.0523952 -6.27787e-05 0)
(0.0524192 -5.40625e-05 0)
(0.0524398 -4.49611e-05 0)
(0.0524567 -3.59361e-05 0)
(0.0524701 -2.73596e-05 0)
(0.0524802 -1.95112e-05 0)
(0.0524871 -1.25816e-05 0)
(0.0524913 -6.6802e-06 0)
(0.0524933 -1.8454e-06 0)
(0.0524935 1.94273e-06 0)
(0.0524923 4.74939e-06 0)
(0.05249 6.67217e-06 0)
(0.0524872 7.82905e-06 0)
(0.0524839 8.34793e-06 0)
(0.0524806 8.35785e-06 0)
(0.0524773 7.98221e-06 0)
(0.0524743 7.3337e-06 0)
(0.0524716 6.51108e-06 0)
(0.0524692 5.59743e-06 0)
(0.0524672 4.65969e-06 0)
(0.0524656 3.74914e-06 0)
(0.0524644 2.90267e-06 0)
(0.0524634 2.14449e-06 0)
(0.0524628 1.4881e-06 0)
(0.0524623 9.38325e-07 0)
(0.0524621 4.9337e-07 0)
(0.052462 1.46613e-07 0)
(0.0524621 -1.11749e-07 0)
(0.0524622 -2.93334e-07 0)
(0.0524623 -4.10478e-07 0)
(0.0524625 -4.75392e-07 0)
(0.0524627 -4.99554e-07 0)
(0.0524629 -4.93313e-07 0)
(0.0524631 -4.6566e-07 0)
(0.0524633 -4.24137e-07 0)
(0.0524634 -3.74859e-07 0)
(0.0524635 -3.22595e-07 0)
(0.0524636 -2.70908e-07 0)
(0.0524637 -2.22318e-07 0)
(0.0524638 -1.78461e-07 0)
(0.0524639 -1.40336e-07 0)
(0.0524639 -1.08035e-07 0)
(0.0524639 -8.25403e-08 0)
(0.0524639 -6.05651e-08 0)
(-0.000410422 0.00245939 0)
(-0.00174211 0.00376887 0)
(-0.0030256 0.00411732 0)
(-0.00409839 0.00388224 0)
(-0.00487813 0.00363081 0)
(-0.00547564 0.00335144 0)
(-0.00588657 0.00311193 0)
(-0.00616912 0.00289216 0)
(-0.00633038 0.00269788 0)
(-0.00639407 0.00252303 0)
(-0.00636568 0.00236596 0)
(-0.00625381 0.00222311 0)
(-0.00606046 0.00209109 0)
(-0.0057875 0.00196593 0)
(-0.00543409 0.00184323 0)
(-0.00499876 0.00171822 0)
(-0.00447883 0.00158582 0)
(-0.00387114 0.00144081 0)
(-0.00317202 0.00127802 0)
(-0.00237768 0.00109249 0)
(-0.00148423 0.000879703 0)
(-0.000487958 0.000635745 0)
(0.000614647 0.000357465 0)
(0.00182673 4.25858e-05 0)
(0.00315104 -0.000310233 0)
(0.00458983 -0.000701372 0)
(0.00614485 -0.00113027 0)
(0.00781734 -0.00159545 0)
(0.00960794 -0.00209464 0)
(0.0115167 -0.00262481 0)
(0.013543 -0.00318227 0)
(0.0156857 -0.00376278 0)
(0.0179427 -0.00436162 0)
(0.0203113 -0.00497366 0)
(0.0227878 -0.00559342 0)
(0.0253679 -0.00621514 0)
(0.028046 -0.00683279 0)
(0.0308157 -0.00744012 0)
(0.0336692 -0.0080307 0)
(0.0365979 -0.00859796 0)
(0.0395916 -0.00913519 0)
(0.0426391 -0.00963567 0)
(0.0457278 -0.0100926 0)
(0.048844 -0.0104994 0)
(0.0519726 -0.0108495 0)
(0.0550976 -0.0111365 0)
(0.0582018 -0.0113545 0)
(0.0612674 -0.0114981 0)
(0.0642758 -0.0115623 0)
(0.0672083 -0.0115432 0)
(0.0700459 -0.0114379 0)
(0.0727706 -0.0112446 0)
(0.0753649 -0.0109631 0)
(0.0778133 -0.0105946 0)
(0.0801016 -0.0101419 0)
(0.0822185 -0.0096093 0)
(0.0841548 -0.00900282 0)
(0.0859045 -0.00832959 0)
(0.0874641 -0.00759787 0)
(0.0888327 -0.00681664 0)
(0.0900117 -0.00599531 0)
(0.0910046 -0.00514342 0)
(0.091816 -0.00427032 0)
(0.0924516 -0.00338496 0)
(0.0929175 -0.00249578 0)
(0.0932198 -0.00161057 0)
(0.093364 -0.000736508 0)
(0.0933549 0.000119787 0)
(0.0931963 0.000952146 0)
(0.0928909 0.00175471 0)
(0.0924401 0.00252176 0)
(0.0918442 0.0032476 0)
(0.0911024 0.00392637 0)
(0.090213 0.00455206 0)
(0.0891736 0.0051184 0)
(0.0879818 0.00561904 0)
(0.0866351 0.00604761 0)
(0.0851319 0.00639801 0)
(0.083472 0.00666466 0)
(0.0816576 0.00684284 0)
(0.0796941 0.00692911 0)
(0.0775911 0.00692176 0)
(0.0753633 0.00682137 0)
(0.0730314 0.00663125 0)
(0.0706227 0.0063578 0)
(0.0681705 0.0060106 0)
(0.0657132 0.00560209 0)
(0.0632927 0.00514693 0)
(0.0609515 0.00466099 0)
(0.0587297 0.00415993 0)
(0.0566627 0.00365786 0)
(0.0547786 0.00316601 0)
(0.0530969 0.002692 0)
(0.0516284 0.00223972 0)
(0.0503762 0.00180976 0)
(0.0493366 0.00140033 0)
(0.0485011 0.0010083 0)
(0.0478581 0.000630203 0)
(0.0473944 0.000262953 0)
(0.0470963 -9.5662e-05 0)
(0.04695 -0.000446779 0)
(0.0469424 -0.000790438 0)
(0.0470611 -0.00112569 0)
(0.0472943 -0.00145077 0)
(0.0476308 -0.00176325 0)
(0.0480597 -0.00206026 0)
(0.0485705 -0.00233863 0)
(0.0491528 -0.00259502 0)
(0.0497962 -0.00282609 0)
(0.0504903 -0.00302857 0)
(0.0512248 -0.00319943 0)
(0.0519891 -0.00333595 0)
(0.0527728 -0.00343582 0)
(0.0535658 -0.0034973 0)
(0.0543577 -0.00351926 0)
(0.055139 -0.00350129 0)
(0.0559005 -0.0034438 0)
(0.0566336 -0.003348 0)
(0.0573307 -0.00321599 0)
(0.0579852 -0.00305071 0)
(0.0585916 -0.00285587 0)
(0.0591458 -0.00263587 0)
(0.0596449 -0.00239568 0)
(0.0600872 -0.00214067 0)
(0.0604725 -0.00187646 0)
(0.0608013 -0.00160873 0)
(0.0610754 -0.00134304 0)
(0.0612972 -0.00108472 0)
(0.0614697 -0.000838707 0)
(0.0615961 -0.000609407 0)
(0.0616801 -0.00040062 0)
(0.0617256 -0.000215426 0)
(0.0617365 -5.61055e-05 0)
(0.0617169 7.59286e-05 0)
(0.0616713 0.000180176 0)
(0.0616041 0.000257055 0)
(0.0615201 0.000307866 0)
(0.0614241 0.000334705 0)
(0.0613211 0.000340329 0)
(0.0612156 0.000327986 0)
(0.061112 0.000301221 0)
(0.0610141 0.000263682 0)
(0.0609251 0.000218934 0)
(0.0608474 0.000170305 0)
(0.0607826 0.000120761 0)
(0.0607315 7.28209e-05 0)
(0.0606943 2.85078e-05 0)
(0.0606703 -1.0665e-05 0)
(0.0606586 -4.36837e-05 0)
(0.0606577 -6.99992e-05 0)
(0.0606658 -8.94767e-05 0)
(0.0606811 -0.000102333 0)
(0.0607017 -0.000109069 0)
(0.0607257 -0.000110396 0)
(0.0607517 -0.000107167 0)
(0.060778 -0.000100307 0)
(0.0608034 -9.0759e-05 0)
(0.0608271 -7.94271e-05 0)
(0.0608484 -6.714e-05 0)
(0.0608667 -5.46204e-05 0)
(0.0608819 -4.24668e-05 0)
(0.0608939 -3.11449e-05 0)
(0.060903 -2.09892e-05 0)
(0.0609093 -1.221e-05 0)
(0.0609132 -4.90806e-06 0)
(0.060915 9.09248e-07 0)
(0.0609152 5.30835e-06 0)
(0.0609141 8.4105e-06 0)
(0.0609122 1.03735e-05 0)
(0.0609096 1.13751e-05 0)
(0.0609068 1.15996e-05 0)
(0.0609038 1.12262e-05 0)
(0.0609009 1.04208e-05 0)
(0.0608983 9.33081e-06 0)
(0.0608959 8.08127e-06 0)
(0.0608938 6.77412e-06 0)
(0.0608921 5.48835e-06 0)
(0.0608907 4.28161e-06 0)
(0.0608896 3.19259e-06 0)
(0.0608889 2.24381e-06 0)
(0.0608883 1.44468e-06 0)
(0.060888 7.94392e-07 0)
(0.0608878 2.84703e-07 0)
(0.0608878 -9.76282e-08 0)
(0.0608878 -3.68788e-07 0)
(0.0608879 -5.46236e-07 0)
(0.0608881 -6.47423e-07 0)
(0.0608883 -6.8886e-07 0)
(0.0608885 -6.85499e-07 0)
(0.0608886 -6.50376e-07 0)
(0.0608888 -5.94459e-07 0)
(0.0608889 -5.26657e-07 0)
(0.0608891 -4.5394e-07 0)
(0.0608892 -3.81527e-07 0)
(0.0608893 -3.13133e-07 0)
(0.0608893 -2.51201e-07 0)
(0.0608894 -1.97189e-07 0)
(0.0608894 -1.516e-07 0)
(0.0608895 -1.15431e-07 0)
(0.0608895 -8.45044e-08 0)
(-0.000701801 0.00309199 0)
(-0.00212141 0.00470693 0)
(-0.00259299 0.00493424 0)
(-0.00282765 0.00449403 0)
(-0.00264437 0.00403228 0)
(-0.00236362 0.00357636 0)
(-0.00192223 0.00318271 0)
(-0.00140335 0.002835 0)
(-0.000795679 0.00252897 0)
(-0.000121916 0.00225584 0)
(0.00061945 0.00200826 0)
(0.00142285 0.00178012 0)
(0.00228974 0.00156528 0)
(0.00322044 0.00135828 0)
(0.00421752 0.00115349 0)
(0.00528353 0.000945481 0)
(0.00642169 0.00072873 0)
(0.00763521 0.000497857 0)
(0.00892733 0.000247638 0)
(0.0103011 -2.68122e-05 0)
(0.0117594 -0.000329908 0)
(0.0133046 -0.000665437 0)
(0.0149391 -0.00103644 0)
(0.0166646 -0.00144512 0)
(0.0184824 -0.00189275 0)
(0.0203938 -0.00237966 0)
(0.0223993 -0.00290525 0)
(0.0244992 -0.00346799 0)
(0.0266931 -0.00406547 0)
(0.0289803 -0.00469449 0)
(0.0313594 -0.00535109 0)
(0.0338283 -0.00603065 0)
(0.0363842 -0.00672797 0)
(0.0390235 -0.00743731 0)
(0.0417415 -0.00815245 0)
(0.0445326 -0.00886678 0)
(0.0473903 -0.00957327 0)
(0.0503067 -0.0102646 0)
(0.0532727 -0.010933 0)
(0.056278 -0.0115706 0)
(0.0593108 -0.0121693 0)
(0.062358 -0.0127207 0)
(0.0654052 -0.0132166 0)
(0.0684363 -0.0136487 0)
(0.0714345 -0.0140089 0)
(0.0743816 -0.0142895 0)
(0.0772586 -0.0144831 0)
(0.0800461 -0.0145832 0)
(0.0827246 -0.0145841 0)
(0.0852747 -0.0144813 0)
(0.0876784 -0.0142722 0)
(0.0899191 -0.0139555 0)
(0.0919826 -0.0135323 0)
(0.0938579 -0.0130057 0)
(0.0955374 -0.0123811 0)
(0.0970174 -0.0116658 0)
(0.0982983 -0.0108691 0)
(0.0993843 -0.0100017 0)
(0.100283 -0.00907516 0)
(0.101005 -0.00810168 0)
(0.101563 -0.00709335 0)
(0.101971 -0.00606183 0)
(0.102244 -0.00501796 0)
(0.102395 -0.00397152 0)
(0.102439 -0.00293112 0)
(0.102387 -0.00190417 0)
(0.102249 -0.000896969 0)
(0.102034 8.51183e-05 0)
(0.101748 0.00103746 0)
(0.101394 0.00195592 0)
(0.100973 0.00283662 0)
(0.100486 0.00367568 0)
(0.0999306 0.00446908 0)
(0.0993021 0.00521246 0)
(0.0985956 0.00590102 0)
(0.0978045 0.00652953 0)
(0.0969214 0.00709229 0)
(0.0959386 0.00758332 0)
(0.0948483 0.00799647 0)
(0.0936433 0.0083257 0)
(0.0923178 0.00856543 0)
(0.090868 0.00871091 0)
(0.0892929 0.00875869 0)
(0.0875949 0.00870712 0)
(0.0857813 0.00855673 0)
(0.0838643 0.00831057 0)
(0.0818616 0.0079743 0)
(0.0797968 0.00755618 0)
(0.0776983 0.00706683 0)
(0.0755989 0.00651875 0)
(0.0735338 0.00592568 0)
(0.0715387 0.00530171 0)
(0.0696477 0.00466044 0)
(0.0678909 0.00401403 0)
(0.066293 0.00337261 0)
(0.0648718 0.00274387 0)
(0.0636384 0.00213303 0)
(0.0625969 0.00154314 0)
(0.0617457 0.000975617 0)
(0.0610787 0.000430828 0)
(0.0605863 -9.12748e-05 0)
(0.0602564 -0.000590686 0)
(0.0600761 -0.00106701 0)
(0.0600312 -0.00151928 0)
(0.0601078 -0.0019459 0)
(0.0602919 -0.00234472 0)
(0.0605697 -0.00271308 0)