/*--------------------------------*- C++ -*----------------------------------*\
| =========                 |                                                 |
| \\      /  F ield         | OpenFOAM: The Open Source CFD Toolbox           |
|  \\    /   O peration     | Version:  4.1                                   |
|   \\  /    A nd           | Web:      www.OpenFOAM.org                      |
|    \\/     M anipulation  |                                                 |
\*---------------------------------------------------------------------------*/
FoamFile
{
    version     2.0;
    format      ascii;
    class       volVectorField;
    location    "500";
    object      U;
}
// * * * * * * * * * * * * * * * * * * * * * * * * * * * * * * * * * * * * * //

dimensions      [0 1 -1 0 0 0 0];

internalField   nonuniform List<vector> 
3264
(
(-2.62558e-06 -5.08171e-07 0)
(-0.000133086 3.05371e-05 0)
(-0.000389716 4.86421e-05 0)
(-0.000677073 5.09783e-05 0)
(-0.000979213 5.27047e-05 0)
(-0.00128554 5.21119e-05 0)
(-0.00159075 5.34176e-05 0)
(-0.00189623 5.40697e-05 0)
(-0.00219742 5.51875e-05 0)
(-0.00249509 5.58334e-05 0)
(-0.0027867 5.64196e-05 0)
(-0.00307253 5.67044e-05 0)
(-0.00335159 5.68538e-05 0)
(-0.00362406 5.68347e-05 0)
(-0.00388973 5.67267e-05 0)
(-0.00414885 5.65501e-05 0)
(-0.00440157 5.63532e-05 0)
(-0.00464823 5.61657e-05 0)
(-0.00488915 5.60232e-05 0)
(-0.00512473 5.59548e-05 0)
(-0.00535538 5.5989e-05 0)
(-0.00558149 5.61509e-05 0)
(-0.00580345 5.64628e-05 0)
(-0.00602162 5.69423e-05 0)
(-0.00623628 5.76016e-05 0)
(-0.00644762 5.84453e-05 0)
(-0.00665571 5.94689e-05 0)
(-0.00686048 6.06568e-05 0)
(-0.00706165 6.19798e-05 0)
(-0.00725875 6.33942e-05 0)
(-0.00745102 6.48396e-05 0)
(-0.00763746 6.62388e-05 0)
(-0.00781677 6.74978e-05 0)
(-0.00798733 6.8507e-05 0)
(-0.00814722 6.91438e-05 0)
(-0.00829422 6.92759e-05 0)
(-0.00842583 6.87662e-05 0)
(-0.00853931 6.74785e-05 0)
(-0.00863172 6.52833e-05 0)
(-0.00869998 6.20643e-05 0)
(-0.00874093 5.77249e-05 0)
(-0.00875143 5.2193e-05 0)
(-0.00872841 4.54262e-05 0)
(-0.00866894 3.74152e-05 0)
(-0.00857036 2.81853e-05 0)
(-0.0084303 1.77974e-05 0)
(-0.00824678 6.34711e-06 0)
(-0.00801825 -6.03713e-06 0)
(-0.00774367 -1.91974e-05 0)
(-0.00742253 -3.29501e-05 0)
(-0.00705486 -4.70908e-05 0)
(-0.0066413 -6.13991e-05 0)
(-0.00618306 -7.56445e-05 0)
(-0.00568195 -8.95917e-05 0)
(-0.00514032 -0.000103006 0)
(-0.00456109 -0.00011566 0)
(-0.00394767 -0.000127338 0)
(-0.00330395 -0.000137839 0)
(-0.00263423 -0.000146986 0)
(-0.00194314 -0.000154628 0)
(-0.00123564 -0.000160642 0)
(-0.000516872 -0.000164937 0)
(0.000207872 -0.000167459 0)
(0.000933237 -0.000168189 0)
(0.00165389 -0.000167145 0)
(0.0023646 -0.000164382 0)
(0.00306032 -0.000159989 0)
(0.00373627 -0.00015409 0)
(0.00438798 -0.000146835 0)
(0.00501142 -0.0001384 0)
(0.00560298 -0.00012898 0)
(0.00615956 -0.000118783 0)
(0.0066786 -0.000108024 0)
(0.0071581 -9.69201e-05 0)
(0.00759664 -8.56799e-05 0)
(0.00799334 -7.45024e-05 0)
(0.00834789 -6.35693e-05 0)
(0.00866049 -5.30418e-05 0)
(0.00893182 -4.30569e-05 0)
(0.009163 -3.37256e-05 0)
(0.00935554 -2.51319e-05 0)
(0.00951127 -1.73332e-05 0)
(0.00963227 -1.03616e-05 0)
(0.00972086 -4.22571e-06 0)
(0.00977947 1.08618e-06 0)
(0.00981064 5.60309e-06 0)
(0.00981694 9.36781e-06 0)
(0.00980094 1.24334e-05 0)
(0.00976515 1.48599e-05 0)
(0.00971201 1.67112e-05 0)
(0.00964385 1.80524e-05 0)
(0.00956288 1.89475e-05 0)
(0.00947116 1.94581e-05 0)
(0.0093706 1.96414e-05 0)
(0.00926295 1.95502e-05 0)
(0.00914981 1.92317e-05 0)
(0.00903263 1.87281e-05 0)
(0.0089127 1.8076e-05 0)
(0.00879118 1.73072e-05 0)
(0.00866909 1.64489e-05 0)
(0.00854731 1.55241e-05 0)
(0.00842664 1.45523e-05 0)
(0.00830774 1.35499e-05 0)
(0.00819119 1.25305e-05 0)
(0.00807748 1.15056e-05 0)
(0.00796703 1.04846e-05 0)
(0.00786017 9.47545e-06 0)
(0.00775718 8.48476e-06 0)
(0.00765829 7.51795e-06 0)
(0.00756366 6.5795e-06 0)
(0.00747343 5.67306e-06 0)
(0.0073877 4.80156e-06 0)
(0.00730651 3.96732e-06 0)
(0.00722991 3.17206e-06 0)
(0.00715788 2.41704e-06 0)
(0.00709043 1.70303e-06 0)
(0.00702751 1.0304e-06 0)
(0.00696907 3.9913e-07 0)
(0.00691505 -1.91134e-07 0)
(0.00686538 -7.41072e-07 0)
(0.00681997 -1.25165e-06 0)
(0.00677873 -1.72409e-06 0)
(0.00674157 -2.15984e-06 0)
(0.00670838 -2.56055e-06 0)
(0.00667907 -2.92805e-06 0)
(0.00665353 -3.26429e-06 0)
(0.00663167 -3.57136e-06 0)
(0.00661336 -3.8514e-06 0)
(0.00659852 -4.10664e-06 0)
(0.00658704 -4.33931e-06 0)
(0.00657883 -4.55166e-06 0)
(0.00657379 -4.74592e-06 0)
(0.00657183 -4.9243e-06 0)
(0.00657286 -5.08892e-06 0)
(0.00657681 -5.24186e-06 0)
(0.00658359 -5.38512e-06 0)
(0.00659314 -5.5206e-06 0)
(0.00660538 -5.65011e-06 0)
(0.00662025 -5.77536e-06 0)
(0.0066377 -5.89795e-06 0)
(0.00665768 -6.01939e-06 0)
(0.00668012 -6.14105e-06 0)
(0.006705 -6.2642e-06 0)
(0.00673227 -6.39001e-06 0)
(0.00676189 -6.51949e-06 0)
(0.00679383 -6.65357e-06 0)
(0.00682806 -6.79302e-06 0)
(0.00686455 -6.93847e-06 0)
(0.00690327 -7.09041e-06 0)
(0.00694418 -7.24915e-06 0)
(0.00698727 -7.41486e-06 0)
(0.00703249 -7.5875e-06 0)
(0.00707982 -7.76682e-06 0)
(0.0071292 -7.95239e-06 0)
(0.00718061 -8.14351e-06 0)
(0.00723399 -8.33927e-06 0)
(0.00728927 -8.5385e-06 0)
(0.0073464 -8.73978e-06 0)
(0.00740529 -8.9414e-06 0)
(0.00746586 -9.14144e-06 0)
(0.007528 -9.3377e-06 0)
(0.0075916 -9.52775e-06 0)
(0.00765653 -9.70897e-06 0)
(0.00772264 -9.87854e-06 0)
(0.00778977 -1.00335e-05 0)
(0.00785775 -1.01709e-05 0)
(0.00792639 -1.02875e-05 0)
(0.00799547 -1.03804e-05 0)
(0.00806477 -1.04467e-05 0)
(0.00813405 -1.04835e-05 0)
(0.00820307 -1.04885e-05 0)
(0.00827156 -1.04593e-05 0)
(0.00833924 -1.03941e-05 0)
(0.00840585 -1.02918e-05 0)
(0.0084711 -1.01514e-05 0)
(0.00853471 -9.97261e-06 0)
(0.00859639 -9.75591e-06 0)
(0.00865588 -9.50221e-06 0)
(0.00871291 -9.2131e-06 0)
(0.00876722 -8.89081e-06 0)
(0.0088186 -8.5381e-06 0)
(0.00886682 -8.15831e-06 0)
(0.00891171 -7.75524e-06 0)
(0.0089531 -7.33309e-06 0)
(0.00899088 -6.89639e-06 0)
(0.00902494 -6.44981e-06 0)
(0.00905525 -5.9981e-06 0)
(0.00908179 -5.54592e-06 0)
(0.00910457 -5.09704e-06 0)
(0.00912366 -4.65661e-06 0)
(0.00913915 -4.21982e-06 0)
(0.00915116 -3.80787e-06 0)
(0.00915986 -3.35059e-06 0)
(0.00916524 -3.00691e-06 0)
(0.00916809 -2.33371e-06 0)
(0.00916635 -2.13811e-06 0)
(0.0091659 -7.65519e-07 0)
(0.00915192 9.16345e-08 0)
(0.0091545 1.34948e-06 0)
(0.00911501 1.23837e-05 0)
(-8.34031e-05 0.000136293 0)
(-0.000583273 0.000379211 0)
(-0.00131229 0.000518463 0)
(-0.00208776 0.000562785 0)
(-0.00286869 0.000584059 0)
(-0.00363831 0.000586143 0)
(-0.00438337 0.000586533 0)
(-0.00510684 0.000580376 0)
(-0.00580163 0.000572089 0)
(-0.00647007 0.000560684 0)
(-0.00710958 0.000547978 0)
(-0.00772175 0.000534187 0)
(-0.00830641 0.000520068 0)
(-0.00886489 0.000505895 0)
(-0.0093979 0.00049199 0)
(-0.00990665 0.000478527 0)
(-0.0103921 0.000465652 0)
(-0.0108552 0.000453454 0)
(-0.011297 0.00044199 0)
(-0.0117181 0.000431283 0)
(-0.0121193 0.000421322 0)
(-0.0125011 0.00041206 0)
(-0.0128636 0.000403408 0)
(-0.0132071 0.000395236 0)
(-0.0135312 0.000387359 0)
(-0.0138354 0.000379543 0)
(-0.0141189 0.000371494 0)
(-0.0143805 0.000362864 0)
(-0.0146184 0.000353249 0)
(-0.0148307 0.000342195 0)
(-0.015015 0.000329208 0)
(-0.0151684 0.000313767 0)
(-0.0152878 0.000295335 0)
(-0.0153697 0.00027338 0)
(-0.0154102 0.000247396 0)
(-0.0154056 0.000216918 0)
(-0.0153516 0.00018155 0)
(-0.0152442 0.000140979 0)
(-0.0150793 9.49932e-05 0)
(-0.0148531 4.34977e-05 0)
(-0.0145619 -1.34781e-05 0)
(-0.0142025 -7.57736e-05 0)
(-0.013772 -0.000143096 0)
(-0.0132681 -0.000215024 0)
(-0.0126889 -0.000291015 0)
(-0.0120334 -0.000370413 0)
(-0.0113011 -0.000452464 0)
(-0.0104921 -0.00053633 0)
(-0.00960735 -0.000621107 0)
(-0.00864855 -0.00070584 0)
(-0.00761804 -0.00078954 0)
(-0.00651891 -0.000871206 0)
(-0.00535493 -0.000949835 0)
(-0.00413054 -0.00102445 0)
(-0.00285079 -0.0010941 0)
(-0.00152133 -0.0011579 0)
(-0.000148319 -0.00121502 0)
(0.00126159 -0.00126471 0)
(0.00270136 -0.00130632 0)
(0.0041636 -0.0013393 0)
(0.00564066 -0.00136322 0)
(0.00712472 -0.00137777 0)
(0.00860785 -0.00138277 0)
(0.0100821 -0.00137819 0)
(0.0115397 -0.00136413 0)
(0.0129728 -0.00134082 0)
(0.0143741 -0.00130864 0)
(0.0157365 -0.00126809 0)
(0.0170534 -0.0012198 0)
(0.0183185 -0.0011645 0)
(0.0195264 -0.00110301 0)
(0.020672 -0.00103622 0)
(0.021751 -0.000965099 0)
(0.02276 -0.000890618 0)
(0.023696 -0.000813775 0)
(0.0245571 -0.000735555 0)
(0.0253417 -0.000656915 0)
(0.0260493 -0.00057876 0)
(0.0266799 -0.00050193 0)
(0.0272344 -0.000427188 0)
(0.0277139 -0.000355205 0)
(0.0281203 -0.000286554 0)
(0.0284562 -0.000221707 0)
(0.0287242 -0.000161034 0)
(0.0289276 -0.000104804 0)
(0.0290698 -5.31885e-05 0)
(0.0291547 -6.27218e-06 0)
(0.029186 3.59423e-05 0)
(0.0291679 7.35231e-05 0)
(0.0291044 0.000106599 0)
(0.0289995 0.000135347 0)
(0.0288574 0.000159986 0)
(0.028682 0.000180761 0)
(0.0284771 0.000197939 0)
(0.0282464 0.000211798 0)
(0.0279935 0.00022262 0)
(0.0277217 0.000230685 0)
(0.0274342 0.000236267 0)
(0.0271339 0.000239629 0)
(0.0268236 0.000241021 0)
(0.0265058 0.000240677 0)
(0.0261827 0.000238814 0)
(0.0258566 0.000235634 0)
(0.0255293 0.000231319 0)
(0.0252026 0.000226036 0)
(0.024878 0.000219936 0)
(0.0245569 0.000213153 0)
(0.0242406 0.000205807 0)
(0.0239302 0.000198006 0)
(0.0236265 0.000189844 0)
(0.0233306 0.000181405 0)
(0.023043 0.000172762 0)
(0.0227644 0.000163979 0)
(0.0224953 0.000155114 0)
(0.0222362 0.000146213 0)
(0.0219875 0.000137319 0)
(0.0217495 0.000128468 0)
(0.0215224 0.000119691 0)
(0.0213064 0.000111013 0)
(0.0211016 0.000102457 0)
(0.0209082 9.40401e-05 0)
(0.0207261 8.57775e-05 0)
(0.0205555 7.76807e-05 0)
(0.0203962 6.97585e-05 0)
(0.0202483 6.20175e-05 0)
(0.0201117 5.4462e-05 0)
(0.0199862 4.70946e-05 0)
(0.0198718 3.99157e-05 0)
(0.0197684 3.29245e-05 0)
(0.0196757 2.61184e-05 0)
(0.0195937 1.9494e-05 0)
(0.0195222 1.30462e-05 0)
(0.019461 6.76936e-06 0)
(0.0194099 6.56766e-07 0)
(0.0193688 -5.29893e-06 0)
(0.0193375 -1.11056e-05 0)
(0.0193157 -1.67716e-05 0)
(0.0193033 -2.23054e-05 0)
(0.0193002 -2.77157e-05 0)
(0.0193061 -3.30109e-05 0)
(0.0193209 -3.81993e-05 0)
(0.0193444 -4.32888e-05 0)
(0.0193765 -4.82867e-05 0)
(0.0194168 -5.31995e-05 0)
(0.0194654 -5.80328e-05 0)
(0.019522 -6.27913e-05 0)
(0.0195865 -6.74783e-05 0)
(0.0196587 -7.20959e-05 0)
(0.0197384 -7.66444e-05 0)
(0.0198254 -8.11228e-05 0)
(0.0199197 -8.5528e-05 0)
(0.020021 -8.9855e-05 0)
(0.0201292 -9.40968e-05 0)
(0.020244 -9.8244e-05 0)
(0.0203652 -0.000102285 0)
(0.0204926 -0.000106206 0)
(0.020626 -0.000109991 0)
(0.0207651 -0.000113621 0)
(0.0209096 -0.000117076 0)
(0.0210592 -0.000120331 0)
(0.0212135 -0.000123362 0)
(0.0213723 -0.000126143 0)
(0.021535 -0.000128643 0)
(0.0217013 -0.000130834 0)
(0.0218707 -0.000132686 0)
(0.0220427 -0.000134166 0)
(0.0222168 -0.000135246 0)
(0.0223924 -0.000135894 0)
(0.0225689 -0.000136082 0)
(0.0227457 -0.000135786 0)
(0.022922 -0.00013498 0)
(0.0230974 -0.000133646 0)
(0.0232709 -0.000131767 0)
(0.023442 -0.000129335 0)
(0.0236098 -0.000126343 0)
(0.0237737 -0.000122793 0)
(0.0239329 -0.000118695 0)
(0.0240867 -0.000114062 0)
(0.0242343 -0.000108919 0)
(0.0243752 -0.000103295 0)
(0.0245087 -9.72299e-05 0)
(0.0246341 -9.07688e-05 0)
(0.0247509 -8.3965e-05 0)
(0.0248586 -7.68781e-05 0)
(0.0249569 -6.95734e-05 0)
(0.0250454 -6.21212e-05 0)
(0.0251239 -5.45954e-05 0)
(0.0251921 -4.70709e-05 0)
(0.0252501 -3.96244e-05 0)
(0.0252979 -3.23272e-05 0)
(0.0253356 -2.52452e-05 0)
(0.0253635 -1.84556e-05 0)
(0.0253819 -1.19008e-05 0)
(0.0253913 -5.93884e-06 0)
(0.0253919 4.5707e-07 0)
(0.0253847 4.92699e-06 0)
(0.0253703 1.27301e-05 0)
(0.0253459 1.64605e-05 0)
(0.0253254 2.31665e-05 0)
(0.0252724 4.54245e-05 0)
(-0.000179021 0.000645393 0)
(-0.00104397 0.00125488 0)
(-0.00216984 0.0015343 0)
(-0.00330851 0.00157634 0)
(-0.00439864 0.0015723 0)
(-0.00542965 0.00153002 0)
(-0.00638592 0.0014876 0)
(-0.00727859 0.00143665 0)
(-0.0081043 0.00138504 0)
(-0.00887124 0.00133117 0)
(-0.00958085 0.00127759 0)
(-0.0102383 0.00122453 0)
(-0.010846 0.00117285 0)
(-0.0114075 0.00112279 0)
(-0.011925 0.0010746 0)
(-0.0124008 0.00102833 0)
(-0.0128367 0.000983962 0)
(-0.0132341 0.000941412 0)
(-0.0135943 0.000900524 0)
(-0.0139179 0.000861085 0)
(-0.0142055 0.00082282 0)
(-0.0144574 0.000785391 0)
(-0.0146732 0.000748391 0)
(-0.0148525 0.000711338 0)
(-0.0149945 0.000673677 0)
(-0.015098 0.000634779 0)
(-0.0151615 0.000593945 0)
(-0.015183 0.000550418 0)
(-0.0151604 0.000503394 0)
(-0.0150913 0.00045204 0)
(-0.0149729 0.000395519 0)
(-0.0148023 0.000333013 0)
(-0.0145765 0.000263753 0)
(-0.0142923 0.000187044 0)
(-0.0139465 0.000102296 0)
(-0.013536 9.05128e-06 0)
(-0.0130578 -9.29967e-05 0)
(-0.0125091 -0.00020398 0)
(-0.0118874 -0.000323844 0)
(-0.0111906 -0.000452341 0)
(-0.0104169 -0.000589023 0)
(-0.00956486 -0.000733249 0)
(-0.00863379 -0.000884192 0)
(-0.00762339 -0.00104085 0)
(-0.00653393 -0.00120206 0)
(-0.00536629 -0.00136653 0)
(-0.00412197 -0.00153283 0)
(-0.00280303 -0.00169947 0)
(-0.00141219 -0.00186484 0)
(4.72578e-05 -0.00202732 0)
(0.00157141 -0.00218525 0)
(0.00315581 -0.00233698 0)
(0.00479543 -0.00248088 0)
(0.00648473 -0.00261535 0)
(0.00821768 -0.00273889 0)
(0.00998782 -0.00285008 0)
(0.0117883 -0.0029476 0)
(0.0136118 -0.00303028 0)
(0.0154509 -0.0030971 0)
(0.0172979 -0.00314722 0)
(0.0191449 -0.00317997 0)
(0.0209839 -0.00319491 0)
(0.0228069 -0.0031918 0)
(0.0246061 -0.00317062 0)
(0.0263738 -0.00313158 0)
(0.0281024 -0.00307514 0)
(0.0297849 -0.00300197 0)
(0.0314145 -0.00291294 0)
(0.0329849 -0.00280915 0)
(0.0344904 -0.00269186 0)
(0.0359259 -0.00256249 0)
(0.0372869 -0.0024226 0)
(0.0385696 -0.00227384 0)
(0.0397707 -0.0021179 0)
(0.040888 -0.00195654 0)
(0.0419197 -0.00179149 0)
(0.0428647 -0.00162445 0)
(0.0437225 -0.00145706 0)
(0.0444936 -0.00129085 0)
(0.0451785 -0.00112725 0)
(0.0457787 -0.000967571 0)
(0.0462959 -0.00081295 0)
(0.0467325 -0.00066439 0)
(0.0470909 -0.00052273 0)
(0.0473741 -0.000388656 0)
(0.0475855 -0.000262695 0)
(0.0477282 -0.00014523 0)
(0.0478061 -3.65059e-05 0)
(0.0478228 6.33612e-05 0)
(0.0477821 0.000154368 0)
(0.0476879 0.000236614 0)
(0.0475442 0.000310284 0)
(0.0473548 0.000375638 0)
(0.0471236 0.000432997 0)
(0.0468543 0.000482729 0)
(0.0465507 0.000525237 0)
(0.0462163 0.000560952 0)
(0.0458546 0.000590318 0)
(0.045469 0.000613789 0)
(0.0450626 0.000631815 0)
(0.0446385 0.000644843 0)
(0.0441996 0.000653307 0)
(0.0437486 0.000657624 0)
(0.0432881 0.000658195 0)
(0.0428205 0.000655398 0)
(0.042348 0.000649589 0)
(0.0418728 0.000641101 0)
(0.0413969 0.000630243 0)
(0.040922 0.0006173 0)
(0.0404499 0.000602534 0)
(0.039982 0.000586186 0)
(0.0395199 0.000568475 0)
(0.0390648 0.000549601 0)
(0.0386179 0.000529743 0)
(0.0381803 0.000509067 0)
(0.037753 0.00048772 0)
(0.0373369 0.000465834 0)
(0.0369328 0.000443531 0)
(0.0365415 0.000420917 0)
(0.0361636 0.000398089 0)
(0.0357997 0.000375134 0)
(0.0354502 0.000352129 0)
(0.0351157 0.000329143 0)
(0.0347965 0.000306235 0)
(0.0344929 0.000283461 0)
(0.0342052 0.000260865 0)
(0.0339336 0.00023849 0)
(0.0336783 0.00021637 0)
(0.0334394 0.000194533 0)
(0.0332169 0.000173005 0)
(0.033011 0.000151805 0)
(0.0328215 0.000130949 0)
(0.0326485 0.000110447 0)
(0.0324919 9.03067e-05 0)
(0.0323516 7.05337e-05 0)
(0.0322274 5.1129e-05 0)
(0.0321193 3.20917e-05 0)
(0.0320269 1.34189e-05 0)
(0.0319502 -4.8941e-06 0)
(0.0318889 -2.28532e-05 0)
(0.0318429 -4.0465e-05 0)
(0.0318118 -5.77367e-05 0)
(0.0317954 -7.46752e-05 0)
(0.0317934 -9.12869e-05 0)
(0.0318056 -0.000107577 0)
(0.0318318 -0.00012355 0)
(0.0318715 -0.000139208 0)
(0.0319246 -0.00015455 0)
(0.0319906 -0.000169573 0)
(0.0320694 -0.000184271 0)
(0.0321604 -0.000198635 0)
(0.0322636 -0.000212649 0)
(0.0323783 -0.000226297 0)
(0.0325044 -0.000239554 0)
(0.0326413 -0.000252394 0)
(0.0327888 -0.000264784 0)
(0.0329463 -0.000276686 0)
(0.0331134 -0.000288056 0)
(0.0332897 -0.000298848 0)
(0.0334746 -0.000309007 0)
(0.0336675 -0.000318477 0)
(0.0338681 -0.000327197 0)
(0.0340755 -0.000335101 0)
(0.0342892 -0.000342121 0)
(0.0345086 -0.000348188 0)
(0.0347329 -0.000353231 0)
(0.0349614 -0.000357179 0)
(0.0351932 -0.000359964 0)
(0.0354276 -0.000361517 0)
(0.0356638 -0.000361777 0)
(0.0359008 -0.000360686 0)
(0.0361377 -0.000358195 0)
(0.0363736 -0.000354262 0)
(0.0366076 -0.000348857 0)
(0.0368386 -0.000341959 0)
(0.0370657 -0.000333562 0)
(0.0372879 -0.000323677 0)
(0.0375042 -0.000312327 0)
(0.0377136 -0.000299553 0)
(0.0379152 -0.000285416 0)
(0.0381081 -0.000269992 0)
(0.0382914 -0.00025338 0)
(0.0384641 -0.000235693 0)
(0.0386257 -0.000217064 0)
(0.0387753 -0.000197646 0)
(0.0389124 -0.000177603 0)
(0.0390364 -0.000157115 0)
(0.039147 -0.000136375 0)
(0.0392437 -0.000115582 0)
(0.0393265 -9.49345e-05 0)
(0.0393952 -7.46434e-05 0)
(0.0394499 -5.48791e-05 0)
(0.039491 -3.58394e-05 0)
(0.0395186 -1.76925e-05 0)
(0.0395332 -2.4189e-07 0)
(0.0395359 1.53509e-05 0)
(0.0395262 3.23198e-05 0)
(0.039507 4.4447e-05 0)
(0.0394791 6.04238e-05 0)
(0.0394314 8.16296e-05 0)
(-0.000305853 0.00126234 0)
(-0.00151771 0.00231662 0)
(-0.00287274 0.00272554 0)
(-0.004141 0.0027364 0)
(-0.00524112 0.0026654 0)
(-0.00622226 0.00253732 0)
(-0.00707055 0.00240972 0)
(-0.00781952 0.00227616 0)
(-0.00847063 0.00214765 0)
(-0.00904051 0.00202273 0)
(-0.00953428 0.00190371 0)
(-0.00996075 0.00179021 0)
(-0.0103246 0.00168233 0)
(-0.0106308 0.00157965 0)
(-0.0108829 0.00148174 0)
(-0.0110836 0.00138808 0)
(-0.0112352 0.00129816 0)
(-0.0113393 0.0012114 0)
(-0.0113969 0.00112723 0)
(-0.0114087 0.00104503 0)
(-0.011375 0.000964171 0)
(-0.0112957 0.000883945 0)
(-0.0111702 0.000803611 0)
(-0.0109979 0.000722368 0)
(-0.0107775 0.000639358 0)
(-0.0105079 0.000553671 0)
(-0.0101875 0.000464353 0)
(-0.00981439 0.00037042 0)
(-0.00938682 0.000270875 0)
(-0.0089027 0.000164735 0)
(-0.00835994 5.10523e-05 0)
(-0.0077564 -7.10539e-05 0)
(-0.00709 -0.000202367 0)
(-0.00635871 -0.000343542 0)
(-0.00556064 -0.000495081 0)
(-0.0046941 -0.000657304 0)
(-0.0037576 -0.000830326 0)
(-0.00274995 -0.00101405 0)
(-0.00167027 -0.00120813 0)
(-0.000518038 -0.00141201 0)
(0.000706871 -0.00162489 0)
(0.00200417 -0.00184574 0)
(0.00337314 -0.00207331 0)
(0.00481258 -0.00230614 0)
(0.00632082 -0.00254263 0)
(0.00789571 -0.00278097 0)
(0.0095346 -0.00301926 0)
(0.0112343 -0.00325544 0)
(0.0129913 -0.00348742 0)
(0.0148013 -0.00371303 0)
(0.0166597 -0.00393008 0)
(0.0185615 -0.00413637 0)
(0.020501 -0.00432976 0)
(0.0224723 -0.00450816 0)
(0.0244691 -0.00466957 0)
(0.0264845 -0.00481212 0)
(0.0285116 -0.00493409 0)
(0.0305429 -0.00503395 0)
(0.032571 -0.00511035 0)
(0.0345882 -0.00516222 0)
(0.0365868 -0.00518872 0)
(0.038559 -0.0051893 0)
(0.0404973 -0.00516373 0)
(0.0423941 -0.00511206 0)
(0.0442424 -0.00503468 0)
(0.0460352 -0.00493231 0)
(0.0477662 -0.00480598 0)
(0.0494296 -0.00465702 0)
(0.05102 -0.00448703 0)
(0.0525328 -0.00429789 0)
(0.053964 -0.00409167 0)
(0.0553104 -0.00387062 0)
(0.0565695 -0.00363712 0)
(0.0577394 -0.00339363 0)
(0.0588191 -0.00314263 0)
(0.0598081 -0.00288659 0)
(0.0607067 -0.00262791 0)
(0.0615157 -0.00236889 0)
(0.0622364 -0.00211169 0)
(0.0628707 -0.00185828 0)
(0.0634208 -0.00161048 0)
(0.0638892 -0.00136988 0)
(0.0642789 -0.00113784 0)
(0.064593 -0.000915535 0)
(0.0648346 -0.000703904 0)
(0.0650071 -0.000503687 0)
(0.0651141 -0.000315424 0)
(0.065159 -0.000139477 0)
(0.0651453 2.39601e-05 0)
(0.0650766 0.000174841 0)
(0.0649563 0.000313251 0)
(0.0647878 0.000439385 0)
(0.0645744 0.000553535 0)
(0.0643195 0.000656073 0)
(0.0640261 0.000747429 0)
(0.0636973 0.000828086 0)
(0.0633362 0.000898561 0)
(0.0629455 0.000959394 0)
(0.0625281 0.00101114 0)
(0.0620866 0.00105436 0)
(0.0616235 0.00108961 0)
(0.0611414 0.00111745 0)
(0.0606426 0.0011384 0)
(0.0601294 0.00115299 0)
(0.0596038 0.00116172 0)
(0.0590681 0.00116506 0)
(0.0585241 0.00116346 0)
(0.0579737 0.00115736 0)
(0.0574188 0.00114715 0)
(0.056861 0.00113321 0)
(0.056302 0.00111589 0)
(0.0557434 0.00109551 0)
(0.0551866 0.00107238 0)
(0.054633 0.00104678 0)
(0.0540841 0.00101897 0)
(0.0535411 0.000989196 0)
(0.0530052 0.000957671 0)
(0.0524775 0.000924606 0)
(0.0519593 0.000890194 0)
(0.0514515 0.000854611 0)
(0.0509551 0.000818022 0)
(0.0504711 0.000780583 0)
(0.0500003 0.000742434 0)
(0.0495436 0.000703711 0)
(0.0491017 0.000664536 0)
(0.0486753 0.000625025 0)
(0.0482651 0.000585286 0)
(0.0478717 0.000545419 0)
(0.0474956 0.000505514 0)
(0.0471374 0.000465658 0)
(0.0467973 0.000425926 0)
(0.0464759 0.000386391 0)
(0.0461734 0.000347116 0)
(0.0458901 0.000308158 0)
(0.0456262 0.000269567 0)
(0.0453817 0.000231389 0)
(0.0451569 0.000193662 0)
(0.0449518 0.000156422 0)
(0.0447663 0.000119696 0)
(0.0446005 8.35092e-05 0)
(0.0444542 4.78839e-05 0)
(0.0443273 1.2838e-05 0)
(0.0442196 -2.16124e-05 0)
(0.044131 -5.54527e-05 0)
(0.0440611 -8.8669e-05 0)
(0.0440098 -0.000121248 0)
(0.0439767 -0.000153174 0)
(0.0439614 -0.000184431 0)
(0.0439637 -0.000215001 0)
(0.0439831 -0.000244863 0)
(0.0440192 -0.00027399 0)
(0.0440716 -0.000302353 0)
(0.0441398 -0.000329916 0)
(0.0442233 -0.00035664 0)
(0.0443217 -0.000382477 0)
(0.0444343 -0.000407373 0)
(0.0445607 -0.000431271 0)
(0.0447002 -0.000454102 0)
(0.0448522 -0.000475793 0)
(0.0450161 -0.000496264 0)
(0.0451911 -0.00051543 0)
(0.0453766 -0.000533198 0)
(0.0455719 -0.000549471 0)
(0.0457762 -0.00056415 0)
(0.0459886 -0.00057713 0)
(0.0462084 -0.000588306 0)
(0.0464347 -0.000597572 0)
(0.0466666 -0.000604826 0)
(0.0469032 -0.000609966 0)
(0.0471436 -0.000612898 0)
(0.0473867 -0.000613533 0)
(0.0476316 -0.000611793 0)
(0.0478773 -0.000607612 0)
(0.0481227 -0.000600937 0)
(0.0483668 -0.000591732 0)
(0.0486086 -0.000579978 0)
(0.0488469 -0.000565679 0)
(0.0490808 -0.000548859 0)
(0.0493091 -0.000529566 0)
(0.049531 -0.000507877 0)
(0.0497452 -0.000483891 0)
(0.049951 -0.00045774 0)
(0.0501473 -0.000429581 0)
(0.0503332 -0.0003996 0)
(0.050508 -0.000368012 0)
(0.0506708 -0.000335058 0)
(0.0508209 -0.000301004 0)
(0.0509578 -0.00026614 0)
(0.051081 -0.000230773 0)
(0.05119 -0.000195227 0)
(0.0512845 -0.00015983 0)
(0.0513645 -0.00012492 0)
(0.0514297 -9.08063e-05 0)
(0.0514805 -5.78149e-05 0)
(0.051517 -2.61366e-05 0)
(0.0515395 3.75696e-06 0)
(0.0515488 3.26974e-05 0)
(0.0515462 5.78843e-05 0)
(0.0515314 8.48628e-05 0)
(0.0515016 0.000109623 0)
(-0.000405277 0.00247101 0)
(-0.0017198 0.00379851 0)
(-0.00298828 0.00414393 0)
(-0.00405124 0.00389313 0)
(-0.00482769 0.00362068 0)
(-0.00542844 0.00331894 0)
(-0.00585029 0.00305583 0)
(-0.00615267 0.00281023 0)
(-0.00634462 0.00258718 0)
(-0.00645208 0.00238041 0)
(-0.00648328 0.00218873 0)
(-0.00644988 0.00200961 0)
(-0.00635734 0.0018414 0)
(-0.00621131 0.00168246 0)
(-0.00601504 0.00153137 0)
(-0.00577135 0.00138684 0)
(-0.00548193 0.00124768 0)
(-0.00514802 0.0011128 0)
(-0.00477026 0.000981145 0)
(-0.00434886 0.000851708 0)
(-0.00388367 0.000723484 0)
(-0.00337422 0.000595471 0)
(-0.00281974 0.00046665 0)
(-0.00221926 0.000335984 0)
(-0.00157161 0.000202415 0)
(-0.000875458 6.48659e-05 0)
(-0.000129357 -7.77476e-05 0)
(0.000668209 -0.000226504 0)
(0.0015188 -0.000382458 0)
(0.00242395 -0.000546614 0)
(0.00338519 -0.000719904 0)
(0.00440392 -0.000903157 0)
(0.00548145 -0.00109707 0)
(0.00661891 -0.00130217 0)
(0.00781725 -0.00151882 0)
(0.00907717 -0.00174715 0)
(0.0103991 -0.00198707 0)
(0.0117833 -0.00223824 0)
(0.0132295 -0.00250006 0)
(0.0147373 -0.00277169 0)
(0.0163057 -0.00305201 0)
(0.0179337 -0.00333968 0)
(0.0196196 -0.0036331 0)
(0.0213613 -0.00393046 0)
(0.0231564 -0.00422974 0)
(0.0250021 -0.00452876 0)
(0.0268951 -0.00482516 0)
(0.0288316 -0.00511649 0)
(0.0308074 -0.00540017 0)
(0.0328179 -0.00567357 0)
(0.0348581 -0.00593404 0)
(0.0369224 -0.00617892 0)
(0.039005 -0.00640559 0)
(0.0410995 -0.00661149 0)
(0.0431995 -0.00679421 0)
(0.0452978 -0.00695146 0)
(0.0473874 -0.00708114 0)
(0.0494609 -0.00718141 0)
(0.0515107 -0.00725067 0)
(0.0535294 -0.00728765 0)
(0.0555094 -0.00729138 0)
(0.0574434 -0.0072613 0)
(0.0593242 -0.00719723 0)
(0.061145 -0.0070994 0)
(0.0628995 -0.00696847 0)
(0.0645818 -0.0068055 0)
(0.0661866 -0.006612 0)
(0.0677095 -0.00638986 0)
(0.0691465 -0.0061413 0)
(0.0704946 -0.00586891 0)
(0.0717515 -0.00557549 0)
(0.0729159 -0.0052641 0)
(0.073987 -0.00493788 0)
(0.074965 -0.0046001 0)
(0.0758506 -0.00425401 0)
(0.0766453 -0.0039028 0)
(0.077351 -0.00354955 0)
(0.0779703 -0.00319718 0)
(0.0785059 -0.00284839 0)
(0.0789612 -0.00250566 0)
(0.0793395 -0.00217119 0)
(0.0796444 -0.00184689 0)
(0.0798796 -0.0015344 0)
(0.0800489 -0.00123509 0)
(0.0801559 -0.000950024 0)
(0.0802044 -0.000680028 0)
(0.080198 -0.000425681 0)
(0.0801401 -0.000187339 0)
(0.0800342 3.48382e-05 0)
(0.0798834 0.000240866 0)
(0.079691 0.000430909 0)
(0.0794597 0.000605264 0)
(0.0791924 0.000764329 0)
(0.0788918 0.000908591 0)
(0.0785603 0.0010386 0)
(0.0782004 0.00115497 0)
(0.0778143 0.00125833 0)
(0.0774041 0.00134934 0)
(0.0769719 0.00142868 0)
(0.0765196 0.00149701 0)
(0.0760489 0.00155502 0)
(0.0755617 0.00160334 0)
(0.0750595 0.00164262 0)
(0.074544 0.00167347 0)
(0.0740166 0.00169647 0)
(0.0734789 0.00171219 0)
(0.0729321 0.00172115 0)
(0.0723776 0.00172385 0)
(0.0718167 0.00172077 0)
(0.0712507 0.00171234 0)
(0.0706808 0.00169897 0)
(0.0701081 0.00168103 0)
(0.0695338 0.0016589 0)
(0.068959 0.00163289 0)
(0.0683849 0.00160331 0)
(0.0678124 0.00157044 0)
(0.0672427 0.00153455 0)
(0.0666767 0.00149589 0)
(0.0661156 0.00145467 0)
(0.0655603 0.00141113 0)
(0.0650117 0.00136546 0)
(0.064471 0.00131785 0)
(0.063939 0.00126848 0)
(0.0634166 0.00121754 0)
(0.0629049 0.00116518 0)
(0.0624046 0.00111158 0)
(0.0619166 0.00105687 0)
(0.0614418 0.00100122 0)
(0.060981 0.000944763 0)
(0.060535 0.000887645 0)
(0.0601044 0.00083 0)
(0.05969 0.000771956 0)
(0.0592924 0.00071364 0)
(0.0589123 0.000655172 0)
(0.05855 0.000596664 0)
(0.0582063 0.000538228 0)
(0.0578814 0.000479964 0)
(0.0575758 0.000421971 0)
(0.0572897 0.000364339 0)
(0.0570235 0.000307154 0)
(0.0567773 0.000250497 0)
(0.0565513 0.000194442 0)
(0.0563456 0.000139059 0)
(0.0561601 8.44147e-05 0)
(0.0559949 3.05725e-05 0)
(0.0558499 -2.24077e-05 0)
(0.0557248 -7.44672e-05 0)
(0.0556196 -0.000125548 0)
(0.055534 -0.000175593 0)
(0.0554676 -0.000224543 0)
(0.0554201 -0.000272336 0)
(0.0553912 -0.000318909 0)
(0.0553804 -0.000364195 0)
(0.0553873 -0.000408122 0)
(0.0554113 -0.000450611 0)
(0.0554519 -0.00049158 0)
(0.0555085 -0.000530939 0)
(0.0555804 -0.000568593 0)
(0.0556671 -0.000604438 0)
(0.0557678 -0.000638366 0)
(0.0558818 -0.000670262 0)
(0.0560084 -0.000700003 0)
(0.0561467 -0.000727465 0)
(0.056296 -0.000752518 0)
(0.0564554 -0.000775029 0)
(0.056624 -0.000794865 0)
(0.056801 -0.000811892 0)
(0.0569854 -0.00082598 0)
(0.0571763 -0.000837003 0)
(0.0573728 -0.000844842 0)
(0.0575738 -0.000849387 0)
(0.0577784 -0.000850538 0)
(0.0579856 -0.000848214 0)
(0.0581943 -0.000842346 0)
(0.0584036 -0.000832889 0)
(0.0586125 -0.000819816 0)
(0.0588199 -0.000803129 0)
(0.0590248 -0.000782856 0)
(0.0592263 -0.000759052 0)
(0.0594234 -0.000731808 0)
(0.0596152 -0.000701244 0)
(0.0598006 -0.000667517 0)
(0.059979 -0.000630818 0)
(0.0601493 -0.000591377 0)
(0.0603108 -0.000549455 0)
(0.0604628 -0.000505353 0)
(0.0606046 -0.000459402 0)
(0.0607356 -0.000411968 0)
(0.0608552 -0.000363444 0)
(0.0609629 -0.000314247 0)
(0.0610585 -0.000264814 0)
(0.0611416 -0.000215596 0)
(0.061212 -0.000167035 0)
(0.0612698 -0.000119603 0)
(0.0613149 -7.36527e-05 0)
(0.0613476 -2.97053e-05 0)
(0.0613685 1.2237e-05 0)
(0.0613778 5.09432e-05 0)
(0.0613762 8.89544e-05 0)
(0.0613619 0.000123451 0)
(-0.000693966 0.00309514 0)
(-0.00209228 0.00472402 0)
(-0.00255421 0.00495338 0)
(-0.00279075 0.00450639 0)
(-0.00262341 0.00403402 0)
(-0.00237141 0.00356726 0)
(-0.0019727 0.00316307 0)
(-0.00151151 0.0028047 0)
(-0.000978798 0.00248766 0)
(-0.000399798 0.00220329 0)
(0.000223928 0.00194497 0)
(0.000883498 0.00170783 0)
(0.0015768 0.0014875 0)
(0.00230048 0.00128084 0)
(0.00305344 0.00108507 0)
(0.00383461 0.000897982 0)
(0.00464383 0.000717636 0)
(0.00548117 0.000542368 0)
(0.00634714 0.000370658 0)
(0.00724248 0.000201124 0)
(0.00816818 3.24552e-05 0)
(0.00912541 -0.000136596 0)
(0.0101155 -0.000307244 0)
(0.0111398 -0.000480678 0)
(0.0121998 -0.000658067 0)
(0.0132971 -0.000840559 0)
(0.0144333 -0.00102928 0)
(0.0156098 -0.0012253 0)
(0.0168281 -0.00142965 0)
(0.0180896 -0.00164328 0)
(0.0193955 -0.00186704 0)
(0.020747 -0.00210164 0)
(0.022145 -0.00234765 0)
(0.0235901 -0.00260547 0)
(0.0250828 -0.00287527 0)
(0.0266234 -0.00315702 0)
(0.0282117 -0.00345043 0)
(0.0298474 -0.00375496 0)
(0.0315298 -0.00406979 0)
(0.0332578 -0.00439382 0)
(0.03503 -0.0047257 0)
(0.0368447 -0.0050638 0)
(0.0386997 -0.00540622 0)
(0.0405924 -0.00575084 0)
(0.0425199 -0.00609529 0)
(0.0444789 -0.00643703 0)
(0.0464653 -0.00677332 0)
(0.0484752 -0.00710128 0)
(0.0505037 -0.00741792 0)
(0.0525457 -0.00772017 0)
(0.0545958 -0.00800491 0)
(0.056648 -0.00826903 0)
(0.0586961 -0.00850945 0)
(0.0607333 -0.00872319 0)
(0.0627528 -0.0089074 0)
(0.0647475 -0.00905941 0)
(0.06671 -0.00917682 0)
(0.068633 -0.0092575 0)
(0.070509 -0.00929967 0)
(0.0723309 -0.00930194 0)
(0.0740916 -0.00926336 0)
(0.0757845 -0.00918348 0)
(0.0774034 -0.00906233 0)
(0.0789427 -0.00890049 0)
(0.0803975 -0.00869907 0)
(0.0817638 -0.00845971 0)
(0.0830382 -0.00818459 0)
(0.0842186 -0.00787634 0)
(0.0853033 -0.00753804 0)
(0.0862922 -0.00717312 0)
(0.0871856 -0.0067853 0)
(0.087985 -0.00637849 0)
(0.0886924 -0.00595674 0)
(0.0893108 -0.0055241 0)
(0.0898436 -0.00508456 0)
(0.0902946 -0.00464198 0)
(0.0906681 -0.00420001 0)
(0.0909687 -0.00376203 0)
(0.0912008 -0.00333113 0)
(0.0913693 -0.00291004 0)
(0.0914785 -0.00250114 0)
(0.0915331 -0.00210647 0)
(0.0915372 -0.00172769 0)
(0.0914949 -0.00136613 0)
(0.0914101 -0.00102278 0)
(0.0912861 -0.000698339 0)
(0.0911264 -0.000393246 0)
(0.0909338 -0.000107686 0)
(0.0907112 0.000158364 0)
(0.090461 0.000405107 0)
(0.0901855 0.000632898 0)
(0.0898867 0.000842219 0)
(0.0895665 0.00103365 0)
(0.0892265 0.00120785 0)
(0.0888684 0.00136553 0)
(0.0884935 0.00150745 0)