/*--------------------------------*- C++ -*----------------------------------*\
| =========                 |                                                 |
| \\      /  F ield         | OpenFOAM: The Open Source CFD Toolbox           |
|  \\    /   O peration     | Version:  4.1                                   |
|   \\  /    A nd           | Web:      www.OpenFOAM.org                      |
|    \\/     M anipulation  |                                                 |
\*---------------------------------------------------------------------------*/
FoamFile
{
    version     2.0;
    format      ascii;
    class       volScalarField;
    location    "3150";
    object      p;
}
// * * * * * * * * * * * * * * * * * * * * * * * * * * * * * * * * * * * * * //

dimensions      [1 -1 -2 0 0 0 0];

internalField   nonuniform List<scalar> 
1275
(
0.711995
0.711995
0.711995
0.711995
0.711994
0.711994
0.711993
0.711993
0.711992
0.711993
0.711992
0.711993
0.711992
0.711993
0.711993
0.711993
0.711994
0.711995
0.711995
0.711996
0.711997
0.711998
0.711999
0.712001
0.712002
0.712004
0.712006
0.712008
0.71201
0.712012
0.712015
0.712018
0.71202
0.712023
0.712026
0.71203
0.712033
0.712037
0.71204
0.712044
0.712048
0.712053
0.712057
0.712061
0.712066
0.712071
0.712076
0.712082
0.712087
0.712093
0.712098
0.712104
0.712111
0.712117
0.712124
0.712131
0.712138
0.712145
0.712152
0.71216
0.712168
0.712177
0.712185
0.712195
0.712204
0.712214
0.712224
0.712235
0.712246
0.712258
0.712271
0.712285
0.712299
0.712315
0.712331
0.712349
0.712369
0.71239
0.712413
0.712439
0.712466
0.712496
0.712529
0.712564
0.712603
0.712644
0.712689
0.712737
0.712788
0.712841
0.712897
0.712956
0.713016
0.713077
0.71314
0.713202
0.713263
0.713323
0.713381
0.713436
0.713488
0.713536
0.71358
0.713619
0.713653
0.713682
0.713706
0.713725
0.713739
0.713749
0.713754
0.713755
0.713753
0.713748
0.71374
0.71373
0.713718
0.713705
0.71369
0.713675
0.71366
0.713644
0.711994
0.711994
0.711994
0.711994
0.711993
0.711994
0.711993
0.711994
0.711993
0.711994
0.711993
0.711994
0.711993
0.711994
0.711994
0.711994
0.711995
0.711995
0.711996
0.711997
0.711998
0.711999
0.712
0.712002
0.712003
0.712005
0.712007
0.712009
0.712011
0.712013
0.712015
0.712018
0.712021
0.712024
0.712027
0.71203
0.712033
0.712037
0.712041
0.712045
0.712049
0.712053
0.712057
0.712062
0.712067
0.712072
0.712077
0.712082
0.712088
0.712093
0.712099
0.712105
0.712111
0.712118
0.712124
0.712131
0.712138
0.712146
0.712153
0.712161
0.712169
0.712178
0.712186
0.712196
0.712205
0.712215
0.712225
0.712236
0.712248
0.71226
0.712272
0.712286
0.7123
0.712316
0.712332
0.71235
0.71237
0.71239
0.712413
0.712438
0.712465
0.712495
0.712527
0.712562
0.712599
0.71264
0.712684
0.712732
0.712782
0.712835
0.712891
0.71295
0.71301
0.713071
0.713133
0.713195
0.713257
0.713317
0.713375
0.71343
0.713482
0.71353
0.713574
0.713613
0.713647
0.713676
0.713701
0.71372
0.713734
0.713743
0.713749
0.71375
0.713748
0.713743
0.713736
0.713726
0.713714
0.713701
0.713687
0.713672
0.713656
0.713641
0.711997
0.711997
0.711996
0.711996
0.711995
0.711995
0.711994
0.711994
0.711993
0.711994
0.711993
0.711993
0.711993
0.711993
0.711993
0.711994
0.711994
0.711995
0.711996
0.711997
0.711997
0.711999
0.712
0.712001
0.712003
0.712005
0.712006
0.712008
0.71201
0.712013
0.712015
0.712018
0.712021
0.712024
0.712027
0.71203
0.712033
0.712037
0.712041
0.712045
0.712049
0.712053
0.712057
0.712062
0.712067
0.712072
0.712077
0.712082
0.712087
0.712093
0.712099
0.712105
0.712111
0.712118
0.712124
0.712131
0.712138
0.712145
0.712153
0.712161
0.712169
0.712177
0.712186
0.712195
0.712205
0.712214
0.712225
0.712235
0.712247
0.712259
0.712271
0.712285
0.712299
0.712314
0.712331
0.712348
0.712367
0.712388
0.71241
0.712435
0.712461
0.712491
0.712522
0.712557
0.712594
0.712635
0.712679
0.712726
0.712776
0.712829
0.712885
0.712943
0.713003
0.713065
0.713127
0.713189
0.713251
0.713311
0.713369
0.713424
0.713476
0.713524
0.713568
0.713607
0.713641
0.71367
0.713694
0.713713
0.713727
0.713736
0.713742
0.713743
0.713741
0.713736
0.713728
0.713718
0.713707
0.713694
0.71368
0.713665
0.71365
0.713635
0.711993
0.711993
0.711992
0.711994
0.711993
0.711994
0.711993
0.711994
0.711993
0.711994
0.711993
0.711994
0.711993
0.711994
0.711994
0.711994
0.711995
0.711995
0.711996
0.711997
0.711998
0.711999
0.712
0.712001
0.712003
0.712005
0.712006
0.712008
0.71201
0.712013
0.712015
0.712018
0.712021
0.712023
0.712027
0.71203
0.712033
0.712037
0.71204
0.712044
0.712048
0.712053
0.712057
0.712062
0.712066
0.712071
0.712076
0.712082
0.712087
0.712093
0.712099
0.712105
0.712111
0.712118
0.712124
0.712131
0.712138
0.712145
0.712153
0.712161
0.712169
0.712177
0.712186
0.712195
0.712205
0.712214
0.712225
0.712235
0.712246
0.712258
0.712271
0.712284
0.712298
0.712313
0.712329
0.712346
0.712365
0.712385
0.712407
0.71243
0.712457
0.712485
0.712516
0.71255
0.712587
0.712628
0.712671
0.712718
0.712768
0.712821
0.712876
0.712934
0.712994
0.713055
0.713117
0.713179
0.71324
0.7133
0.713357
0.713412
0.713463
0.713511
0.713553
0.713592
0.713625
0.713653
0.713676
0.713694
0.713708
0.713717
0.713722
0.713723
0.713721
0.713716
0.713708
0.713699
0.713687
0.713675
0.713661
0.713647
0.713633
0.713618
0.711999
0.711999
0.711997
0.711997
0.711995
0.711995
0.711993
0.711994
0.711992
0.711993
0.711992
0.711992
0.711992
0.711992
0.711992
0.711993
0.711993
0.711994
0.711995
0.711995
0.711996
0.711998
0.711999
0.712
0.712002
0.712004
0.712005
0.712007
0.71201
0.712012
0.712014
0.712017
0.71202
0.712023
0.712026
0.712029
0.712032
0.712036
0.71204
0.712044
0.712048
0.712052
0.712056
0.712061
0.712066
0.712071
0.712076
0.712081
0.712087
0.712092
0.712098
0.712104
0.71211
0.712117
0.712124
0.71213
0.712137
0.712145
0.712152
0.71216
0.712168
0.712176
0.712185
0.712194
0.712203
0.712213
0.712223
0.712234
0.712245
0.712256
0.712269
0.712282
0.712295
0.71231
0.712326
0.712343
0.712361
0.712381
0.712403
0.712427
0.712453
0.712481
0.712513
0.712547
0.712584
0.712624
0.712667
0.712714
0.712764
0.712816
0.712872
0.712929
0.712988
0.713049
0.71311
0.71317
0.71323
0.713288
0.713344
0.713397
0.713447
0.713492
0.713533
0.713569
0.713601
0.713627
0.713649
0.713666
0.713678
0.713686
0.71369
0.713691
0.713688
0.713683
0.713676
0.713666
0.713656
0.713644
0.713631
0.713618
0.713605
0.713591
0.711987
0.71199
0.711987
0.711991
0.711989
0.711992
0.71199
0.711992
0.711991
0.711992
0.711991
0.711992
0.711992
0.711992
0.711992
0.711993
0.711993
0.711994
0.711994
0.711995
0.711996
0.711997
0.711998
0.712
0.712001
0.712003
0.712005
0.712007
0.712009
0.712011
0.712014
0.712016
0.712019
0.712022
0.712025
0.712029
0.712032
0.712036
0.712039
0.712043
0.712047
0.712052
0.712056
0.712061
0.712065
0.71207
0.712075
0.712081
0.712086
0.712092
0.712098
0.712104
0.71211
0.712116
0.712123
0.71213
0.712137
0.712144
0.712152
0.712159
0.712167
0.712176
0.712184
0.712193
0.712202
0.712212
0.712222
0.712233
0.712244
0.712255
0.712267
0.71228
0.712294
0.712309
0.712324
0.712341
0.71236
0.71238
0.712401
0.712425
0.712451
0.71248
0.712511
0.712545
0.712582
0.712623
0.712666
0.712712
0.712762
0.712814
0.712868
0.712925
0.712982
0.713041
0.7131
0.713159
0.713216
0.713272
0.713325
0.713374
0.713421
0.713463
0.713501
0.713534
0.713563
0.713586
0.713606
0.71362
0.713631
0.713637
0.713641
0.71364
0.713638
0.713632
0.713625
0.713616
0.713607
0.713596
0.713584
0.713573
0.713561
0.713549
0.711999
0.711999
0.711995
0.711996
0.711992
0.711993
0.71199
0.711991
0.711989
0.71199
0.711989
0.711989
0.711989
0.71199
0.71199
0.71199
0.711991
0.711992
0.711992
0.711994
0.711995
0.711996
0.711997
0.711999
0.712
0.712002
0.712004
0.712006
0.712008
0.712011
0.712013
0.712016
0.712018
0.712022
0.712025
0.712028
0.712031
0.712035
0.712039
0.712043
0.712047
0.712051
0.712055
0.71206
0.712065
0.71207
0.712075
0.71208
0.712086
0.712091
0.712097
0.712103
0.712109
0.712116
0.712122
0.712129
0.712136
0.712143
0.712151
0.712159
0.712167
0.712175
0.712184
0.712192
0.712202
0.712211
0.712221
0.712232
0.712243
0.712255
0.712267
0.71228
0.712294
0.712309
0.712325
0.712342
0.712361
0.712381
0.712404
0.712428
0.712455
0.712484
0.712516
0.71255
0.712587
0.712628
0.712671
0.712717
0.712766
0.712817
0.71287
0.712924
0.71298
0.713036
0.713092
0.713147
0.713201
0.713252
0.713301
0.713346
0.713388
0.713425
0.713459
0.713488
0.713512
0.713532
0.713548
0.71356
0.713568
0.713573
0.713575
0.713574
0.713571
0.713566
0.713559
0.713551
0.713543
0.713534
0.713524
0.713514
0.713505
0.713496
0.711967
0.711981
0.711976
0.711986
0.711983
0.711989
0.711987
0.71199
0.711988
0.71199
0.711989
0.71199
0.71199
0.711991
0.711991
0.711991
0.711992
0.711992
0.711993
0.711994
0.711995
0.711996
0.711997
0.711999
0.712
0.712002
0.712004
0.712006
0.712008
0.71201
0.712013
0.712016
0.712018
0.712021
0.712024
0.712028
0.712031
0.712035
0.712038
0.712043
0.712046
0.712051
0.712055
0.71206
0.712064
0.71207
0.712075
0.71208
0.712085
0.712091
0.712097
0.712103
0.712109
0.712116
0.712122
0.712129
0.712136
0.712144
0.712151
0.712159
0.712167
0.712175
0.712184
0.712193
0.712203
0.712212
0.712223
0.712234
0.712245
0.712257
0.71227
0.712283
0.712298
0.712313
0.71233
0.712348
0.712368
0.712389
0.712412
0.712437
0.712465
0.712494
0.712527
0.712562
0.712599
0.712639
0.712682
0.712727
0.712775
0.712824
0.712875
0.712927
0.712979
0.713031
0.713082
0.713132
0.713181
0.713226
0.713269
0.713309
0.713344
0.713376
0.713404
0.713428
0.713447
0.713463
0.713476
0.713484
0.71349
0.713493
0.713494
0.713492
0.713489
0.713485
0.713479
0.713473
0.713466
0.713459
0.713452
0.713445
0.713438
0.713432
0.711991
0.711998
0.711991
0.711992
0.711987
0.711989
0.711986
0.711987
0.711986
0.711987
0.711987
0.711987
0.711987
0.711988
0.711988
0.711989
0.71199
0.711991
0.711992
0.711993
0.711994
0.711995
0.711997
0.711998
0.712
0.712002
0.712004
0.712006
0.712008
0.71201
0.712013
0.712016
0.712018
0.712021
0.712025
0.712028
0.712031
0.712035
0.712039
0.712043
0.712047
0.712051
0.712056
0.71206
0.712065
0.71207
0.712075
0.712081
0.712086
0.712092
0.712098
0.712104
0.71211
0.712117
0.712124
0.712131
0.712138
0.712145
0.712153
0.712161
0.71217
0.712179
0.712188
0.712197
0.712207
0.712217
0.712228
0.71224
0.712252
0.712265
0.712279
0.712293
0.712309
0.712325
0.712343
0.712363
0.712384
0.712406
0.712431
0.712457
0.712485
0.712516
0.712549
0.712584
0.712622
0.712662
0.712704
0.712748
0.712793
0.712839
0.712887
0.712934
0.712982
0.713029
0.713074
0.713118
0.713159
0.713198
0.713234
0.713266
0.713295
0.71332
0.713342
0.71336
0.713375
0.713386
0.713395
0.713401
0.713404
0.713406
0.713406
0.713404
0.713402
0.713399
0.713395
0.713391
0.713386
0.713382
0.713378
0.713374
0.71337
0.713367
0.711889
0.71197
0.711965
0.711989
0.711984
0.711992
0.711989
0.711993
0.711991
0.711992
0.711991
0.711992
0.711992
0.711992
0.711992
0.711993
0.711993
0.711994
0.711994
0.711995
0.711996
0.711997
0.711998
0.712
0.712001
0.712003
0.712005
0.712007
0.712009
0.712011
0.712014
0.712016
0.712019
0.712022
0.712025
0.712029
0.712032
0.712036
0.71204
0.712044
0.712048
0.712053
0.712057
0.712062
0.712066
0.712072
0.712077
0.712083
0.712088
0.712094
0.7121
0.712107
0.712114
0.71212
0.712128
0.712135
0.712143
0.712151
0.712159
0.712168
0.712177
0.712186
0.712196
0.712207
0.712218
0.712229
0.712241
0.712254
0.712267
0.712281
0.712297
0.712313
0.71233
0.712348
0.712368
0.712389
0.712412
0.712436
0.712462
0.712489
0.712519
0.71255
0.712584
0.712619
0.712656
0.712695
0.712735
0.712776
0.712818
0.712861
0.712904
0.712946
0.712987
0.713027
0.713066
0.713102
0.713136
0.713167
0.713195
0.71322
0.713241
0.71326
0.713276
0.713289
0.713299
0.713307
0.713313
0.713317
0.713319
0.71332
0.71332
0.71332
0.713318
0.713317
0.713315
0.713313
0.713312
0.71331
0.713309
0.713308
0.713308
0.713308
0.712247
0.712205
0.712197
0.712156
0.712143
0.7121
0.712085
0.712034
0.712024
0.711951
0.711968
0.711995
0.711989
0.711994
0.711989
0.711991
0.711988
0.71199
0.711988
0.71199
0.711989
0.71199
0.711989
0.71199
0.71199
0.711991
0.711992
0.711993
0.711994
0.711995
0.711996
0.711997
0.711998
0.712
0.712002
0.712004
0.712005
0.712008
0.71201
0.712012
0.712015
0.712018
0.712021
0.712024
0.712027
0.712031
0.712034
0.712038
0.712042
0.712046
0.712051
0.712055
0.71206
0.712065
0.712071
)
;

boundaryField
{
    inlet
    {
        type            zeroGradient;
    }
    outlet
    {
        type            fixedValue;
        value           nonuniform 0();
    }
    walls
    {
        type            zeroGradient;
    }
    symwall
    {
        type            empty;
    }
    procBoundary0to1
    {
        type            processor;
        value           nonuniform List<scalar> 10(0.713629 0.713626 0.71362 0.713604 0.713578 0.713538 0.713487 0.713426 0.713364 0.713309);
    }
    procBoundary0to2
    {
        type            processor;
        value           nonuniform List<scalar> 
133
(
0.712076
0.712082
0.712088
0.712094
0.7121
0.712107
0.712114
0.712121
0.712129
0.712137
0.712145
0.712153
0.712162
0.712172
0.712182
0.712192
0.712203
0.712214
0.712226
0.712238
0.712251
0.712265
0.71228
0.712295
0.712311
0.712328
0.712347
0.712366
0.712386
0.712408
0.712431
0.712456
0.712482
0.712509
0.712538
0.712568
0.7126
0.712633
0.712668
0.712703
0.71274
0.712777
0.712815
0.712853
0.71289
0.712927
0.712962
0.712997
0.713029
0.71306
0.713088
0.713114
0.713138
0.713158
0.713176
0.713192
0.713205
0.713216
0.713225
0.713232
0.713237
0.713241
0.713244
0.713246
0.713248
0.713249
0.71325
0.71325
0.713251
0.713252
0.713253
0.713254
0.713255
0.713256
0.713258
0.71326
0.713263
0.712256
0.712208
0.712201
0.712158
0.712146
0.712102
0.712086
0.712035
0.71202
0.711951
0.711928
0.711979
0.711972
0.711994
0.711989
0.711997
0.711994
0.711997
0.711995
0.711996
0.711995
0.711995
0.711994
0.711995
0.711994
0.711995
0.711995
0.711996
0.711996
0.711997
0.711998
0.711999
0.712
0.712002
0.712003
0.712005
0.712007
0.712009
0.712012
0.712014
0.712017
0.71202
0.712023
0.712026
0.71203
0.712034
0.712038
0.712042
0.712046
0.712051
0.712056
0.712061
0.712066
0.712072
0.712076
0.712077
)
;
    }
}


// ************************************************************************* //
