/*--------------------------------*- C++ -*----------------------------------*\
| =========                 |                                                 |
| \\      /  F ield         | OpenFOAM: The Open Source CFD Toolbox           |
|  \\    /   O peration     | Version:  4.1                                   |
|   \\  /    A nd           | Web:      www.OpenFOAM.org                      |
|    \\/     M anipulation  |                                                 |
\*---------------------------------------------------------------------------*/
FoamFile
{
    version     2.0;
    format      ascii;
    class       volVectorField;
    location    "5850";
    object      U;
}
// * * * * * * * * * * * * * * * * * * * * * * * * * * * * * * * * * * * * * //

dimensions      [0 1 -1 0 0 0 0];

internalField   nonuniform List<vector> 
1275
(
(0.07641 -5.70143e-05 0)
(0.0766115 -0.000118063 0)
(0.0764734 -0.000216473 0)
(0.0767145 -0.000274973 0)
(0.076702 -0.000328093 0)
(0.077016 -0.000420222 0)
(0.0771227 -0.000439992 0)
(0.0775454 -0.000603035 0)
(0.0777871 -0.000627048 0)
(0.0784313 -0.000854886 0)
(0.112436 -3.97428e-05 0)
(0.112616 -0.000129916 0)
(0.112484 -0.00025857 0)
(0.112671 -0.000341684 0)
(0.112622 -0.000451854 0)
(0.112852 -0.000552069 0)
(0.112873 -0.000665513 0)
(0.113168 -0.000801383 0)
(0.113242 -0.000980432 0)
(0.113586 -0.00112896 0)
(0.136447 -3.2374e-05 0)
(0.136616 -0.000149407 0)
(0.136478 -0.000281622 0)
(0.13663 -0.000400885 0)
(0.136549 -0.000519461 0)
(0.136712 -0.000662104 0)
(0.13668 -0.000776939 0)
(0.13687 -0.000962434 0)
(0.136875 -0.00109885 0)
(0.137073 -0.00131522 0)
(0.148452 -2.80663e-05 0)
(0.148612 -0.000150316 0)
(0.14846 -0.000281283 0)
(0.148579 -0.000406145 0)
(0.14846 -0.000537987 0)
(0.148557 -0.000677402 0)
(0.14846 -0.000821578 0)
(0.148547 -0.000984401 0)
(0.148447 -0.00116438 0)
(0.148509 -0.00133839 0)
(0.148453 -2.29291e-05 0)
(0.148607 -0.000147087 0)
(0.148438 -0.000258708 0)
(0.148527 -0.000392195 0)
(0.148369 -0.000507218 0)
(0.14841 -0.000656546 0)
(0.148255 -0.000778561 0)
(0.148256 -0.00094817 0)
(0.148086 -0.00108523 0)
(0.148035 -0.00125978 0)
(0.136449 -1.56932e-05 0)
(0.136598 -0.000124253 0)
(0.136407 -0.000208539 0)
(0.136467 -0.000328645 0)
(0.136271 -0.000426029 0)
(0.136259 -0.00055675 0)
(0.136045 -0.000667267 0)
(0.135969 -0.000808463 0)
(0.135717 -0.000934909 0)
(0.13557 -0.00107689 0)
(0.112439 -3.34347e-06 0)
(0.112585 -9.50636e-05 0)
(0.11237 -0.000141149 0)
(0.112403 -0.000247831 0)
(0.112171 -0.000311587 0)
(0.112115 -0.000425628 0)
(0.11185 -0.000499119 0)
(0.111709 -0.000617266 0)
(0.111392 -0.00069822 0)
(0.111163 -0.000809708 0)
(0.0764173 2.71887e-05 0)
(0.076563 -3.47736e-05 0)
(0.0763162 -3.73475e-05 0)
(0.0763447 -0.000114778 0)
(0.0760819 -0.000145464 0)
(0.0760109 -0.000224407 0)
(0.0757061 -0.000265733 0)
(0.0755359 -0.000342664 0)
(0.0751683 -0.000389363 0)
(0.0748974 -0.00045945 0)
(0.0284323 6.12722e-05 0)
(0.0286344 3.07506e-05 0)
(0.0284831 4.74457e-05 0)
(0.0286015 2.9812e-06 0)
(0.0284151 4.1247e-08 0)
(0.0284242 -3.74292e-05 0)
(0.0281874 -4.09706e-05 0)
(0.0280942 -7.0917e-05 0)
(0.0278003 -7.23337e-05 0)
(0.0276168 -9.35465e-05 0)
(0.0757212 -0.0022694 0)
(0.0764548 -0.00234987 0)
(0.0771967 -0.00243901 0)
(0.0779495 -0.00253214 0)
(0.0787118 -0.00263321 0)
(0.0794876 -0.00274029 0)
(0.0802758 -0.00285566 0)
(0.0810796 -0.00297858 0)
(0.0818987 -0.0031106 0)
(0.0827356 -0.00325161 0)
(0.0835907 -0.00340279 0)
(0.084466 -0.0035644 0)
(0.0853622 -0.00373746 0)
(0.0862809 -0.00392244 0)
(0.087223 -0.00412028 0)
(0.0881898 -0.00433161 0)
(0.0891821 -0.00455731 0)
(0.090201 -0.00479809 0)
(0.091247 -0.0050548 0)
(0.092321 -0.00532816 0)
(0.0934231 -0.00561897 0)
(0.0945536 -0.00592791 0)
(0.0957123 -0.00625566 0)
(0.0968986 -0.00660278 0)
(0.0981118 -0.00696979 0)
(0.0993505 -0.00735703 0)
(0.100613 -0.00776471 0)
(0.101897 -0.00819284 0)
(0.1032 -0.00864122 0)
(0.104518 -0.00910938 0)
(0.105846 -0.00959654 0)
(0.107181 -0.0101016 0)
(0.108517 -0.0106229 0)
(0.109846 -0.0111586 0)
(0.111162 -0.0117063 0)
(0.112457 -0.0122628 0)
(0.113723 -0.0128248 0)
(0.11495 -0.0133882 0)
(0.116128 -0.0139483 0)
(0.117247 -0.0145 0)
(0.118296 -0.0150375 0)
(0.119264 -0.0155549 0)
(0.12014 -0.0160456 0)
(0.120914 -0.016503 0)
(0.121576 -0.0169203 0)
(0.122114 -0.0172908 0)
(0.122522 -0.0176079 0)
(0.12279 -0.0178655 0)
(0.122913 -0.0180581 0)
(0.122886 -0.0181808 0)
(0.122705 -0.0182298 0)
(0.122369 -0.0182023 0)
(0.12188 -0.0180965 0)
(0.12124 -0.0179123 0)
(0.120453 -0.0176504 0)
(0.119527 -0.0173134 0)
(0.118471 -0.0169048 0)
(0.117295 -0.0164294 0)
(0.116011 -0.0158931 0)
(0.114634 -0.0153026 0)
(0.113177 -0.0146652 0)
(0.111657 -0.0139889 0)
(0.110088 -0.0132816 0)
(0.108487 -0.0125512 0)
(0.10687 -0.0118055 0)
(0.105252 -0.0110518 0)
(0.103648 -0.0102971 0)
(0.102071 -0.00954762 0)
(0.100535 -0.00880874 0)
(0.0990486 -0.00808548 0)
(0.0976249 -0.00738134 0)
(0.0962688 -0.00670048 0)
(0.0949923 -0.0060436 0)
(0.0937924 -0.0054156 0)
(0.0926859 -0.00481209 0)
(0.0916565 -0.00424303 0)
(0.0907318 -0.00369275 0)
(0.0898785 -0.00318667 0)
(0.078914 -0.00117583 0)
(0.0787255 -0.00130138 0)
(0.079203 -0.00139013 0)
(0.0794419 -0.00149218 0)
(0.0799943 -0.00155791 0)
(0.0804399 -0.00163718 0)
(0.081031 -0.00168993 0)
(0.0815696 -0.00174631 0)
(0.0821794 -0.00178579 0)
(0.0827597 -0.00182441 0)
(0.0833755 -0.00185281 0)
(0.0839716 -0.00187916 0)
(0.0845846 -0.00189947 0)
(0.0851824 -0.00191787 0)
(0.0857867 -0.00193284 0)
(0.086378 -0.00194648 0)
(0.0869698 -0.00195836 0)
(0.0875502 -0.00196955 0)
(0.0881277 -0.0019801 0)
(0.0886949 -0.00199057 0)
(0.0892575 -0.00200118 0)
(0.0898108 -0.00201224 0)
(0.0903587 -0.00202402 0)
(0.0908984 -0.0020367 0)
(0.0914326 -0.00205058 0)
(0.0919597 -0.00206573 0)
(0.0924816 -0.00208248 0)
(0.0929975 -0.00210083 0)
(0.0935088 -0.00212116 0)
(0.0940152 -0.0021434 0)
(0.0945179 -0.00216798 0)
(0.0950169 -0.00219475 0)
(0.0955129 -0.00222427 0)
(0.0960069 -0.00225626 0)
(0.0964981 -0.00229143 0)
(0.09699 -0.0023294 0)
(0.0974778 -0.00237095 0)
(0.0979715 -0.00241581 0)
(0.098456 -0.00246447 0)
(0.098958 -0.0025174 0)
(0.0994355 -0.00257378 0)
(0.0999582 -0.00263649 0)
(0.100416 -0.00270066 0)
(0.100986 -0.00277622 0)
(0.101389 -0.00284603 0)
(0.101961 -0.00293546 0)
(0.102489 -0.00302373 0)
(0.103011 -0.00312008 0)
(0.103548 -0.00322256 0)
(0.104089 -0.00333356 0)
(0.104642 -0.00345203 0)
(0.105202 -0.00357965 0)
(0.105774 -0.00371606 0)
(0.106357 -0.0038625 0)
(0.106952 -0.00401905 0)
(0.107559 -0.00418671 0)
(0.108179 -0.0043658 0)
(0.108812 -0.00455719 0)
(0.109459 -0.00476135 0)
(0.11012 -0.00497908 0)
(0.110795 -0.00521092 0)
(0.111484 -0.00545759 0)
(0.112187 -0.00571964 0)
(0.112903 -0.00599773 0)
(0.113633 -0.00629234 0)
(0.114374 -0.006604 0)
(0.115126 -0.00693309 0)
(0.115887 -0.00727993 0)
(0.116655 -0.0076447 0)
(0.117428 -0.00802744 0)
(0.118203 -0.00842803 0)
(0.118976 -0.00884614 0)
(0.119744 -0.00928119 0)
(0.120503 -0.00973235 0)
(0.121247 -0.0101985 0)
(0.12197 -0.0106781 0)
(0.122667 -0.0111694 0)
(0.12333 -0.0116702 0)
(0.123952 -0.0121776 0)
(0.124524 -0.0126887 0)
(0.125038 -0.0131998 0)
(0.125485 -0.0137068 0)
(0.125856 -0.0142053 0)
(0.12614 -0.0146902 0)
(0.126328 -0.0151562 0)
(0.126409 -0.0155975 0)
(0.126375 -0.0160082 0)
(0.126216 -0.0163821 0)
(0.125923 -0.0167131 0)
(0.125489 -0.0169951 0)
(0.124908 -0.0172224 0)
(0.124174 -0.0173896 0)
(0.123283 -0.0174921 0)
(0.122235 -0.017526 0)
(0.121028 -0.0174884 0)
(0.119666 -0.0173775 0)
(0.118152 -0.0171927 0)
(0.116493 -0.0169345 0)
(0.114697 -0.0166049 0)
(0.112776 -0.016207 0)
(0.11074 -0.0157451 0)
(0.108604 -0.0152244 0)
(0.106385 -0.0146512 0)
(0.104099 -0.0140324 0)
(0.101763 -0.0133755 0)
(0.0993973 -0.0126886 0)
(0.0970197 -0.0119797 0)
(0.0946491 -0.0112568 0)
(0.0923038 -0.0105277 0)
(0.090001 -0.00979981 0)
(0.0877569 -0.00907963 0)
(0.0855863 -0.00837309 0)
(0.083502 -0.00768512 0)
(0.0815158 -0.00701975 0)
(0.0796363 -0.00638022 0)
(0.0778722 -0.00576847 0)
(0.0762275 -0.00518661 0)
(0.0747083 -0.00463411 0)
(0.0733137 -0.0041133 0)
(0.0720485 -0.0036201 0)
(0.0709068 -0.00315937 0)
(0.0698917 -0.00272196 0)
(0.0689974 -0.00231508 0)
(0.113674 -0.00165 0)
(0.113779 -0.00175398 0)
(0.114008 -0.00194291 0)
(0.114166 -0.00199135 0)
(0.114436 -0.00207108 0)
(0.114644 -0.00210629 0)
(0.114923 -0.00215137 0)
(0.115162 -0.00217979 0)
(0.115443 -0.00221007 0)
(0.115699 -0.00223208 0)
(0.115979 -0.00225346 0)
(0.116243 -0.0022697 0)
(0.116519 -0.00228485 0)
(0.116785 -0.00229655 0)
(0.117056 -0.00230744 0)
(0.117319 -0.0023161 0)
(0.117584 -0.00232444 0)
(0.117842 -0.00233156 0)
(0.1181 -0.00233888 0)
(0.118352 -0.00234583 0)
(0.118602 -0.00235348 0)
(0.118847 -0.00236145 0)
(0.119089 -0.00237058 0)
(0.119327 -0.00238061 0)
(0.119563 -0.0023922 0)
(0.119794 -0.00240519 0)
(0.120023 -0.00242012 0)
(0.120249 -0.00243684 0)
(0.120473 -0.00245589 0)
(0.120694 -0.00247707 0)
(0.120914 -0.00250101 0)
(0.12113 -0.00252734 0)
(0.121347 -0.00255692 0)
(0.121561 -0.00258909 0)
(0.121776 -0.00262517 0)
(0.121988 -0.00266386 0)
(0.122203 -0.00270739 0)
(0.122413 -0.00275329 0)
(0.12263 -0.00280546 0)
(0.122839 -0.00285916 0)
(0.123061 -0.00292154 0)
(0.123269 -0.00298343 0)
(0.123496 -0.00305806 0)
(0.123707 -0.00312854 0)
(0.123933 -0.00321655 0)
(0.124158 -0.00330018 0)
(0.124385 -0.00339696 0)
(0.124613 -0.00349822 0)
(0.124847 -0.0036083 0)
(0.125082 -0.00372591 0)
(0.125322 -0.00385217 0)
(0.125564 -0.00398741 0)
(0.125811 -0.00413206 0)
(0.12606 -0.00428679 0)
(0.126314 -0.00445195 0)
(0.12657 -0.00462825 0)
(0.126829 -0.00481607 0)
(0.127091 -0.00501608 0)
(0.127355 -0.0052287 0)
(0.127619 -0.00545451 0)
(0.127885 -0.00569395 0)
(0.128149 -0.00594752 0)
(0.128412 -0.00621556 0)
(0.128671 -0.00649848 0)
(0.128924 -0.00679649 0)
(0.129171 -0.00710981 0)
(0.129407 -0.00743848 0)
(0.129631 -0.00778245 0)
(0.129839 -0.00814149 0)
(0.130027 -0.00851521 0)
(0.130193 -0.008903 0)
(0.13033 -0.00930403 0)
(0.130434 -0.00971721 0)
(0.1305 -0.0101411 0)
(0.130522 -0.0105742 0)
(0.130493 -0.0110142 0)
(0.130406 -0.0114589 0)
(0.130253 -0.0119054 0)
(0.130028 -0.0123506 0)
(0.129722 -0.0127908 0)
(0.129326 -0.0132222 0)
(0.128832 -0.0136404 0)
(0.128231 -0.0140406 0)
(0.127516 -0.0144178 0)
(0.126677 -0.0147669 0)
(0.125707 -0.0150825 0)
(0.124599 -0.0153591 0)
(0.123346 -0.0155914 0)
(0.121945 -0.0157743 0)
(0.120391 -0.0159031 0)
(0.118681 -0.0159735 0)
(0.116816 -0.0159819 0)
(0.114795 -0.0159256 0)
(0.112624 -0.0158025 0)
(0.110307 -0.0156118 0)
(0.107852 -0.0153536 0)
(0.105268 -0.0150293 0)
(0.102568 -0.0146415 0)
(0.099766 -0.014194 0)
(0.0968783 -0.0136917 0)
(0.0939228 -0.0131408 0)
(0.090919 -0.0125482 0)
(0.0878873 -0.0119216 0)
(0.084849 -0.0112693 0)
(0.0818254 -0.0105994 0)
(0.0788377 -0.00992022 0)
(0.0759064 -0.00923961 0)
(0.0730511 -0.00856487 0)
(0.0702899 -0.00790247 0)
(0.0676394 -0.00725816 0)
(0.0651139 -0.00663661 0)
(0.0627258 -0.00604167 0)
(0.0604844 -0.00547613 0)
(0.0583978 -0.00494193 0)
(0.0564694 -0.0044402 0)
(0.0547033 -0.00397094 0)
(0.0530971 -0.00353432 0)
(0.0516519 -0.00312818 0)
(0.05036 -0.00275301 0)
(0.0492211 -0.00240372 0)
(0.0482239 -0.00208339 0)
(0.0473661 -0.00178221 0)
(0.0466373 -0.00150838 0)
(0.137118 -0.00154807 0)
(0.137105 -0.0016771 0)
(0.137151 -0.00184056 0)
(0.137137 -0.00193527 0)
(0.137201 -0.00204859 0)
(0.13722 -0.00212223 0)
(0.137294 -0.00220145 0)
(0.137337 -0.0022561 0)
(0.137412 -0.00231028 0)
(0.137466 -0.00234822 0)
(0.137537 -0.00238384 0)
(0.137594 -0.00240845 0)
(0.137658 -0.00243075 0)
(0.137711 -0.00244567 0)
(0.137767 -0.00245895 0)
(0.137814 -0.00246751 0)
(0.13786 -0.00247524 0)
(0.137899 -0.00248024 0)
(0.137936 -0.00248517 0)
(0.137967 -0.00248886 0)
(0.137994 -0.00249317 0)
(0.138015 -0.00249736 0)
(0.138034 -0.00250273 0)
(0.138047 -0.00250884 0)
(0.138056 -0.00251662 0)
(0.138061 -0.0025258 0)
(0.138062 -0.00253707 0)
(0.13806 -0.00255027 0)
(0.138054 -0.00256594 0)
(0.138044 -0.00258401 0)
(0.138031 -0.00260489 0)
(0.138014 -0.0026286 0)
(0.137995 -0.00265545 0)
(0.137972 -0.00268558 0)
(0.137946 -0.00271915 0)
(0.137918 -0.00275655 0)
(0.137887 -0.00279758 0)
(0.137853 -0.00284321 0)
(0.137815 -0.00289245 0)
(0.137776 -0.00294742 0)
(0.137733 -0.00300565 0)
(0.137688 -0.00307122 0)
(0.137641 -0.00313938 0)
(0.137588 -0.00321665 0)
(0.137536 -0.00329641 0)
(0.137476 -0.00338524 0)
(0.137417 -0.00348041 0)
(0.13735 -0.00358217 0)
(0.137283 -0.00369184 0)
(0.137208 -0.00380905 0)
(0.137131 -0.00393481 0)
(0.137046 -0.00406915 0)
(0.136957 -0.00421277 0)
(0.13686 -0.00436592 0)
(0.136756 -0.00452914 0)
(0.136643 -0.0047028 0)
(0.136521 -0.00488732 0)
(0.136388 -0.00508308 0)
(0.136243 -0.00529047 0)
(0.136084 -0.0055098 0)
(0.13591 -0.00574135 0)
(0.135718 -0.00598536 0)
(0.135507 -0.00624197 0)
(0.135273 -0.00651127 0)
(0.135015 -0.00679322 0)
(0.134729 -0.00708768 0)
(0.134412 -0.00739436 0)
(0.134059 -0.00771283 0)
(0.133668 -0.00804247 0)
(0.133234 -0.00838246 0)
(0.132751 -0.00873177 0)
(0.132216 -0.00908911 0)
(0.131622 -0.00945293 0)
(0.130963 -0.0098214 0)
(0.130233 -0.0101924 0)
(0.129427 -0.0105635 0)
(0.128536 -0.0109318 0)
(0.127555 -0.0112944 0)
(0.126475 -0.0116478 0)
(0.12529 -0.0119882 0)
(0.123993 -0.0123118 0)
(0.122577 -0.0126142 0)
(0.121035 -0.0128911 0)
(0.119361 -0.0131379 0)
(0.11755 -0.0133498 0)
(0.115597 -0.0135224 0)
(0.113499 -0.0136512 0)
(0.111253 -0.0137319 0)
(0.10886 -0.0137607 0)
(0.10632 -0.0137344 0)
(0.103635 -0.0136502 0)
(0.100812 -0.0135067 0)
(0.0978567 -0.0133028 0)
(0.0947795 -0.0130391 0)
(0.0915921 -0.0127169 0)
(0.0883088 -0.0123391 0)
(0.0849459 -0.0119096 0)
(0.0815219 -0.0114333 0)
(0.078057 -0.0109162 0)
(0.0745729 -0.0103652 0)
(0.0710922 -0.0097875 0)
(0.0676388 -0.00919081 0)
(0.0642364 -0.00858299 0)
(0.060909 -0.00797184 0)
(0.0576795 -0.00736493 0)
(0.0545697 -0.00676951 0)
(0.0515991 -0.00619213 0)
(0.0487848 -0.00563865 0)
(0.0461406 -0.0051138 0)
(0.0436768 -0.00462129 0)
(0.0413996 -0.00416344 0)
(0.0393121 -0.00374142 0)
(0.037413 -0.00335515 0)
(0.0356994 -0.00300348 0)
(0.0341636 -0.00268466 0)
(0.0327994 -0.00239583 0)
(0.0315949 -0.00213478 0)
(0.0305432 -0.00189744 0)
(0.0296299 -0.00168241 0)
(0.0288495 -0.0014846 0)
(0.0281871 -0.00130437 0)
(0.0276381 -0.00113585 0)
(0.0271902 -0.000980527 0)
(0.148384 -0.00159393 0)
(0.148329 -0.00173974 0)
(0.148229 -0.00192306 0)
(0.148136 -0.00201895 0)
(0.148047 -0.00213346 0)
(0.147942 -0.00219433 0)
(0.147849 -0.00226392 0)
(0.147737 -0.00230157 0)
(0.147634 -0.00234277 0)
(0.147515 -0.00236445 0)
(0.147399 -0.00238728 0)
(0.147271 -0.00239791 0)
(0.147144 -0.00240884 0)
(0.147007 -0.00241215 0)
(0.146868 -0.00241568 0)
(0.146721 -0.00241465 0)
(0.146571 -0.00241412 0)
(0.146415 -0.00241113 0)
(0.146255 -0.00240904 0)
(0.146089 -0.00240601 0)
(0.145919 -0.00240429 0)
(0.145744 -0.00240272 0)
(0.145564 -0.00240283 0)
(0.14538 -0.00240391 0)
(0.145191 -0.00240703 0)
(0.144998 -0.00241171 0)
(0.1448 -0.00241875 0)
(0.144598 -0.00242782 0)
(0.144391 -0.00243957 0)
(0.144179 -0.00245371 0)
(0.143962 -0.00247087 0)
(0.143741 -0.0024907 0)
(0.143515 -0.00251395 0)
(0.143283 -0.00254008 0)
(0.143047 -0.00257015 0)
(0.142804 -0.0026032 0)
(0.142557 -0.00264086 0)
(0.142303 -0.00268146 0)
(0.142043 -0.00272762 0)
(0.141776 -0.00277644 0)
(0.141503 -0.0028321 0)
(0.141222 -0.00288991 0)
(0.140934 -0.0029561 0)
(0.140637 -0.00302404 0)
(0.140331 -0.00310127 0)
(0.140016 -0.00318148 0)
(0.139692 -0.00326992 0)
(0.139355 -0.00336353 0)
(0.139008 -0.00346504 0)
(0.138647 -0.00357303 0)
(0.138273 -0.00368906 0)
(0.137884 -0.00381257 0)
(0.13748 -0.00394451 0)
(0.137057 -0.00408474 0)
(0.136617 -0.00423388 0)
(0.136156 -0.00439198 0)
(0.135673 -0.00455946 0)
(0.135165 -0.00473643 0)
(0.134632 -0.00492316 0)
(0.134071 -0.00511972 0)
(0.133479 -0.00532622 0)
(0.132853 -0.00554265 0)
(0.132191 -0.00576892 0)
(0.131489 -0.00600485 0)
(0.130744 -0.00625014 0)
(0.129953 -0.00650435 0)
(0.129112 -0.00676693 0)
(0.128216 -0.00703712 0)
(0.127261 -0.00731399 0)
(0.126242 -0.00759643 0)
(0.125155 -0.00788309 0)
(0.123994 -0.00817239 0)
(0.122754 -0.00846252 0)
(0.121429 -0.00875138 0)
(0.120014 -0.00903663 0)
(0.118503 -0.00931564 0)
(0.11689 -0.00958554 0)
(0.115169 -0.0098432 0)
(0.113336 -0.0100852 0)
(0.111384 -0.0103081 0)
(0.10931 -0.010508 0)
(0.107109 -0.0106812 0)
(0.104777 -0.0108238 0)
(0.102313 -0.0109319 0)
(0.099715 -0.0110019 0)
(0.0969833 -0.0110304 0)
(0.0941196 -0.0110143 0)
(0.0911274 -0.0109512 0)
(0.0880122 -0.0108391 0)
(0.0847813 -0.0106771 0)
(0.0814445 -0.0104649 0)
(0.0780138 -0.0102031 0)
(0.0745035 -0.00989352 0)
(0.0709303 -0.00953868 0)
(0.0673132 -0.00914219 0)
(0.0636733 -0.00870859 0)
(0.0600339 -0.00824333 0)
(0.0564199 -0.00775278 0)
(0.0528574 -0.00724409 0)
(0.049373 -0.00672507 0)
(0.0459934 -0.00620395 0)
(0.0427437 -0.00568904 0)
(0.039647 -0.00518835 0)
(0.0367227 -0.00470916 0)
(0.0339861 -0.00425759 0)
(0.0314475 -0.00383834 0)
(0.029112 -0.00345436 0)
(0.0269798 -0.00310694 0)
(0.0250466 -0.00279565 0)
(0.0233048 -0.00251877 0)
(0.0217435 -0.0022735 0)
(0.0203511 -0.00205649 0)
(0.0191139 -0.0018642 0)
(0.01802 -0.001693 0)
(0.0170555 -0.00153995 0)
(0.0162103 -0.00140182 0)
(0.0154718 -0.00127697 0)
(0.0148325 -0.00116235 0)
(0.0142816 -0.0010579 0)
(0.013814 -0.000960077 0)
(0.0134207 -0.000870626 0)
(0.0130977 -0.000784864 0)
(0.0128388 -0.000706186 0)
(0.147835 -0.00142505 0)
(0.147685 -0.00155146 0)
(0.147458 -0.00168768 0)
(0.147246 -0.00177538 0)
(0.147001 -0.00187493 0)
(0.146756 -0.00193564 0)
(0.146496 -0.00200388 0)
(0.14623 -0.00204426 0)
(0.145956 -0.00208803 0)
(0.145674 -0.00211252 0)
(0.145385 -0.00213798 0)
(0.145088 -0.00215038 0)
(0.144786 -0.00216274 0)
(0.144476 -0.00216651 0)
(0.144161 -0.0021701 0)
(0.14384 -0.00216829 0)
(0.143514 -0.00216657 0)
(0.143182 -0.00216176 0)
(0.142845 -0.00215747 0)
(0.142503 -0.00215177 0)
(0.142156 -0.00214704 0)
(0.141805 -0.0021421 0)
(0.141448 -0.00213855 0)
(0.141087 -0.00213569 0)
(0.140721 -0.00213458 0)
(0.14035 -0.00213481 0)
(0.139974 -0.00213712 0)
(0.139593 -0.00214127 0)
(0.139207 -0.00214779 0)
(0.138815 -0.00215655 0)
(0.138418 -0.00216794 0)
(0.138014 -0.00218193 0)
(0.137605 -0.00219878 0)
(0.137188 -0.00221859 0)
(0.136765 -0.00224149 0)
(0.136333 -0.00226773 0)
(0.135894 -0.00229725 0)
(0.135447 -0.00233057 0)
(0.13499 -0.00236731 0)
(0.134523 -0.00240842 0)
(0.134047 -0.00245305 0)
(0.133558 -0.00250264 0)
(0.133059 -0.00255601 0)
(0.132545 -0.00261468 0)
(0.132019 -0.00267791 0)
(0.131477 -0.00274615 0)
(0.130921 -0.00282037 0)
(0.130346 -0.00289941 0)
(0.129754 -0.00298493 0)
(0.129142 -0.00307583 0)
(0.128509 -0.00317345 0)
(0.127853 -0.00327711 0)
(0.127173 -0.0033877 0)
(0.126467 -0.00350487 0)
(0.125732 -0.0036292 0)
(0.124967 -0.00376051 0)
(0.12417 -0.00389912 0)
(0.123338 -0.00404492 0)
(0.122469 -0.00419805 0)
(0.121559 -0.00435835 0)
(0.120606 -0.00452576 0)
(0.119607 -0.00470003 0)
(0.118558 -0.00488089 0)
(0.117457 -0.0050679 0)
(0.116299 -0.00526056 0)
(0.115081 -0.0054582 0)
(0.113798 -0.00566001 0)
(0.112447 -0.00586503 0)
(0.111023 -0.00607211 0)
(0.109523 -0.00627993 0)
(0.107941 -0.00648696 0)
(0.106273 -0.00669148 0)
(0.104515 -0.00689155 0)
(0.102663 -0.00708503 0)
(0.100712 -0.00726959 0)
(0.0986588 -0.0074427 0)
(0.0964995 -0.0076017 0)
(0.0942312 -0.00774377 0)
(0.0918515 -0.00786603 0)
(0.0893586 -0.00796553 0)
(0.0867517 -0.00803936 0)
(0.0840312 -0.00808469 0)
(0.0811987 -0.00809884 0)
(0.0782571 -0.00807937 0)
(0.0752111 -0.00802412 0)
(0.0720672 -0.00793136 0)
(0.0688338 -0.00779987 0)
(0.0655215 -0.00762902 0)
(0.0621433 -0.00741893 0)
(0.0587146 -0.00717054 0)
(0.0552532 -0.00688579 0)
(0.0517797 -0.00656765 0)
(0.0483167 -0.00622018 0)
(0.044889 -0.00584859 0)
(0.0415226 -0.00545908 0)
(0.0382442 -0.00505875 0)
(0.0350796 -0.00465528 0)
(0.0320532 -0.0042566 0)
(0.029186 -0.00387038 0)
(0.026495 -0.00350354 0)
(0.023992 -0.00316163 0)
(0.0216834 -0.00284856 0)
(0.01957 -0.00256622 0)
(0.0176478 -0.00231471 0)
(0.0159083 -0.00209244 0)
(0.0143405 -0.00189678 0)
(0.0129311 -0.00172441 0)
(0.0116668 -0.00157203 0)
(0.0105337 -0.00143658 0)
(0.00951958 -0.00131556 0)
(0.0086121 -0.00120705 0)
(0.0078011 -0.00110959 0)
(0.00707636 -0.00102223 0)
(0.00643023 -0.000944006 0)
(0.00585428 -0.000874456 0)
(0.00534333 -0.000812415 0)
(0.00489033 -0.000757685 0)
(0.00449216 -0.000708524 0)
(0.00414271 -0.000665146 0)
(0.00384027 -0.000625207 0)
(0.00357969 -0.000589486 0)
(0.00335974 -0.000555422 0)
(0.00317682 -0.000523974 0)
(0.135264 -0.00121991 0)
(0.135024 -0.00133854 0)
(0.13468 -0.00145963 0)
(0.134369 -0.00154211 0)
(0.133996 -0.00162701 0)
(0.133635 -0.00167723 0)
(0.133235 -0.00172917 0)
(0.132837 -0.0017552 0)
(0.132414 -0.00178213 0)
(0.131987 -0.00179129 0)
(0.131543 -0.00180087 0)
(0.131096 -0.00179887 0)
(0.130635 -0.00179722 0)
(0.13017 -0.0017884 0)
(0.129696 -0.00178011 0)
(0.129218 -0.00176769 0)
(0.128733 -0.00175611 0)
(0.128245 -0.00174249 0)
(0.12775 -0.00173003 0)
(0.127253 -0.00171696 0)
(0.12675 -0.00170533 0)
(0.126244 -0.00169406 0)
(0.125734 -0.00168449 0)
(0.12522 -0.00167593 0)
(0.124703 -0.00166928 0)
(0.124181 -0.00166408 0)
(0.123655 -0.00166097 0)
(0.123124 -0.00165964 0)
(0.122589 -0.00166055 0)
(0.122048 -0.00166346 0)
(0.121502 -0.00166881 0)
(0.12095 -0.00167631 0)
(0.120391 -0.00168645 0)
(0.119825 -0.00169885 0)
(0.119252 -0.00171417 0)
(0.118671 -0.0017318 0)
(0.11808 -0.0017527 0)
(0.11748 -0.00177589 0)
(0.116869 -0.00180282 0)
(0.116248 -0.00183196 0)
(0.115613 -0.0018654 0)
(0.114966 -0.00190095 0)
(0.114304 -0.00194133 0)
(0.113628 -0.00198389 0)
(0.112934 -0.00203153 0)
(0.112222 -0.00208188 0)
(0.111492 -0.00213716 0)
(0.11074 -0.00219572 0)
(0.109967 -0.00225924 0)
(0.109169 -0.00232652 0)
(0.108346 -0.00239876 0)
(0.107495 -0.00247517 0)
(0.106615 -0.00255653 0)
(0.105703 -0.00264233 0)
(0.104758 -0.00273304 0)
(0.103776 -0.00282829 0)
(0.102756 -0.00292833 0)
(0.101695 -0.00303283 0)
(0.10059 -0.00314182 0)
(0.099438 -0.00325496 0)
(0.0982368 -0.00337208 0)
(0.096983 -0.00349273 0)
(0.0956736 -0.00361655 0)
(0.0943054 -0.00374294 0)
(0.0928751 -0.00387131 0)
(0.0913795 -0.00400086 0)
(0.0898154 -0.00413074 0)
(0.0881795 -0.00425993 0)
(0.0864686 -0.00438728 0)
(0.0846798 -0.00451151 0)
(0.0828103 -0.00463119 0)
(0.0808574 -0.00474475 0)
(0.078819 -0.00485048 0)
(0.0766933 -0.00494656 0)
(0.0744789 -0.00503104 0)
(0.0721754 -0.00510191 0)
(0.0697829 -0.00515709 0)
(0.0673024 -0.00519451 0)
(0.0647361 -0.00521212 0)
(0.0620874 -0.00520799 0)
(0.0593611 -0.00518035 0)
(0.0565636 -0.0051277 0)
(0.0537032 -0.00504887 0)
(0.0507901 -0.00494312 0)
(0.0478365 -0.00481029 0)
(0.0448567 -0.00465083 0)
(0.0418674 -0.004466 0)
(0.0388869 -0.00425789 0)
(0.0359354 -0.00402953 0)
(0.0330341 -0.00378487 0)
(0.0302048 -0.0035287 0)
(0.0274688 -0.00326647 0)
(0.0248464 -0.00300394 0)
(0.022355 -0.00274683 0)
(0.0200091 -0.00250033 0)
(0.0178187 -0.0022687 0)
(0.0157894 -0.00205491 0)
(0.0139219 -0.00186048 0)
(0.0122131 -0.00168547 0)
(0.0106565 -0.00152875 0)
(0.00924373 -0.00138831 0)
(0.00796502 -0.00126179 0)
(0.00680978 -0.00114688 0)
(0.00576719 -0.00104178 0)
(0.00482625 -0.000945423 0)
(0.00397659 -0.000857597 0)
(0.00320839 -0.000778621 0)
(0.00251324 -0.000709041 0)
(0.00188349 -0.000649136 0)
(0.00131306 -0.000598703 0)
(0.000795997 -0.000557023 0)
(0.000327771 -0.000522924 0)
(-9.67639e-05 -0.000495239 0)
(-0.000481205 -0.000472564 0)
(-0.000830272 -0.000454115 0)
(-0.00114666 -0.000438602 0)
(-0.00143455 -0.000425918 0)
(-0.00169569 -0.000414688 0)
(-0.00193349 -0.000405495 0)
(-0.00214899 -0.000396621 0)
(-0.00234455 -0.000389291 0)
(-0.00252102 -0.000381442 0)
(-0.00267952 -0.000374666 0)
(0.110781 -0.000896345 0)
(0.110456 -0.000979411 0)
(0.110014 -0.00105095 0)
(0.109605 -0.00110427 0)
(0.109115 -0.00115432 0)
(0.108644 -0.00118476 0)
(0.108117 -0.00121506 0)
(0.1076 -0.00122926 0)
(0.107046 -0.00124386 0)
(0.106497 -0.00124667 0)
(0.105923 -0.00124972 0)
(0.105351 -0.0012447 0)
(0.104763 -0.00123982 0)
(0.104177 -0.00122974 0)
(0.10358 -0.00121989 0)
(0.102984 -0.00120695 0)
(0.102381 -0.00119446 0)
(0.101779 -0.00118042 0)
(0.101173 -0.00116708 0)
(0.100568 -0.00115326 0)
(0.0999608 -0.00114042 0)
(0.099354 -0.00112785 0)
(0.0987453 -0.00111648 0)
(0.098137 -0.00110588 0)
(0.0975271 -0.00109668 0)
(0.0969168 -0.00108861 0)
(0.0963049 -0.00108208 0)
(0.0956917 -0.00107693 0)
(0.0950763 -0.00107342 0)
(0.0944587 -0.00107149 0)
(0.0938379 -0.00107129 0)
(0.0932138 -0.00107282 0)
(0.0925853 -0.00107615 0)
(0.0919521 -0.00108135 0)
(0.0913131 -0.0010884 0)
(0.0906679 -0.00109748 0)
(0.0900153 -0.00110845 0)
(0.0893546 -0.00112161 0)
(0.0886847 -0.0011367 0)
(0.0880047 -0.00115415 0)
(0.0873135 -0.00117358 0)
(0.0866099 -0.0011955 0)
(0.0858928 -0.00121956 0)
(0.0851607 -0.00124607 0)
(0.0844126 -0.0012751 0)
(0.0836468 -0.00130634 0)
(0.082862 -0.00134054 0)
(0.0820564 -0.00137684 0)
(0.0812288 -0.0014162 0)
(0.080377 -0.00145774 0)
(0.0794997 -0.00150227 0)
(0.0785945 -0.00154909 0)
(0.07766 -0.00159876 0)
(0.0766938 -0.00165074 0)
(0.0756941 -0.00170535 0)
(0.0746584 -0.00176216 0)
(0.073585 -0.00182129 0)
(0.0724712 -0.00188234 0)
(0.0713151 -0.00194525 0)
(0.0701141 -0.0020096 0)
(0.0688662 -0.00207516 0)
(0.0675689 -0.00214145 0)
(0.0662201 -0.00220806 0)
(0.0648177 -0.0022744 0)
(0.0633598 -0.0023399 0)
(0.0618443 -0.00240382 0)
(0.0602699 -0.00246543 0)
(0.0586352 -0.00252383 0)
(0.0569391 -0.00257811 0)
(0.0551812 -0.00262724 0)
(0.0533615 -0.00267016 0)
(0.0514804 -0.00270572 0)
(0.0495393 -0.00273276 0)
(0.0475403 -0.0027501 0)
(0.0454864 -0.0027566 0)
(0.0433815 -0.00275116 0)
(0.041231 -0.00273284 0)
(0.0390411 -0.00270083 0)
(0.0368196 -0.00265461 0)
(0.0345755 -0.00259394 0)
(0.0323194 -0.002519 0)
(0.030063 -0.00243037 0)
(0.0278191 -0.00232912 0)
(0.0256017 -0.00221681 0)
(0.0234252 -0.00209545 0)
(0.021304 -0.00196747 0)
(0.0192521 -0.00183557 0)
(0.0172822 -0.00170259 0)
(0.0154053 -0.00157132 0)
(0.0136301 -0.00144428 0)
(0.0119627 -0.00132353 0)
(0.0104068 -0.00121046 0)
(0.00896375 -0.00110563 0)
(0.00763278 -0.00100876 0)
(0.00641139 -0.000918793 0)
(0.00529536 -0.000834213 0)
(0.00427902 -0.000753582 0)
(0.00335552 -0.000676156 0)
(0.00251736 -0.000602275 0)
(0.00175692 -0.000533312 0)
(0.00106701 -0.000471087 0)
(0.000441195 -0.000417107 0)
(-0.000126235 -0.000371954 0)
(-0.000640249 -0.000335212 0)
(-0.00110558 -0.000305746 0)
(-0.00152663 -0.000282231 0)
(-0.00190806 -0.000263477 0)
(-0.00225424 -0.000248603 0)
(-0.00256987 -0.000236941 0)
(-0.00285891 -0.000227939 0)
(-0.00312556 -0.000221129 0)
(-0.00337274 -0.000216031 0)
(-0.00360375 -0.000212399 0)
(-0.00382035 -0.000209876 0)
(-0.00402508 -0.000208552 0)
(-0.00421879 -0.00020807 0)
(-0.00440354 -0.000208766 0)
(-0.0045796 -0.000210044 0)
(-0.0047486 -0.00021239 0)
(-0.00491057 -0.000214918 0)
(-0.00506654 -0.000218206 0)
(-0.00521661 -0.000221292 0)
(-0.00536104 -0.000224659 0)
(0.0744562 -0.000508007 0)
(0.0740838 -0.000561785 0)
(0.0735779 -0.000601166 0)
(0.0731201 -0.000633799 0)
(0.072566 -0.000657349 0)
(0.0720449 -0.000670642 0)
(0.0714584 -0.000678522 0)
(0.070895 -0.000677327 0)
(0.0702896 -0.000673157 0)
(0.0697014 -0.000662563 0)
(0.069088 -0.000650622 0)
(0.0684886 -0.00063482 0)
(0.0678756 -0.000618768 0)
(0.0672748 -0.000600828 0)
(0.0666683 -0.000583368 0)
(0.0660728 -0.000565374 0)
(0.0654767 -0.000548321 0)
(0.0648907 -0.00053159 0)
(0.064307 -0.000516065 0)
(0.0637326 -0.00050136 0)
(0.0631621 -0.000487987 0)
(0.0625997 -0.000475693 0)
(0.0620418 -0.000464764 0)
(0.0614908 -0.000455024 0)
(0.0609439 -0.000446628 0)
(0.0604026 -0.000439439 0)
(0.0598647 -0.000433547 0)
(0.0593308 -0.000428833 0)
(0.0587992 -0.000425361 0)
(0.0582699 -0.00042301 0)
(0.0577414 -0.000421859 0)
(0.0572136 -0.000421756 0)
(0.0566849 -0.000422837 0)
(0.0561551 -0.000424877 0)
(0.0556226 -0.000428118 0)
(0.0550871 -0.000432213 0)
(0.054547 -0.000437572 0)
(0.0540018 -0.000443652 0)
(0.0534499 -0.000451104 0)
(0.0528909 -0.000459125 0)
(0.0523231 -0.000468644 0)
(0.0517459 -0.000478597 0)
(0.0511576 -0.000490131 0)
(0.0505576 -0.000502054 0)
(0.049944 -0.000515501 0)
(0.0493163 -0.000529427 0)
(0.0486726 -0.000544711 0)
(0.0480119 -0.000560534 0)
(0.0473328 -0.000577587 0)
(0.0466339 -0.000595201 0)
(0.0459141 -0.000613886 0)
(0.0451715 -0.000633108 0)
(0.0444053 -0.000653198 0)
(0.0436137 -0.000673731 0)
(0.0427957 -0.000694878 0)
(0.0419496 -0.000716288 0)
(0.0410745 -0.000737998 0)
(0.0401689 -0.000759688 0)
(0.0392319 -0.000781286 0)
(0.0382623 -0.000802474 0)
(0.0372594 -0.000823087 0)
(0.0362225 -0.000842786 0)
(0.0351511 -0.00086133 0)
(0.034045 -0.000878353 0)
(0.0329044 -0.000893552 0)
(0.0317296 -0.000906538 0)
(0.0305216 -0.000916971 0)
(0.0292816 -0.000924459 0)
(0.0280115 -0.000928659 0)
(0.0267136 -0.000929214 0)
(0.0253909 -0.000925826 0)
(0.0240469 -0.000918225 0)
(0.022686 -0.000906226 0)
(0.021313 -0.000889715 0)
(0.0199333 -0.000868698 0)
(0.0185531 -0.000843297 0)
(0.0171788 -0.000813784 0)
(0.0158172 -0.000780586 0)
(0.0144754 -0.000744293 0)
(0.0131605 -0.000705647 0)
(0.0118792 -0.000665513 0)
(0.010638 -0.000624825 0)
(0.00944305 -0.000584495 0)
(0.0082995 -0.0005453 0)
(0.00721189 -0.000507746 0)
(0.00618383 -0.000471945 0)
(0.00521795 -0.000437564 0)
(0.00431586 -0.000403874 0)
(0.0034781 -0.000369975 0)
(0.00270415 -0.000335134 0)
(0.00199248 -0.000299155 0)
(0.00134065 -0.000262593 0)
(0.000745569 -0.000226695 0)
(0.000203701 -0.000193052 0)
(-0.000288565 -0.000163103 0)
(-0.000734611 -0.00013773 0)
(-0.00113744 -0.000117113 0)
(-0.0014997 -0.000100883 0)
(-0.00182399 -8.84091e-05 0)
(-0.00211317 -7.90426e-05 0)
(-0.00237068 -7.21707e-05 0)
(-0.00260039 -6.71649e-05 0)
(-0.00280642 -6.33196e-05 0)
(-0.00299253 -5.99465e-05 0)
(-0.00316212 -5.65338e-05 0)
(-0.00331776 -5.29192e-05 0)
(-0.00346179 -4.93055e-05 0)
(-0.00359591 -4.6138e-05 0)
(-0.00372202 -4.39131e-05 0)
(-0.00384143 -4.29602e-05 0)
(-0.00395588 -4.34299e-05 0)
(-0.00406623 -4.5177e-05 0)
(-0.00417395 -4.80467e-05 0)