/*--------------------------------*- C++ -*----------------------------------*\
| =========                 |                                                 |
| \\      /  F ield         | OpenFOAM: The Open Source CFD Toolbox           |
|  \\    /   O peration     | Version:  4.1                                   |
|   \\  /    A nd           | Web:      www.OpenFOAM.org                      |
|    \\/     M anipulation  |                                                 |
\*---------------------------------------------------------------------------*/
FoamFile
{
    version     2.0;
    format      ascii;
    class       volVectorField;
    location    "1410";
    object      U;
}
// * * * * * * * * * * * * * * * * * * * * * * * * * * * * * * * * * * * * * //

dimensions      [0 1 -1 0 0 0 0];

internalField   nonuniform List<vector> 
1275
(
(0.0886937 -0.00193174 0)
(0.0886678 -0.0019447 0)
(0.0886324 -0.00192529 0)
(0.0886051 -0.001943 0)
(0.0885679 -0.0019221 0)
(0.0763151 0.00240711 0)
(0.076822 0.00260211 0)
(0.0773634 0.00278995 0)
(0.0779351 0.00297579 0)
(0.078535 0.00315784 0)
(0.0791599 0.00333839 0)
(0.0798076 0.00351708 0)
(0.0804756 0.00369516 0)
(0.0811621 0.00387268 0)
(0.0818648 0.00405043 0)
(0.0825821 0.00422853 0)
(0.083312 0.00440749 0)
(0.084053 0.00458741 0)
(0.0848032 0.00476858 0)
(0.0855613 0.00495102 0)
(0.0863254 0.00513482 0)
(0.087094 0.00531988 0)
(0.0878654 0.00550612 0)
(0.0886381 0.0056933 0)
(0.0894102 0.00588116 0)
(0.0901801 0.00606931 0)
(0.0909458 0.0062573 0)
(0.0917057 0.0064446 0)
(0.0924577 0.00663057 0)
(0.0931999 0.00681451 0)
(0.0939304 0.00699564 0)
(0.0946471 0.00717307 0)
(0.0953479 0.00734589 0)
(0.0960307 0.00751309 0)
(0.0966936 0.00767361 0)
(0.0973345 0.00782636 0)
(0.0979513 0.00797021 0)
(0.0985421 0.008104 0)
(0.0991052 0.00822658 0)
(0.0996386 0.0083368 0)
(0.100141 0.00843356 0)
(0.10061 0.00851579 0)
(0.101046 0.00858248 0)
(0.101446 0.00863272 0)
(0.10181 0.00866569 0)
(0.102138 0.00868069 0)
(0.102428 0.00867714 0)
(0.102681 0.00865462 0)
(0.102896 0.00861285 0)
(0.103074 0.0085517 0)
(0.103216 0.00847123 0)
(0.103321 0.00837163 0)
(0.103392 0.00825328 0)
(0.103428 0.00811671 0)
(0.103432 0.0079626 0)
(0.103406 0.00779175 0)
(0.10335 0.00760511 0)
(0.103266 0.00740374 0)
(0.103157 0.00718878 0)
(0.103025 0.00696146 0)
(0.102872 0.00672307 0)
(0.102699 0.00647493 0)
(0.102509 0.0062184 0)
(0.102304 0.00595485 0)
(0.102087 0.00568562 0)
(0.101858 0.00541206 0)
(0.101621 0.00513544 0)
(0.101376 0.00485703 0)
(0.101127 0.00457802 0)
(0.100873 0.00429952 0)
(0.100618 0.00402259 0)
(0.100362 0.00374821 0)
(0.100106 0.00347726 0)
(0.0998524 0.00321057 0)
(0.0996012 0.00294887 0)
(0.0993537 0.0026928 0)
(0.0991105 0.00244292 0)
(0.0988722 0.00219974 0)
(0.0986395 0.00196366 0)
(0.0984126 0.00173504 0)
(0.098192 0.00151414 0)
(0.0979777 0.00130119 0)
(0.0977701 0.00109634 0)
(0.097569 0.000899695 0)
(0.0973744 0.000711315 0)
(0.0971864 0.000531212 0)
(0.0970047 0.000359359 0)
(0.0968291 0.000195694 0)
(0.0966596 4.01239e-05 0)
(0.0964957 -0.00010747 0)
(0.0963372 -0.000247232 0)
(0.0961839 -0.000379324 0)
(0.0960354 -0.000503928 0)
(0.0958915 -0.000621239 0)
(0.0957517 -0.000731463 0)
(0.0956158 -0.000834815 0)
(0.0954834 -0.00093152 0)
(0.0953543 -0.0010218 0)
(0.095228 -0.0011059 0)
(0.0951044 -0.00118405 0)
(0.0949832 -0.00125647 0)
(0.0948639 -0.00132342 0)
(0.0947465 -0.00138513 0)
(0.0946306 -0.00144181 0)
(0.094516 -0.00149373 0)
(0.0944026 -0.00154109 0)
(0.09429 -0.00158415 0)
(0.0941781 -0.00162308 0)
(0.0940667 -0.0016582 0)
(0.0939558 -0.00168956 0)
(0.093845 -0.00171764 0)
(0.0937344 -0.00174228 0)
(0.0936236 -0.00176423 0)
(0.0935131 -0.00178292 0)
(0.0934017 -0.00179965 0)
(0.0932911 -0.00181309 0)
(0.0931786 -0.00182557 0)
(0.0930681 -0.00183434 0)
(0.0929533 -0.00184365 0)
(0.0928441 -0.00184812 0)
(0.0927247 -0.00185547 0)
(0.0926201 -0.00185582 0)
(0.0924906 -0.00186258 0)
(0.0923993 -0.00185872 0)
(0.0922461 -0.00186626 0)
(0.0921888 -0.00185822 0)
(0.0919804 -0.00186681 0)
(0.0919073 -0.00185407 0)
(0.091812 -0.00186766 0)
(0.0916663 -0.00184773 0)
(0.0915853 -0.00186345 0)
(0.0914122 -0.00184313 0)
(0.0550952 0.0018195 0)
(0.0557532 0.00197507 0)
(0.0564452 0.00212835 0)
(0.0571699 0.00228181 0)
(0.0579247 0.00243452 0)
(0.0587075 0.00258801 0)
(0.0595166 0.00274196 0)
(0.0603501 0.00289732 0)
(0.0612067 0.00305403 0)
(0.0620846 0.00321274 0)
(0.0629827 0.00337349 0)
(0.0638996 0.00353669 0)
(0.0648342 0.0037024 0)
(0.0657853 0.00387086 0)
(0.0667516 0.0040421 0)
(0.0677319 0.00421619 0)
(0.0687252 0.00439307 0)
(0.06973 0.00457269 0)
(0.0707452 0.00475485 0)
(0.0717692 0.00493935 0)
(0.0728008 0.00512586 0)
(0.0738383 0.00531402 0)
(0.0748801 0.00550334 0)
(0.0759245 0.00569328 0)
(0.0769698 0.0058832 0)
(0.0780139 0.00607238 0)
(0.0790549 0.00626001 0)
(0.0800906 0.0064452 0)
(0.081119 0.00662699 0)
(0.0821378 0.00680436 0)
(0.0831447 0.00697619 0)
(0.0841374 0.00714135 0)
(0.0851136 0.00729864 0)
(0.0860709 0.00744686 0)
(0.087007 0.00758478 0)
(0.0879197 0.00771118 0)
(0.0888068 0.00782488 0)
(0.0896662 0.00792471 0)
(0.0904959 0.00800959 0)
(0.0912941 0.00807852 0)
(0.0920592 0.00813059 0)
(0.0927897 0.008165 0)
(0.0934843 0.00818109 0)
(0.094142 0.00817834 0)
(0.0947619 0.0081564 0)
(0.0953434 0.00811505 0)
(0.0958862 0.00805426 0)
(0.0963901 0.00797418 0)
(0.0968552 0.00787509 0)
(0.0972819 0.00775747 0)
(0.0976707 0.00762193 0)
(0.0980223 0.00746924 0)
(0.0983377 0.00730029 0)
(0.0986179 0.00711611 0)
(0.0988642 0.00691782 0)
(0.099078 0.0067066 0)
(0.0992608 0.00648373 0)
(0.0994141 0.00625054 0)
(0.0995395 0.00600836 0)
(0.0996388 0.00575857 0)
(0.0997135 0.00550251 0)
(0.0997654 0.00524154 0)
(0.0997962 0.00497697 0)
(0.0998074 0.00471005 0)
(0.0998008 0.00444201 0)
(0.0997777 0.00417399 0)
(0.0997398 0.00390707 0)
(0.0996883 0.00364226 0)
(0.0996247 0.00338048 0)
(0.09955 0.00312257 0)
(0.0994656 0.00286929 0)
(0.0993723 0.00262132 0)
(0.0992712 0.00237926 0)
(0.0991632 0.00214363 0)
(0.0990489 0.00191487 0)
(0.0989293 0.00169335 0)
(0.0988047 0.00147937 0)
(0.0986759 0.00127317 0)
(0.0985433 0.00107492 0)
(0.0984073 0.000884748 0)
(0.0982683 0.000702728 0)
(0.0981265 0.000528881 0)
(0.0979823 0.000363193 0)
(0.0978359 0.00020561 0)
(0.0976875 5.60449e-05 0)
(0.0975371 -8.56168e-05 0)
(0.097385 -0.000219516 0)
(0.0972312 -0.000345814 0)
(0.0970758 -0.000464694 0)
(0.0969189 -0.000576349 0)
(0.0967606 -0.00068099 0)
(0.0966008 -0.000778836 0)
(0.0964396 -0.000870114 0)
(0.096277 -0.000955058 0)
(0.0961131 -0.0010339 0)
(0.0959479 -0.0011069 0)
(0.0957813 -0.00117427 0)
(0.0956135 -0.00123628 0)
(0.0954444 -0.00129315 0)
(0.095274 -0.00134515 0)
(0.0951024 -0.00139248 0)
(0.0949297 -0.00143542 0)
(0.0947557 -0.00147416 0)
(0.0945806 -0.00150899 0)
(0.0944044 -0.00154005 0)
(0.0942272 -0.00156771 0)
(0.0940488 -0.00159195 0)
(0.0938696 -0.00161337 0)
(0.0936892 -0.00163163 0)
(0.0935083 -0.00164773 0)
(0.0933259 -0.00166075 0)
(0.0931437 -0.00167251 0)
(0.0929592 -0.0016809 0)
(0.0927761 -0.00168942 0)
(0.0925894 -0.00169355 0)
(0.0924062 -0.00170016 0)
(0.0922166 -0.00169998 0)
(0.0920344 -0.0017065 0)
(0.0918409 -0.00170119 0)
(0.0916611 -0.00171021 0)
(0.0914628 -0.00169818 0)
(0.0912859 -0.00171177 0)
(0.0910813 -0.00169537 0)
(0.0909174 -0.00170838 0)
(0.0906886 -0.0016899 0)
(0.0905617 -0.00170362 0)
(0.0902782 -0.0016853 0)
(0.0357786 0.00113205 0)
(0.0364565 0.00125273 0)
(0.0371664 0.00137383 0)
(0.0379076 0.00149666 0)
(0.0386782 0.00162058 0)
(0.0394775 0.00174672 0)
(0.0403041 0.00187469 0)
(0.0411573 0.00200528 0)
(0.0420362 0.00213834 0)
(0.04294 0.00227441 0)
(0.043868 0.00241347 0)
(0.0448196 0.00255588 0)
(0.0457942 0.00270168 0)
(0.0467912 0.0028511 0)
(0.0478098 0.00300416 0)
(0.0488496 0.00316099 0)
(0.0499097 0.00332155 0)
(0.0509895 0.00348585 0)
(0.052088 0.00365377 0)
(0.0532045 0.0038252 0)
(0.054338 0.00399989 0)
(0.0554873 0.00417759 0)
(0.0566512 0.00435793 0)
(0.0578284 0.00454049 0)
(0.0590174 0.00472473 0)
(0.0602167 0.00491007 0)
(0.0614245 0.00509581 0)
(0.062639 0.00528118 0)
(0.0638581 0.00546533 0)
(0.0650797 0.00564731 0)
(0.0663017 0.00582612 0)
(0.0675217 0.00600067 0)
(0.0687373 0.00616982 0)
(0.0699459 0.0063324 0)
(0.0711451 0.00648718 0)
(0.0723323 0.00663292 0)
(0.0735049 0.0067684 0)
(0.0746603 0.0068924 0)
(0.0757961 0.00700372 0)
(0.0769096 0.00710126 0)
(0.0779987 0.00718396 0)
(0.0790609 0.00725086 0)
(0.0800941 0.00730112 0)
(0.0810965 0.00733403 0)
(0.0820661 0.00734901 0)
(0.0830013 0.00734564 0)
(0.0839008 0.00732364 0)
(0.0847632 0.00728294 0)
(0.0855877 0.00722358 0)
(0.0863735 0.00714582 0)
(0.0871199 0.00705005 0)
(0.0878268 0.00693682 0)
(0.0884939 0.00680684 0)
(0.0891213 0.00666093 0)
(0.0897094 0.00650004 0)
(0.0902585 0.00632524 0)
(0.0907694 0.00613765 0)
(0.0912427 0.0059385 0)
(0.0916794 0.00572903 0)
(0.0920804 0.00551054 0)
(0.0924469 0.00528433 0)
(0.0927801 0.00505173 0)
(0.0930811 0.00481402 0)
(0.0933513 0.00457247 0)
(0.093592 0.00432831 0)
(0.0938045 0.00408271 0)
(0.0939902 0.00383679 0)
(0.0941502 0.00359161 0)
(0.0942861 0.00334815 0)
(0.0943989 0.0031073 0)
(0.09449 0.0028699 0)
(0.0945605 0.00263669 0)
(0.0946115 0.00240834 0)
(0.0946443 0.00218544 0)
(0.0946598 0.00196849 0)
(0.094659 0.00175795 0)
(0.0946428 0.00155417 0)
(0.0946122 0.00135746 0)
(0.094568 0.00116805 0)
(0.0945109 0.000986112 0)
(0.0944418 0.000811781 0)
(0.0943613 0.000645124 0)
(0.0942701 0.000486169 0)
(0.0941689 0.000334903 0)
(0.0940581 0.000191275 0)
(0.0939383 5.52011e-05 0)
(0.0938101 -7.34302e-05 0)
(0.0936739 -0.000194756 0)
(0.0935302 -0.000308935 0)
(0.0933794 -0.000416143 0)
(0.093222 -0.000516573 0)
(0.0930583 -0.000610429 0)
(0.0928887 -0.000697926 0)
(0.0927136 -0.000779285 0)
(0.0925332 -0.000854736 0)
(0.0923479 -0.000924511 0)
(0.092158 -0.000988843 0)
(0.0919639 -0.00104797 0)
(0.0917657 -0.00110213 0)
(0.0915638 -0.00115156 0)
(0.0913584 -0.00119649 0)
(0.0911497 -0.00123717 0)
(0.090938 -0.00127378 0)
(0.0907236 -0.00130664 0)
(0.0905066 -0.00133585 0)
(0.0902872 -0.00136179 0)
(0.0900658 -0.00138446 0)
(0.0898422 -0.00140439 0)
(0.0896171 -0.00142133 0)
(0.0893901 -0.00143615 0)
(0.089162 -0.00144811 0)
(0.0889321 -0.00145874 0)
(0.0887016 -0.00146639 0)
(0.0884696 -0.00147375 0)
(0.0882371 -0.00147765 0)
(0.0880035 -0.00148275 0)
(0.087769 -0.0014833 0)
(0.0875351 -0.00148724 0)
(0.0872978 -0.00148459 0)
(0.0870662 -0.00148865 0)
(0.0868225 -0.00148249 0)
(0.0865997 -0.00148839 0)
(0.0863417 -0.00147739 0)
(0.0861388 -0.00148742 0)
(0.0858511 -0.00147245 0)
(0.0856963 -0.00148332 0)
(0.0853381 -0.0014693 0)
(0.0201407 0.0004983 0)
(0.0207149 0.000586725 0)
(0.0213183 0.000676898 0)
(0.0219513 0.000769565 0)
(0.0226127 0.000864338 0)
(0.0233024 0.000961896 0)
(0.0240199 0.00106201 0)
(0.024765 0.0011652 0)
(0.0255373 0.0012714 0)
(0.0263368 0.00138099 0)
(0.0271632 0.00149398 0)
(0.0280165 0.00161068 0)
(0.0288966 0.00173115 0)
(0.0298033 0.0018556 0)
(0.0307366 0.0019841 0)
(0.0316961 0.00211679 0)
(0.0326819 0.00225371 0)
(0.0336935 0.00239491 0)
(0.0347307 0.00254037 0)
(0.0357931 0.00269006 0)
(0.0368801 0.00284384 0)
(0.0379912 0.00300158 0)
(0.0391256 0.00316302 0)
(0.0402825 0.00332787 0)
(0.0414608 0.00349576 0)
(0.0426594 0.00366622 0)
(0.0438771 0.00383872 0)
(0.0451123 0.00401264 0)
(0.0463635 0.00418725 0)
(0.0476289 0.00436177 0)
(0.0489065 0.00453531 0)
(0.0501943 0.00470692 0)
(0.05149 0.00487556 0)
(0.0527914 0.00504015 0)
(0.0540959 0.00519956 0)
(0.0554011 0.00535259 0)
(0.0567041 0.00549807 0)
(0.0580024 0.00563478 0)
(0.0592932 0.00576153 0)
(0.0605737 0.00587717 0)
(0.0618412 0.00598059 0)
(0.0630929 0.00607075 0)
(0.0643261 0.00614671 0)
(0.0655382 0.00620761 0)
(0.0667267 0.00625274 0)
(0.0678893 0.00628151 0)
(0.0690237 0.00629346 0)
(0.0701278 0.0062883 0)
(0.0711997 0.0062659 0)
(0.0722376 0.00622629 0)
(0.0732402 0.00616963 0)
(0.0742059 0.00609627 0)
(0.0751338 0.00600669 0)
(0.0760229 0.00590151 0)
(0.0768725 0.00578147 0)
(0.0776821 0.00564745 0)
(0.0784514 0.00550039 0)
(0.0791802 0.00534134 0)
(0.0798688 0.00517141 0)
(0.0805172 0.00499174 0)
(0.0811258 0.00480354 0)
(0.0816953 0.004608 0)
(0.0822261 0.00440634 0)
(0.0827191 0.00419974 0)
(0.0831751 0.00398938 0)
(0.0835951 0.00377639 0)
(0.0839799 0.00356186 0)
(0.0843307 0.00334683 0)
(0.0846486 0.00313226 0)
(0.0849347 0.00291907 0)
(0.0851901 0.00270809 0)
(0.085416 0.00250008 0)
(0.0856135 0.00229574 0)
(0.0857839 0.00209568 0)
(0.0859282 0.00190045 0)
(0.0860476 0.00171052 0)
(0.0861432 0.0015263 0)
(0.0862162 0.00134813 0)
(0.0862675 0.00117628 0)
(0.0862982 0.00101096 0)
(0.0863094 0.000852356 0)
(0.086302 0.000700564 0)
(0.086277 0.000555653 0)
(0.0862352 0.000417647 0)
(0.0861777 0.000286533 0)
(0.0861052 0.00016226 0)
(0.0860186 4.47516e-05 0)
(0.0859186 -6.60988e-05 0)
(0.0858061 -0.000170419 0)
(0.0856818 -0.000268358 0)
(0.0855463 -0.000360079 0)
(0.0854004 -0.000445762 0)
(0.0852446 -0.000525597 0)
(0.0850798 -0.000599782 0)
(0.0849063 -0.000668525 0)
(0.0847248 -0.000732038 0)
(0.0845359 -0.000790533 0)
(0.0843401 -0.000844232 0)
(0.0841378 -0.000893348 0)
(0.0839296 -0.000938109 0)
(0.0837159 -0.000978716 0)
(0.0834971 -0.00101542 0)
(0.0832737 -0.00104837 0)
(0.083046 -0.00107788 0)
(0.0828144 -0.00110402 0)
(0.0825793 -0.00112718 0)
(0.082341 -0.00114731 0)
(0.0820998 -0.00116499 0)
(0.081856 -0.00117984 0)
(0.0816098 -0.00119289 0)
(0.0813617 -0.00120314 0)
(0.0811116 -0.00121244 0)
(0.08086 -0.00121863 0)
(0.080607 -0.00122518 0)
(0.0803526 -0.00122768 0)
(0.0800976 -0.0012326 0)
(0.0798405 -0.00123152 0)
(0.079585 -0.00123616 0)
(0.0793244 -0.00123137 0)
(0.0790713 -0.00123714 0)
(0.078804 -0.00122864 0)
(0.0785594 -0.00123628 0)
(0.0782771 -0.00122539 0)
(0.078056 -0.00123386 0)
(0.0777383 -0.00122222 0)
(0.0775719 -0.00123024 0)
(0.0771766 -0.00122134 0)
(0.00830732 1.53583e-05 0)
(0.0087082 7.5397e-05 0)
(0.0091353 0.000137676 0)
(0.00958909 0.000202504 0)
(0.0100693 0.000269692 0)
(0.0105762 0.00033968 0)
(0.0111098 0.000412307 0)
(0.0116705 0.000487954 0)
(0.0122583 0.000566564 0)
(0.0128736 0.000648449 0)
(0.0135167 0.000733632 0)
(0.0141878 0.000822373 0)
(0.0148872 0.000914747 0)
(0.0156153 0.00101097 0)
(0.0163724 0.00111113 0)
(0.0171587 0.00121541 0)
(0.0179744 0.00132388 0)
(0.0188197 0.00143667 0)
(0.0196948 0.00155381 0)
(0.0205996 0.00167537 0)
(0.0215342 0.00180132 0)
(0.0224985 0.00193161 0)
(0.0234921 0.00206614 0)
(0.0245147 0.00220474 0)
(0.0255658 0.00234717 0)
(0.0266447 0.00249314 0)
(0.0277508 0.00264226 0)
(0.0288829 0.00279408 0)
(0.03004 0.00294806 0)
(0.0312208 0.00310357 0)
(0.0324237 0.0032599 0)
(0.0336472 0.00341627 0)
(0.0348894 0.0035718 0)
(0.0361483 0.00372555 0)
(0.0374218 0.00387653 0)
(0.0387076 0.00402369 0)
(0.0400032 0.00416594 0)
(0.041306 0.00430217 0)
(0.0426134 0.00443125 0)
(0.0439226 0.00455207 0)
(0.0452308 0.00466356 0)
(0.0465351 0.00476467 0)
(0.0478326 0.00485444 0)
(0.0491204 0.00493196 0)
(0.0503957 0.00499644 0)
(0.0516555 0.00504719 0)
(0.0528972 0.00508366 0)
(0.0541181 0.00510541 0)
(0.0553157 0.00511215 0)
(0.0564875 0.00510373 0)
(0.0576312 0.00508015 0)
(0.0587448 0.00504157 0)
(0.0598264 0.00498825 0)
(0.0608742 0.00492062 0)
(0.0618867 0.00483923 0)
(0.0628625 0.00474471 0)
(0.0638005 0.00463784 0)
(0.0646998 0.00451946 0)
(0.0655597 0.00439049 0)
(0.0663795 0.00425189 0)
(0.067159 0.00410469 0)
(0.0678979 0.00394994 0)
(0.0685963 0.0037887 0)
(0.0692543 0.00362203 0)
(0.0698722 0.00345098 0)
(0.0704504 0.00327658 0)
(0.0709895 0.00309982 0)
(0.0714902 0.00292166 0)
(0.0719532 0.002743 0)
(0.0723794 0.0025647 0)
(0.0727697 0.00238754 0)
(0.0731251 0.00221225 0)
(0.0734466 0.0020395 0)
(0.0737352 0.00186989 0)
(0.0739922 0.00170396 0)
(0.0742186 0.00154217 0)
(0.0744156 0.00138492 0)
(0.0745844 0.00123258 0)
(0.074726 0.00108543 0)
(0.0748417 0.000943689 0)
(0.0749327 0.000807554 0)
(0.0749999 0.000677156 0)
(0.0750446 0.000552583 0)
(0.0750679 0.000433885 0)
(0.0750709 0.000321075 0)
(0.0750545 0.000214132 0)
(0.0750198 0.000113006 0)
(0.0749678 1.76227e-05 0)
(0.0748995 -7.21177e-05 0)
(0.0748158 -0.000156332 0)
(0.0747176 -0.000235156 0)
(0.0746058 -0.000308738 0)
(0.0744812 -0.000377237 0)
(0.0743446 -0.000440824 0)
(0.0741968 -0.000499674 0)
(0.0740386 -0.000553971 0)
(0.0738706 -0.0006039 0)
(0.0736936 -0.000649653 0)
(0.0735082 -0.000691415 0)
(0.073315 -0.000729387 0)
(0.0731146 -0.000763743 0)
(0.0729075 -0.0007947 0)
(0.0726944 -0.000822403 0)
(0.0724757 -0.000847107 0)
(0.0722519 -0.000868892 0)
(0.0720234 -0.000888093 0)
(0.0717908 -0.000904663 0)
(0.0715543 -0.000919104 0)
(0.0713144 -0.000931118 0)
(0.0710713 -0.000941545 0)
(0.0708256 -0.000949601 0)
(0.0705772 -0.000956776 0)
(0.0703269 -0.000961389 0)
(0.0700745 -0.000966115 0)
(0.0698202 -0.000967692 0)
(0.0695652 -0.000970843 0)
(0.0693072 -0.000969661 0)
(0.0690515 -0.000972201 0)
(0.0687886 -0.000968418 0)
(0.0685357 -0.000971384 0)
(0.0682641 -0.000965157 0)
(0.0680212 -0.000969454 0)
(0.067732 -0.00096146 0)
(0.0675137 -0.000967024 0)
(0.0671878 -0.000959908 0)
(0.0670244 -0.00096439 0)
(0.0666229 -0.000961747 0)
(-0.000148191 -0.000277184 0)
(5.77014e-05 -0.000241842 0)
(0.000285432 -0.000204514 0)
(0.000535767 -0.000164908 0)
(0.000808849 -0.000123195 0)
(0.00110537 -7.90664e-05 0)
(0.00142568 -3.26269e-05 0)
(0.00177043 1.63979e-05 0)
(0.0021401 6.79891e-05 0)
(0.00253534 0.000122388 0)
(0.00295672 0.000179645 0)
(0.00340488 0.000239981 0)
(0.00388046 0.000303492 0)
(0.00438409 0.000370385 0)
(0.00491643 0.000440783 0)
(0.00547808 0.000514874 0)
(0.00606966 0.000592787 0)
(0.00669174 0.000674681 0)
(0.00734487 0.000760668 0)
(0.00802951 0.000850864 0)
(0.00874608 0.000945335 0)
(0.00949492 0.00104413 0)
(0.0102763 0.00114725 0)
(0.0110903 0.00125466 0)
(0.011937 0.00136625 0)
(0.0128162 0.00148186 0)
(0.0137278 0.00160127 0)
(0.0146712 0.00172418 0)
(0.015646 0.00185023 0)
(0.0166514 0.00197896 0)
(0.0176864 0.00210984 0)
(0.0187499 0.00224226 0)
(0.0198407 0.00237554 0)
(0.0209571 0.00250892 0)
(0.0220976 0.00264156 0)
(0.0232602 0.00277258 0)
(0.0244429 0.00290105 0)
(0.0256435 0.00302599 0)
(0.0268595 0.00314641 0)
(0.0280885 0.0032613 0)
(0.0293277 0.00336968 0)
(0.0305744 0.00347057 0)
(0.0318258 0.00356304 0)
(0.0330789 0.00364623 0)
(0.0343307 0.00371934 0)
(0.0355782 0.00378166 0)
(0.0368185 0.00383257 0)
(0.0380485 0.00387158 0)
(0.0392654 0.0038983 0)
(0.0404664 0.00391247 0)
(0.0416486 0.00391396 0)
(0.0428094 0.00390275 0)
(0.0439464 0.00387897 0)
(0.0450573 0.00384286 0)
(0.0461398 0.00379477 0)
(0.0471919 0.00373515 0)
(0.048212 0.00366457 0)
(0.0491982 0.00358367 0)
(0.0501493 0.00349316 0)
(0.0510641 0.00339381 0)
(0.0519415 0.00328646 0)
(0.0527808 0.00317195 0)
(0.0535813 0.00305117 0)
(0.0543426 0.002925 0)
(0.0550644 0.00279434 0)
(0.0557468 0.00266006 0)
(0.0563897 0.00252302 0)
(0.0569935 0.00238404 0)
(0.0575584 0.00224391 0)
(0.0580851 0.00210338 0)
(0.058574 0.00196316 0)
(0.059026 0.00182389 0)
(0.0594419 0.00168618 0)
(0.0598224 0.00155056 0)
(0.0601686 0.00141753 0)
(0.0604815 0.00128752 0)
(0.0607621 0.00116091 0)
(0.0610115 0.00103802 0)
(0.0612307 0.000919151 0)
(0.0614211 0.000804516 0)
(0.0615835 0.000694303 0)
(0.0617193 0.000588655 0)
(0.0618296 0.000487675 0)
(0.0619155 0.000391428 0)
(0.061978 0.000299949 0)
(0.0620185 0.000213241 0)
(0.0620378 0.000131281 0)
(0.0620372 5.40228e-05 0)
(0.0620176 -1.86028e-05 0)
(0.06198 -8.66814e-05 0)
(0.0619255 -0.000150315 0)
(0.0618551 -0.000209619 0)
(0.0617696 -0.00026472 0)
(0.06167 -0.000315753 0)
(0.0615571 -0.000362862 0)
(0.0614319 -0.000406195 0)
(0.061295 -0.000445905 0)
(0.0611473 -0.000482152 0)
(0.0609895 -0.000515087 0)
(0.0608223 -0.000544881 0)
(0.0606465 -0.000571675 0)
(0.0604627 -0.000595661 0)
(0.0602715 -0.000616946 0)
(0.0600734 -0.000635765 0)
(0.0598692 -0.000652156 0)
(0.0596593 -0.00066645 0)
(0.0594442 -0.000678532 0)
(0.0592244 -0.000688942 0)
(0.0590004 -0.000697256 0)
(0.0587725 -0.000704436 0)
(0.0585412 -0.000709454 0)
(0.058307 -0.000714094 0)
(0.0580698 -0.000716193 0)
(0.0578308 -0.000719046 0)
(0.0575885 -0.000718481 0)
(0.0573465 -0.000720389 0)
(0.0570994 -0.000717307 0)
(0.0568566 -0.000719163 0)
(0.0566035 -0.000713745 0)
(0.0563638 -0.000716285 0)
(0.056101 -0.000709204 0)
(0.0558716 -0.000712467 0)
(0.0555904 -0.000705714 0)
(0.0553855 -0.00070847 0)
(0.0550681 -0.000705546 0)
(0.0549149 -0.000705977 0)
(0.054529 -0.00070988 0)
(-0.00551423 -0.000374037 0)
(-0.00548824 -0.00035772 0)
(-0.00544642 -0.000339904 0)
(-0.0053879 -0.000320462 0)
(-0.00531218 -0.000299479 0)
(-0.00521846 -0.000276766 0)
(-0.0051061 -0.000252386 0)
(-0.00497432 -0.000226147 0)
(-0.00482237 -0.000198054 0)
(-0.00464944 -0.000167922 0)
(-0.00445471 -0.000135701 0)
(-0.00423732 -0.000101207 0)
(-0.00399641 -6.43433e-05 0)
(-0.00373106 -2.49255e-05 0)
(-0.00344036 1.71774e-05 0)
(-0.00312338 6.2151e-05 0)
(-0.00277919 0.000110144 0)
(-0.00240685 0.000161336 0)
(-0.00200544 0.000215877 0)
(-0.00157407 0.000273926 0)
(-0.00111187 0.000335614 0)
(-0.000618027 0.000401062 0)
(-9.17737e-05 0.000470357 0)
(0.000467566 0.000543559 0)
(0.00106059 0.000620684 0)
(0.00168778 0.000701708 0)
(0.00234951 0.000786547 0)
(0.00304601 0.000875068 0)
(0.00377735 0.000967068 0)
(0.00454344 0.00106228 0)
(0.00534403 0.00116036 0)
(0.00617866 0.0012609 0)
(0.00704666 0.00136342 0)
(0.00794718 0.00146736 0)
(0.00887914 0.0015721 0)
(0.00984124 0.00167696 0)
(0.010832 0.0017812 0)
(0.0118497 0.00188403 0)
(0.0128923 0.00198464 0)
(0.0139579 0.0020822 0)
(0.015044 0.00217585 0)
(0.0161482 0.00226477 0)
(0.0172679 0.00234814 0)
(0.0184002 0.00242518 0)
(0.0195425 0.00249515 0)
(0.0206915 0.00255739 0)
(0.0218445 0.00261131 0)
(0.0229982 0.00265639 0)
(0.0241496 0.00269223 0)
(0.0252956 0.00271849 0)
(0.0264332 0.00273498 0)
(0.0275595 0.00274157 0)
(0.0286716 0.00273827 0)
(0.0297667 0.00272517 0)
(0.0308422 0.00270247 0)
(0.0318956 0.00267044 0)
(0.0329245 0.00262948 0)
(0.0339269 0.00258002 0)
(0.0349008 0.00252258 0)
(0.0358444 0.00245773 0)
(0.0367561 0.00238609 0)
(0.0376346 0.00230831 0)
(0.0384787 0.00222508 0)
(0.0392875 0.00213709 0)
(0.0400602 0.00204504 0)
(0.0407961 0.00194962 0)
(0.041495 0.00185152 0)
(0.0421566 0.0017514 0)
(0.0427808 0.00164992 0)
(0.0433678 0.00154767 0)
(0.0439177 0.00144525 0)
(0.0444309 0.00134318 0)
(0.0449079 0.00124196 0)
(0.0453493 0.00114206 0)
(0.0457558 0.00104389 0)
(0.046128 0.000947806 0)
(0.046467 0.000854146 0)
(0.0467734 0.00076319 0)
(0.0470484 0.00067518 0)
(0.0472929 0.000590321 0)
(0.0475079 0.000508776 0)
(0.0476945 0.000430676 0)
(0.0478537 0.000356118 0)
(0.0479866 0.000285168 0)
(0.0480944 0.000217864 0)
(0.0481781 0.000154221 0)
(0.0482388 9.42263e-05 0)
(0.0482776 3.78513e-05 0)
(0.0482956 -1.49534e-05 0)
(0.0482938 -6.42516e-05 0)
(0.0482734 -0.000110122 0)
(0.0482352 -0.000152654 0)
(0.0481803 -0.000191947 0)
(0.0481098 -0.00022811 0)
(0.0480245 -0.000261256 0)
(0.0479255 -0.000291506 0)
(0.0478135 -0.000318981 0)
(0.0476895 -0.000343812 0)
(0.0475544 -0.000366121 0)
(0.0474089 -0.000386047 0)
(0.0472539 -0.000403703 0)
(0.0470901 -0.000419246 0)
(0.0469182 -0.00043276 0)
(0.0467389 -0.000444441 0)
(0.046553 -0.000454311 0)
(0.0463611 -0.000462648 0)
(0.0461637 -0.000469343 0)
(0.0459614 -0.000474851 0)
(0.0457547 -0.000478804 0)
(0.0455443 -0.000482004 0)
(0.0453303 -0.000483589 0)
(0.0451139 -0.000485021 0)
(0.0448941 -0.000484544 0)
(0.0446736 -0.000484781 0)
(0.0444491 -0.000482466 0)
(0.0442265 -0.000482122 0)
(0.0439975 -0.000478144 0)
(0.0437756 -0.000477831 0)
(0.0435408 -0.000472461 0)
(0.0433236 -0.000472613 0)
(0.0430794 -0.000466655 0)
(0.0428736 -0.000467068 0)
(0.0426125 -0.000462836 0)
(0.0424299 -0.000461932 0)
(0.0421378 -0.000464373 0)
(0.042 -0.000460006 0)
(0.0416524 -0.000473117 0)
(-0.00781848 -0.000314297 0)
(-0.00792269 -0.000310276 0)
(-0.00801812 -0.00030546 0)
(-0.00810394 -0.000299735 0)
(-0.00817964 -0.000293184 0)
(-0.00824444 -0.000285674 0)
(-0.00829771 -0.000277253 0)
(-0.00833867 -0.000267797 0)
(-0.00836656 -0.000257305 0)
(-0.00838058 -0.000245654 0)
(-0.00837988 -0.000232802 0)
(-0.00836357 -0.000218617 0)
(-0.00833071 -0.000203019 0)
(-0.00828032 -0.000185865 0)
(-0.00821137 -0.000167041 0)
(-0.00812279 -0.000146392 0)
(-0.00801345 -0.000123781 0)
(-0.00788221 -9.90402e-05 0)
(-0.00772786 -7.20191e-05 0)
(-0.0075492 -4.25507e-05 0)
(-0.00734498 -1.04829e-05 0)
(-0.00711398 2.43385e-05 0)
(-0.00685493 6.20474e-05 0)
(-0.00656665 0.000102767 0)
(-0.00624794 0.000146592 0)
(-0.00589768 0.000193591 0)
(-0.00551483 0.000243797 0)
(-0.00509841 0.000297201 0)
(-0.00464759 0.000353749 0)
(-0.00416167 0.000413335 0)
(-0.00364007 0.000475797 0)
(-0.00308243 0.000540916 0)
(-0.00248854 0.000608409 0)
(-0.00185844 0.000677937 0)
(-0.00119237 0.000749098 0)
(-0.000490793 0.000821435 0)
(0.000245555 0.000894437 0)
(0.0010157 0.000967551 0)
(0.00181843 0.00104018 0)
(0.00265226 0.00111171 0)
(0.00351548 0.0011815 0)
(0.00440612 0.00124889 0)
(0.00532201 0.00131326 0)
(0.00626076 0.00137397 0)
(0.0072198 0.00143043 0)
(0.00819639 0.00148208 0)
(0.00918764 0.0015284 0)
(0.0101906 0.00156896 0)
(0.0112021 0.00160336 0)
(0.012219 0.00163128 0)
(0.0132382 0.0016525 0)
(0.0142565 0.00166686 0)
(0.0152707 0.00167426 0)
(0.0162778 0.00167472 0)
(0.0172747 0.00166831 0)
(0.0182586 0.00165518 0)
(0.0192266 0.00163554 0)
(0.0201762 0.00160968 0)
(0.0211048 0.00157793 0)
(0.0220102 0.00154067 0)
(0.0228903 0.00149832 0)
(0.0237432 0.00145135 0)
(0.0245671 0.00140021 0)
(0.0253605 0.00134543 0)
(0.0261222 0.00128748 0)
(0.0268511 0.00122689 0)
(0.0275462 0.00116416 0)
(0.0282069 0.00109977 0)
(0.0288327 0.0010342 0)
(0.0294232 0.000967907 0)
(0.0299783 0.000901322 0)
(0.0304979 0.00083485 0)
(0.0309823 0.000768866 0)
(0.0314317 0.000703715 0)
(0.0318466 0.00063971 0)
(0.0322275 0.00057713 0)
(0.0325749 0.000516222 0)
(0.0328898 0.0004572 0)
(0.0331728 0.000400249 0)
(0.033425 0.000345519 0)
(0.0336472 0.000293135 0)
(0.0338404 0.000243192 0)
(0.0340058 0.000195761 0)
(0.0341445 0.000150887 0)
(0.0342575 0.000108594 0)
(0.034346 6.88869e-05 0)
(0.0344111 3.17514e-05 0)
(0.0344542 -2.84225e-06 0)
(0.0344762 -3.49383e-05 0)
(0.0344784 -6.45928e-05 0)
(0.0344619 -9.18727e-05 0)
(0.034428 -0.000116853 0)
(0.0343776 -0.000139618 0)
(0.0343119 -0.000160255 0)
(0.0342321 -0.000178857 0)
(0.034139 -0.000195523 0)
(0.0340338 -0.000210348 0)
(0.0339175 -0.000223438 0)
(0.033791 -0.000234887 0)
(0.0336551 -0.000244805 0)
(0.0335109 -0.000253276 0)
(0.033359 -0.000260426 0)
(0.0332004 -0.000266307 0)
(0.0330358 -0.000271083 0)
(0.0328659 -0.000274741 0)
(0.0326913 -0.000277528 0)
(0.0325127 -0.000279299 0)
(0.0323309 -0.000280473 0)
(0.0321459 -0.000280649 0)
(0.031959 -0.000280591 0)
(0.0317696 -0.000279406 0)
(0.0315798 -0.000278511 0)
(0.0313873 -0.00027613 0)
(0.0311965 -0.000274824 0)
(0.0310018 -0.000271341 0)
(0.0308122 -0.000270075 0)
(0.0306152 -0.000265565 0)
(0.0304292 -0.00026474 0)
(0.0302286 -0.000259468 0)
(0.0300497 -0.000259178 0)
(0.0298424 -0.000254148 0)
(0.0296755 -0.000253624 0)
(0.0294557 -0.000251713 0)
(0.0293084 -0.000248628 0)
(0.0290668 -0.000255983 0)
(0.0289518 -0.000247754 0)
(0.0286731 -0.000271108 0)
(-0.00701492 -0.00015656 0)
(-0.00716376 -0.00015741 0)
(-0.00731016 -0.000158 0)
(-0.00745356 -0.0001583 0)
(-0.00759361 -0.000158351 0)
(-0.0077298 -0.000158104 0)
(-0.00786169 -0.000157591 0)
(-0.00798877 -0.000156761 0)
(-0.00811052 -0.000155626 0)
(-0.00822639 -0.000154133 0)
(-0.00833577 -0.000152271 0)
(-0.00843803 -0.000149982 0)
(-0.00853246 -0.000147232 0)
(-0.00861832 -0.000143952 0)
(-0.0086948 -0.000140086 0)
(-0.00876101 -0.000135552 0)
(-0.00881601 -0.000130273 0)
(-0.00885878 -0.000124152 0)
(-0.00888821 -0.000117092 0)
(-0.00890314 -0.000108984 0)
(-0.00890232 -9.97181e-05 0)
(-0.00888445 -8.91766e-05 0)
(-0.00884815 -7.72451e-05 0)
(-0.00879201 -6.38068e-05 0)
(-0.00871456 -4.87537e-05 0)
(-0.00861431 -3.19841e-05 0)
(-0.00848977 -1.34118e-05 0)
(-0.00833946 7.03378e-06 0)
(-0.00816191 2.93994e-05 0)
(-0.00795575 5.37065e-05 0)
(-0.00771965 7.99447e-05 0)
(-0.00745242 0.00010807 0)
(-0.00715301 0.000138001 0)
(-0.0068205 0.000169615 0)
(-0.00645419 0.00020275 0)
(-0.00605359 0.000237203 0)
(-0.00561845 0.000272732 0)
(-0.00514876 0.000309057 0)
(-0.00464479 0.000345866 0)
(-0.0041071 0.000382819 0)
(-0.00353653 0.000419553 0)
(-0.0029342 0.000455692 0)
(-0.00230155 0.000490852 0)
(-0.00164026 0.000524648 0)
(-0.000952308 0.000556705 0)
(-0.000239895 0.000586663 0)
(0.000494534 0.000614186 0)
(0.00124834 0.000638969 0)
(0.00201871 0.000660741 0)
(0.00280269 0.000679273 0)
(0.00359721 0.000694381 0)
(0.00439914 0.000705928 0)
(0.0052053 0.000713825 0)
(0.00601249 0.000718033 0)
(0.00681756 0.00071856 0)
(0.00761741 0.000715463 0)
(0.00840901 0.00070884 0)
(0.00918947 0.00069883 0)
(0.00995602 0.00068561 0)
(0.0107061 0.000669386 0)
(0.0114372 0.000650393 0)
(0.0121471 0.000628887 0)
(0.0128339 0.00060514 0)
(0.0134957 0.000579436 0)
(0.0141309 0.000552065 0)
(0.0147382 0.000523319 0)
(0.0153164 0.000493488 0)
(0.0158647 0.000462855 0)
(0.0163823 0.000431694 0)
(0.0168686 0.000400263 0)
(0.0173236 0.000368808 0)
(0.0177469 0.000337556 0)
(0.0181388 0.000306715 0)
(0.0184994 0.000276471 0)
(0.0188292 0.000246991 0)
(0.0191287 0.000218421 0)
(0.0193986 0.000190884 0)
(0.0196396 0.000164484 0)
(0.0198526 0.000139305 0)
(0.0200387 0.00011541 0)
(0.0201987 9.28457e-05 0)
(0.0203339 7.16425e-05 0)
(0.0204454 5.18146e-05 0)
(0.0205342 3.3363e-05 0)
(0.0206017 1.62764e-05 0)
(0.0206491 5.32681e-07 0)
(0.0206775 -1.38995e-05 0)
(0.0206882 -2.7059e-05 0)
(0.0206824 -3.89916e-05 0)
(0.0206612 -4.97477e-05 0)
(0.0206259 -5.93823e-05 0)
(0.0205775 -6.79526e-05 0)
(0.0205171 -7.55184e-05 0)
(0.0204459 -8.21398e-05 0)
(0.0203648 -8.7878e-05 0)
(0.0202748 -9.27934e-05 0)
(0.0201768 -9.69452e-05 0)
(0.0200717 -0.000100393 0)
(0.0199604 -0.000103191 0)
(0.0198436 -0.000105398 0)
(0.0197221 -0.000107058 0)
(0.0195965 -0.000108236 0)
(0.0194676 -0.000108956 0)
(0.0193358 -0.0001093 0)
(0.0192018 -0.000109255 0)
(0.0190661 -0.000108944 0)
(0.0189289 -0.000108284 0)