/*--------------------------------*- C++ -*----------------------------------*\
| =========                 |                                                 |
| \\      /  F ield         | OpenFOAM: The Open Source CFD Toolbox           |
|  \\    /   O peration     | Version:  4.1                                   |
|   \\  /    A nd           | Web:      www.OpenFOAM.org                      |
|    \\/     M anipulation  |                                                 |
\*---------------------------------------------------------------------------*/
FoamFile
{
    version     2.0;
    format      ascii;
    class       volVectorField;
    location    "990";
    object      U;
}
// * * * * * * * * * * * * * * * * * * * * * * * * * * * * * * * * * * * * * //

dimensions      [0 1 -1 0 0 0 0];

internalField   nonuniform List<vector> 
1275
(
(0.0105852 4.52147e-05 0)
(0.0100739 3.80559e-05 0)
(0.00956983 3.16313e-05 0)
(0.0090735 2.60467e-05 0)
(0.00858562 2.11764e-05 0)
(0.00810688 1.71085e-05 0)
(0.00763779 1.373e-05 0)
(0.00717913 1.10936e-05 0)
(0.00673138 9.09857e-06 0)
(0.00629535 7.75475e-06 0)
(0.00587155 6.95457e-06 0)
(0.00546079 6.65487e-06 0)
(0.0050636 6.7208e-06 0)
(0.00468077 7.0522e-06 0)
(0.00431279 7.48256e-06 0)
(0.00396038 7.87202e-06 0)
(0.00362396 8.04789e-06 0)
(0.00330407 7.87717e-06 0)
(0.00300097 7.23478e-06 0)
(0.00271492 6.05827e-06 0)
(0.00244591 4.32751e-06 0)
(0.00219388 2.09761e-06 0)
(0.00195848 -5.24404e-07 0)
(0.00173931 -3.37133e-06 0)
(0.00153578 -6.24822e-06 0)
(0.00134729 -8.94302e-06 0)
(0.00117312 -1.1262e-05 0)
(0.00101264 -1.30447e-05 0)
(0.000865178 -1.41895e-05 0)
(0.000730125 -1.46578e-05 0)
(0.000606833 -1.44809e-05 0)
(0.000494643 -1.37486e-05 0)
(0.000392823 -1.25987e-05 0)
(0.000300594 -1.11942e-05 0)
(0.000217125 -9.70468e-06 0)
(0.000141588 -8.28239e-06 0)
(7.31703e-05 -7.04632e-06 0)
(1.11228e-05 -6.06883e-06 0)
(-4.52419e-05 -5.37253e-06 0)
(-9.65393e-05 -4.93367e-06 0)
(-0.00014333 -4.69438e-06 0)
(-0.000186124 -4.57796e-06 0)
(-0.000225391 -4.50585e-06 0)
(-0.000261558 -4.41068e-06 0)
(-0.000295009 -4.24482e-06 0)
(-0.000326083 -3.98285e-06 0)
(-0.000355075 -3.61992e-06 0)
(-0.000382236 -3.16687e-06 0)
(-0.000407782 -2.64473e-06 0)
(-0.000431895 -2.07909e-06 0)
(-0.000454729 -1.49586e-06 0)
(-0.000476416 -9.18034e-07 0)
(-0.00049706 -3.64059e-07 0)
(-0.000516745 1.52963e-07 0)
(-0.000535532 6.25065e-07 0)
(-0.000553461 1.0488e-06 0)
(-0.000570553 1.42423e-06 0)
(-0.000586807 1.7539e-06 0)
(-0.000602207 2.04186e-06 0)
(-0.000616724 2.29276e-06 0)
(-0.000630312 2.51126e-06 0)
(-0.000642916 2.70158e-06 0)
(-0.000654472 2.86722e-06 0)
(-0.000664906 3.0109e-06 0)
(-0.000674139 3.13452e-06 0)
(-0.000682085 3.23932e-06 0)
(-0.000688652 3.3259e-06 0)
(-0.000693746 3.39445e-06 0)
(-0.000697269 3.44482e-06 0)
(-0.00069912 3.47664e-06 0)
(-0.000699197 3.48945e-06 0)
(-0.000697396 3.48272e-06 0)
(-0.000693611 3.45592e-06 0)
(-0.000687736 3.40857e-06 0)
(-0.000679666 3.34021e-06 0)
(-0.000669295 3.25044e-06 0)
(-0.000656515 3.13892e-06 0)
(-0.00064122 3.00532e-06 0)
(-0.000623305 2.84936e-06 0)
(-0.000602664 2.67076e-06 0)
(-0.000579192 2.46925e-06 0)
(-0.000552782 2.24451e-06 0)
(-0.000523331 1.99626e-06 0)
(-0.000490734 1.7241e-06 0)
(-0.000454884 1.42769e-06 0)
(-0.00041568 1.10654e-06 0)
(-0.000373013 7.60207e-07 0)
(-0.000326782 3.88126e-07 0)
(-0.000276878 -1.02571e-08 0)
(-0.000223202 -4.35543e-07 0)
(-0.000165643 -8.88421e-07 0)
(-0.000104105 -1.3694e-06 0)
(-3.84742e-05 -1.87941e-06 0)
(3.13399e-05 -2.41857e-06 0)
(0.000105453 -2.98832e-06 0)
(0.000183948 -3.58784e-06 0)
(0.000266941 -4.2197e-06 0)
(0.000354511 -4.88098e-06 0)
(0.000446761 -5.57686e-06 0)
(0.000543777 -6.30001e-06 0)
(0.000645628 -7.06122e-06 0)
(0.000752441 -7.84438e-06 0)
(0.000864184 -8.67171e-06 0)
(0.000981119 -9.51023e-06 0)
(0.00110297 -1.04044e-05 0)
(0.00123034 -1.12899e-05 0)
(0.00136238 -1.22524e-05 0)
(0.00150053 -1.31716e-05 0)
(0.00164267 -1.42062e-05 0)
(0.00179205 -1.51402e-05 0)
(0.00194387 -1.62549e-05 0)
(0.00210516 -1.7179e-05 0)
(0.00226576 -1.83868e-05 0)
(0.0024402 -1.92749e-05 0)
(0.0026078 -2.05916e-05 0)
(0.00279761 -2.14296e-05 0)
(0.0029691 -2.28632e-05 0)
(0.0031782 -2.36892e-05 0)
(0.00334836 -2.52102e-05 0)
(0.00358345 -2.62241e-05 0)
(0.00374417 -2.7706e-05 0)
(0.00401589 -2.95861e-05 0)
(0.00415608 -3.07366e-05 0)
(0.00448004 -3.56537e-05 0)
(0.00458876 -3.62171e-05 0)
(0.00498517 -5.15808e-05 0)
(0.00506701 -5.36333e-05 0)
(0.00555929 -0.000117557 0)
(0.0353315 0.000993538 0)
(0.0342525 0.000987462 0)
(0.033149 0.000978893 0)
(0.0320241 0.000968315 0)
(0.0308807 0.000955464 0)
(0.0297221 0.000940692 0)
(0.0285515 0.000923758 0)
(0.0273722 0.000904898 0)
(0.0261875 0.000883943 0)
(0.0250011 0.000861069 0)
(0.0238165 0.000836206 0)
(0.0226377 0.000809534 0)
(0.0214682 0.000781095 0)
(0.0203123 0.000751123 0)
(0.0191736 0.000719785 0)
(0.0180561 0.000687391 0)
(0.0169636 0.000654221 0)
(0.0158996 0.000620653 0)
(0.0148674 0.000587034 0)
(0.0138702 0.000553753 0)
(0.0129105 0.000521139 0)
(0.0119907 0.000489493 0)
(0.0111126 0.000459012 0)
(0.0102776 0.000429804 0)
(0.00948662 0.000401854 0)
(0.0087401 0.000375054 0)
(0.00803808 0.00034922 0)
(0.00738018 0.000324157 0)
(0.0067656 0.00029971 0)
(0.00619324 0.000275826 0)
(0.00566168 0.000252574 0)
(0.00516929 0.000230141 0)
(0.00471425 0.000208787 0)
(0.00429461 0.000188788 0)
(0.00390837 0.000170373 0)
(0.00355352 0.000153688 0)
(0.00322805 0.000138777 0)
(0.00293 0.000125593 0)
(0.00265745 0.000114024 0)
(0.00240852 0.000103917 0)
(0.00218141 9.51039e-05 0)
(0.00197431 8.74118e-05 0)
(0.00178552 8.06725e-05 0)
(0.00161339 7.47291e-05 0)
(0.00145641 6.94409e-05 0)
(0.00131316 6.46896e-05 0)
(0.00118239 6.03815e-05 0)
(0.00106296 5.64479e-05 0)
(0.000953883 5.28407e-05 0)
(0.000854287 4.95264e-05 0)
(0.00076341 4.6479e-05 0)
(0.000680588 4.3674e-05 0)
(0.000605251 4.10842e-05 0)
(0.000536911 3.86785e-05 0)
(0.000475154 3.64215e-05 0)
(0.00041964 3.42747e-05 0)
(0.000370088 3.2199e-05 0)
(0.00032628 3.01557e-05 0)
(0.000288048 2.81084e-05 0)
(0.00025527 2.60239e-05 0)
(0.000227869 2.38727e-05 0)
(0.000205803 2.16292e-05 0)
(0.000189064 1.92717e-05 0)
(0.000177672 1.6782e-05 0)
(0.000171673 1.41452e-05 0)
(0.000171135 1.13491e-05 0)
(0.000176142 8.38401e-06 0)
(0.000186797 5.24253e-06 0)
(0.000203214 1.91886e-06 0)
(0.000225519 -1.59122e-06 0)
(0.000253845 -5.29073e-06 0)
(0.000288335 -9.18165e-06 0)
(0.000329134 -1.32652e-05 0)
(0.000376394 -1.75418e-05 0)
(0.000430268 -2.20116e-05 0)
(0.000490913 -2.66743e-05 0)
(0.000558485 -3.15293e-05 0)
(0.000633142 -3.65759e-05 0)
(0.000715044 -4.18133e-05 0)
(0.000804347 -4.72406e-05 0)
(0.000901209 -5.28571e-05 0)
(0.00100579 -5.8662e-05 0)
(0.00111824 -6.46546e-05 0)
(0.00123871 -7.08345e-05 0)
(0.00136736 -7.72008e-05 0)
(0.00150435 -8.37535e-05 0)
(0.00164981 -9.04916e-05 0)
(0.00180389 -9.7415e-05 0)
(0.00196675 -0.000104522 0)
(0.00213851 -0.000111813 0)
(0.00231932 -0.000119287 0)
(0.0025093 -0.00012694 0)
(0.0027086 -0.000134773 0)
(0.00291731 -0.00014278 0)
(0.00313559 -0.000150961 0)
(0.0033635 -0.000159308 0)
(0.00360118 -0.000167822 0)
(0.00384869 -0.000176485 0)
(0.00410615 -0.00018531 0)
(0.0043736 -0.000194257 0)
(0.0046511 -0.000203366 0)
(0.00493874 -0.000212549 0)
(0.00523644 -0.000221912 0)
(0.00554444 -0.000231266 0)
(0.00586237 -0.000240855 0)
(0.00619085 -0.000250292 0)
(0.0065288 -0.000260094 0)
(0.00687787 -0.000269488 0)
(0.00723537 -0.000279523 0)
(0.00760524 -0.000288698 0)
(0.00798137 -0.000299049 0)
(0.00837258 -0.000307753 0)
(0.00876571 -0.000318605 0)
(0.00917952 -0.000326485 0)
(0.00958685 -0.000338169 0)
(0.0100259 -0.000344762 0)
(0.0104427 -0.000357778 0)
(0.0109121 -0.000362587 0)
(0.0113307 -0.000377526 0)
(0.0118395 -0.000380351 0)
(0.0122477 -0.000397548 0)
(0.0128109 -0.000399554 0)
(0.0131909 -0.00041812 0)
(0.0138306 -0.000424873 0)
(0.0141599 -0.000440636 0)
(0.0149043 -0.00047051 0)
(0.0151584 -0.000474055 0)
(0.0160356 -0.000579667 0)
(0.0587086 0.00216615 0)
(0.0576111 0.00221147 0)
(0.0564598 0.00225097 0)
(0.0552563 0.00228544 0)
(0.0540023 0.0023142 0)
(0.0526996 0.00233769 0)
(0.0513499 0.00235528 0)
(0.0499554 0.00236711 0)
(0.0485183 0.0023726 0)
(0.0470412 0.0023717 0)
(0.045527 0.00236391 0)
(0.043979 0.00234908 0)
(0.0424008 0.00232684 0)
(0.0407967 0.00229707 0)
(0.0391711 0.00225959 0)
(0.0375292 0.00221441 0)
(0.0358767 0.00216162 0)
(0.0342196 0.00210149 0)
(0.0325645 0.00203441 0)
(0.0309182 0.00196099 0)
(0.0292878 0.00188193 0)
(0.0276808 0.00179815 0)
(0.0261045 0.00171065 0)
(0.0245659 0.00162053 0)
(0.0230718 0.00152895 0)
(0.0216284 0.00143705 0)
(0.0202412 0.00134593 0)
(0.0189148 0.00125657 0)
(0.0176526 0.00116984 0)
(0.0164572 0.0010864 0)
(0.0153301 0.00100675 0)
(0.0142718 0.000931209 0)
(0.0132819 0.000859899 0)
(0.0123594 0.000792816 0)
(0.0115024 0.000729842 0)
(0.0107087 0.000670796 0)
(0.00997551 0.000615481 0)
(0.00929989 0.000563726 0)
(0.00867859 0.000515413 0)
(0.00810833 0.000470486 0)
(0.00758584 0.000428922 0)
(0.00710792 0.000390705 0)
(0.00667149 0.000355784 0)
(0.00627363 0.000324047 0)
(0.00591155 0.000295319 0)
(0.00558265 0.000269366 0)
(0.00528449 0.000245921 0)
(0.00501476 0.000224703 0)
(0.00477135 0.000205433 0)
(0.0045523 0.000187851 0)
(0.00435582 0.000171714 0)
(0.00418027 0.000156807 0)
(0.00402419 0.000142934 0)
(0.00388626 0.00012992 0)
(0.00376532 0.000117611 0)
(0.00366034 0.000105868 0)
(0.00357043 9.45689e-05 0)
(0.00349482 8.36074e-05 0)
(0.00343284 7.28885e-05 0)
(0.00338393 6.23288e-05 0)
(0.00334762 5.18547e-05 0)
(0.0033235 4.14011e-05 0)
(0.00331123 3.09106e-05 0)
(0.00331054 2.03325e-05 0)
(0.00332121 9.62245e-06 0)
(0.00334307 -1.25825e-06 0)
(0.00337598 -1.2343e-05 0)
(0.00341982 -2.36603e-05 0)
(0.00347454 -3.52342e-05 0)
(0.00354008 -4.70847e-05 0)
(0.00361642 -5.9228e-05 0)
(0.00370354 -7.16773e-05 0)
(0.00380146 -8.44426e-05 0)
(0.00391019 -9.75318e-05 0)
(0.00402977 -0.000110951 0)
(0.00416022 -0.000124703 0)
(0.00430161 -0.000138791 0)
(0.00445397 -0.000153216 0)
(0.00461738 -0.000167979 0)
(0.00479188 -0.000183079 0)
(0.00497753 -0.000198515 0)
(0.00517441 -0.000214286 0)
(0.00538258 -0.000230389 0)
(0.0056021 -0.000246823 0)
(0.00583304 -0.000263583 0)
(0.00607544 -0.000280668 0)
(0.00632939 -0.000298072 0)
(0.00659492 -0.000315792 0)
(0.0068721 -0.000333822 0)
(0.00716097 -0.000352156 0)
(0.00746158 -0.000370786 0)
(0.00777396 -0.000389706 0)
(0.00809814 -0.000408903 0)
(0.00843413 -0.000428368 0)
(0.00878197 -0.000448088 0)
(0.00914163 -0.000468046 0)
(0.00951314 -0.000488233 0)
(0.00989643 -0.000508616 0)
(0.0102915 -0.0005292 0)
(0.0106983 -0.000549918 0)
(0.0111168 -0.000570821 0)
(0.0115469 -0.000591764 0)
(0.0119885 -0.000612899 0)
(0.0124415 -0.000633925 0)
(0.0129057 -0.000655217 0)
(0.0133813 -0.000676145 0)
(0.0138675 -0.000697543 0)
(0.0143652 -0.000718136 0)
(0.0148725 -0.000739657 0)
(0.015392 -0.000759594 0)
(0.0159191 -0.00078137 0)
(0.0164604 -0.000800202 0)
(0.0170053 -0.000822562 0)
(0.017569 -0.000839666 0)
(0.0181288 -0.000863216 0)
(0.0187169 -0.00087777 0)
(0.0192867 -0.00090345 0)
(0.0199039 -0.000914534 0)
(0.0204756 -0.000943523 0)
(0.0211307 -0.000950611 0)
(0.0216913 -0.000983801 0)
(0.0224003 -0.000988246 0)
(0.0229287 -0.00102476 0)
(0.0237177 -0.00103345 0)
(0.0241816 -0.00106761 0)
(0.0250909 -0.00109999 0)
(0.0254379 -0.00111871 0)
(0.0265261 -0.00121149 0)
(0.0785616 0.00313972 0)
(0.0776039 0.00324302 0)
(0.07659 0.0033402 0)
(0.0755201 0.00343229 0)
(0.0743939 0.00351844 0)
(0.0732115 0.00359916 0)
(0.0719725 0.0036736 0)
(0.0706772 0.00374183 0)
(0.0693253 0.00380299 0)
(0.0679173 0.0038568 0)
(0.0664534 0.0039024 0)
(0.0649344 0.00393925 0)
(0.0633612 0.00396648 0)
(0.0617353 0.00398346 0)
(0.0600582 0.00398937 0)
(0.0583325 0.00398356 0)
(0.0565607 0.00396535 0)
(0.0547465 0.00393423 0)
(0.0528938 0.00388976 0)
(0.0510075 0.00383169 0)
(0.049093 0.00375991 0)
(0.0471568 0.00367458 0)
(0.0452058 0.00357605 0)
(0.0432477 0.00346493 0)
(0.041291 0.00334212 0)
(0.0393445 0.00320877 0)
(0.0374175 0.0030663 0)
(0.0355195 0.00291638 0)
(0.0336599 0.00276087 0)
(0.0318479 0.00260178 0)
(0.0300921 0.00244117 0)
(0.0284004 0.0022811 0)
(0.0267795 0.0021235 0)
(0.0252353 0.00197011 0)
(0.023772 0.00182239 0)
(0.0223926 0.00168148 0)
(0.0210987 0.00154816 0)
(0.0198905 0.0014229 0)
(0.0187672 0.00130583 0)
(0.0177268 0.00119688 0)
(0.0167665 0.00109576 0)
(0.0158832 0.00100208 0)
(0.0150731 0.000915375 0)
(0.0143322 0.000835166 0)
(0.0136566 0.000760978 0)
(0.0130421 0.00069236 0)
(0.0124848 0.000628891 0)
(0.0119809 0.000570178 0)
(0.0115267 0.00051585 0)
(0.0111189 0.000465552 0)
(0.0107542 0.000418939 0)
(0.0104298 0.000375666 0)
(0.0101431 0.000335396 0)
(0.00989139 0.000297795 0)
(0.0096726 0.000262539 0)
(0.00948464 0.000229317 0)
(0.00932566 0.00019784 0)
(0.00919396 0.000167837 0)
(0.00908802 0.000139066 0)
(0.00900648 0.000111306 0)
(0.00894811 8.43627e-05 0)
(0.00891179 5.80632e-05 0)
(0.00889654 3.22575e-05 0)
(0.00890148 6.81479e-06 0)
(0.00892583 -1.83782e-05 0)
(0.00896888 -4.34188e-05 0)
(0.00903002 -6.83904e-05 0)
(0.00910868 -9.33642e-05 0)
(0.00920438 -0.000118401 0)
(0.00931666 -0.00014355 0)
(0.00944515 -0.000168855 0)
(0.00958948 -0.000194352 0)
(0.00974934 -0.000220069 0)
(0.00992444 -0.000246031 0)
(0.0101145 -0.000272256 0)
(0.0103194 -0.000298761 0)
(0.0105388 -0.000325557 0)
(0.0107725 -0.000352654 0)
(0.0110204 -0.000380058 0)
(0.0112824 -0.000407776 0)
(0.0115582 -0.000435808 0)
(0.0118478 -0.000464158 0)
(0.0121509 -0.000492824 0)
(0.0124675 -0.000521806 0)
(0.0127975 -0.0005511 0)
(0.0131407 -0.000580702 0)
(0.0134971 -0.000610604 0)
(0.0138665 -0.000640802 0)
(0.0142488 -0.000671285 0)
(0.0146438 -0.000702042 0)
(0.0150516 -0.00073306 0)
(0.0154719 -0.000764325 0)
(0.0159047 -0.000795819 0)
(0.0163497 -0.000827523 0)
(0.016807 -0.000859414 0)
(0.0172762 -0.000891466 0)
(0.0177573 -0.000923659 0)
(0.0182501 -0.000955946 0)
(0.0187544 -0.000988325 0)
(0.01927 -0.00102071 0)
(0.0197968 -0.00105315 0)
(0.0203345 -0.00108546 0)
(0.0208829 -0.00111782 0)
(0.0214418 -0.00114985 0)
(0.0220109 -0.00118201 0)
(0.0225899 -0.00121352 0)
(0.0231786 -0.00124541 0)
(0.0237768 -0.00127607 0)
(0.0243838 -0.00130769 0)
(0.0250002 -0.00133709 0)
(0.025624 -0.00136861 0)
(0.0262581 -0.00139618 0)
(0.0268967 -0.00142803 0)
(0.0275482 -0.00145296 0)
(0.0281989 -0.00148597 0)
(0.0288688 -0.00150719 0)
(0.0295273 -0.00154265 0)
(0.030219 -0.00155889 0)
(0.0308779 -0.00159849 0)
(0.0315992 -0.0016088 0)
(0.0322456 -0.00165402 0)
(0.0330118 -0.00165938 0)
(0.0336226 -0.00170971 0)
(0.0344627 -0.00171667 0)
(0.0349967 -0.00176631 0)
(0.0359612 -0.00179284 0)
(0.036346 -0.00182686 0)
(0.0375157 -0.00190622 0)
(0.0952055 0.00402035 0)
(0.0943816 0.00417786 0)
(0.0935087 0.00432932 0)
(0.0925868 0.00447621 0)
(0.0916143 0.00461751 0)
(0.0905911 0.00475395 0)
(0.0895155 0.0048846 0)
(0.0883872 0.00500958 0)
(0.0872046 0.00512796 0)
(0.0859672 0.00523937 0)
(0.0846736 0.00534282 0)
(0.0833235 0.00543761 0)
(0.0819159 0.00552266 0)
(0.0804506 0.00559705 0)
(0.0789271 0.00565965 0)
(0.0773457 0.00570945 0)
(0.0757067 0.00574532 0)
(0.0740111 0.00576627 0)
(0.0722602 0.00577132 0)
(0.0704558 0.0057596 0)
(0.0686005 0.00573035 0)
(0.0666972 0.00568299 0)
(0.0647499 0.00561709 0)
(0.0627629 0.00553245 0)
(0.0607415 0.00542908 0)
(0.0586919 0.00530727 0)
(0.0566206 0.00516759 0)
(0.0545353 0.0050109 0)
(0.0524441 0.00483836 0)
(0.0503559 0.00465146 0)
(0.04828 0.00445197 0)
(0.0462262 0.00424195 0)
(0.0442043 0.00402366 0)
(0.0422242 0.00379956 0)
(0.0402954 0.00357219 0)
(0.0384272 0.0033441 0)
(0.0366278 0.00311778 0)
(0.0349044 0.00289554 0)
(0.0332634 0.00267946 0)
(0.0317093 0.00247129 0)
(0.0302457 0.00227244 0)
(0.0288747 0.0020839 0)
(0.0275968 0.00190632 0)
(0.0264116 0.00173994 0)
(0.0253175 0.00158472 0)
(0.0243121 0.00144035 0)
(0.0233922 0.00130632 0)
(0.0225542 0.00118201 0)
(0.0217941 0.0010667 0)
(0.0211078 0.000959653 0)
(0.0204912 0.000860149 0)
(0.0199402 0.000767479 0)
(0.0194506 0.000680982 0)
(0.0190188 0.00060004 0)
(0.0186411 0.000524083 0)
(0.0183141 0.000452585 0)
(0.0180347 0.000385065 0)
(0.0177999 0.000321078 0)
(0.0176071 0.000260218 0)
(0.0174537 0.000202115 0)
(0.0173375 0.00014643 0)
(0.0172564 9.28532e-05 0)
(0.0172084 4.11073e-05 0)
(0.0171918 -9.05897e-06 0)
(0.017205 -5.78706e-05 0)
(0.0172465 -0.000105528 0)
(0.0173149 -0.000152209 0)
(0.017409 -0.00019807 0)
(0.0175276 -0.00024325 0)
(0.0176698 -0.000287868 0)
(0.0178345 -0.00033203 0)
(0.0180209 -0.000375828 0)
(0.018228 -0.000419339 0)
(0.0184553 -0.000462632 0)
(0.0187019 -0.000505765 0)
(0.0189673 -0.00054879 0)
(0.0192508 -0.000591748 0)
(0.0195518 -0.000634677 0)
(0.01987 -0.000677606 0)
(0.0202046 -0.000720562 0)
(0.0205554 -0.000763566 0)
(0.0209219 -0.000806635 0)
(0.0213036 -0.000849782 0)
(0.0217003 -0.000893017 0)
(0.0221114 -0.000936345 0)
(0.0225367 -0.000979771 0)
(0.0229759 -0.00102329 0)
(0.0234286 -0.00106691 0)
(0.0238944 -0.00111061 0)
(0.0243731 -0.00115438 0)
(0.0248644 -0.00119821 0)
(0.025368 -0.00124209 0)
(0.0258835 -0.00128599 0)
(0.0264107 -0.00132989 0)
(0.0269492 -0.00137376 0)
(0.0274988 -0.00141757 0)
(0.0280592 -0.00146128 0)
(0.0286299 -0.00150484 0)
(0.0292108 -0.00154825 0)
(0.0298013 -0.0015914 0)
(0.0304014 -0.00163432 0)
(0.0310105 -0.00167684 0)
(0.0316285 -0.00171911 0)
(0.0322547 -0.00176076 0)
(0.0328891 -0.00180221 0)
(0.0335309 -0.00184271 0)
(0.0341804 -0.00188321 0)
(0.0348363 -0.00192222 0)
(0.0354992 -0.00196176 0)
(0.0361677 -0.00199883 0)
(0.0368425 -0.00203756 0)
(0.0375224 -0.00207212 0)
(0.0382072 -0.00211049 0)
(0.0388974 -0.00214174 0)
(0.03959 -0.00218061 0)
(0.0402904 -0.00220747 0)
(0.0409873 -0.00224827 0)
(0.0417 -0.00226939 0)
(0.042395 -0.00231409 0)
(0.0431259 -0.00232822 0)
(0.0438074 -0.00237894 0)
(0.0445707 -0.00238608 0)
(0.0452156 -0.00244365 0)
(0.0460406 -0.00244804 0)
(0.0466046 -0.00250829 0)
(0.047547 -0.00252455 0)
(0.0479465 -0.00257078 0)
(0.0491061 -0.00263059 0)
(0.108109 0.00474352 0)
(0.107448 0.00494392 0)
(0.106746 0.00513917 0)
(0.106004 0.00533092 0)
(0.10522 0.00551829 0)
(0.104392 0.00570207 0)
(0.103518 0.00588148 0)
(0.102599 0.00605662 0)
(0.101631 0.00622666 0)
(0.100614 0.00639117 0)
(0.0995464 0.00654917 0)
(0.0984263 0.00669985 0)
(0.0972523 0.00684204 0)
(0.0960233 0.00697463 0)
(0.0947379 0.00709628 0)
(0.0933953 0.00720571 0)
(0.0919946 0.00730147 0)
(0.0905354 0.00738217 0)
(0.0890175 0.00744637 0)
(0.0874411 0.00749271 0)
(0.0858067 0.00751987 0)
(0.0841157 0.00752664 0)
(0.0823695 0.00751196 0)
(0.0805704 0.00747498 0)
(0.0787213 0.00741503 0)
(0.0768258 0.00733171 0)
(0.0748878 0.00722493 0)
(0.0729124 0.00709489 0)
(0.0709051 0.00694213 0)
(0.068872 0.00676753 0)
(0.06682 0.00657228 0)
(0.0647565 0.00635791 0)
(0.0626895 0.00612623 0)
(0.0606275 0.00587932 0)
(0.0585791 0.00561944 0)
(0.0565533 0.00534907 0)
(0.0545593 0.00507076 0)
(0.0526059 0.00478717 0)
(0.0507019 0.00450093 0)
(0.0488556 0.00421463 0)
(0.0470747 0.00393076 0)
(0.045366 0.00365159 0)
(0.0437356 0.00337918 0)
(0.0421883 0.00311531 0)
(0.0407281 0.00286141 0)
(0.0393575 0.00261861 0)
(0.0380781 0.00238766 0)
(0.0368905 0.00216901 0)
(0.0357941 0.0019628 0)
(0.0347875 0.0017689 0)
(0.0338687 0.00158698 0)
(0.033035 0.00141652 0)
(0.0322833 0.0012569 0)
(0.0316102 0.00110739 0)
(0.031012 0.000967239 0)
(0.030485 0.000835686 0)
(0.0300254 0.000711972 0)
(0.0296297 0.000595372 0)
(0.0292941 0.000485199 0)
(0.0290153 0.000380816 0)
(0.0287898 0.000281635 0)
(0.0286147 0.00018712 0)
(0.0284869 9.67835e-05 0)
(0.0284037 1.01849e-05 0)
(0.0283624 -7.30721e-05 0)
(0.0283607 -0.000153344 0)
(0.0283964 -0.000230949 0)
(0.0284672 -0.000306173 0)
(0.0285713 -0.000379273 0)
(0.0287069 -0.000450475 0)
(0.0288722 -0.000519983 0)
(0.0290657 -0.000587979 0)
(0.029286 -0.000654623 0)
(0.0295316 -0.000720059 0)
(0.0298014 -0.000784416 0)
(0.0300942 -0.000847806 0)
(0.0304088 -0.00091033 0)
(0.0307442 -0.000972076 0)
(0.0310996 -0.00103312 0)
(0.0314739 -0.00109354 0)
(0.0318664 -0.00115339 0)
(0.0322763 -0.00121272 0)
(0.0327027 -0.00127157 0)
(0.0331451 -0.00132999 0)
(0.0336028 -0.00138801 0)
(0.0340751 -0.00144564 0)
(0.0345613 -0.00150291 0)
(0.0350611 -0.00155983 0)
(0.0355737 -0.0016164 0)
(0.0360987 -0.00167264 0)
(0.0366355 -0.00172852 0)
(0.0371836 -0.00178404 0)
(0.0377426 -0.00183918 0)
(0.0383119 -0.00189393 0)
(0.0388911 -0.00194826 0)
(0.0394797 -0.00200213 0)
(0.0400772 -0.0020555 0)
(0.0406832 -0.00210834 0)
(0.0412973 -0.00216061 0)
(0.0419189 -0.00221224 0)
(0.0425476 -0.00226322 0)
(0.0431828 -0.00231341 0)
(0.0438244 -0.00236291 0)
(0.0444715 -0.00241141 0)
(0.0451241 -0.00245924 0)
(0.0457811 -0.00250576 0)
(0.0464429 -0.00255179 0)
(0.047108 -0.00259599 0)
(0.0477774 -0.00264018 0)
(0.0484486 -0.00268164 0)
(0.0491238 -0.00272418 0)
(0.0497994 -0.00276234 0)
(0.0504787 -0.00280369 0)
(0.0511572 -0.00283777 0)
(0.0518386 -0.0028789 0)
(0.052519 -0.00290778 0)
(0.0532001 -0.00295032 0)
(0.0538828 -0.00297247 0)
(0.0545591 -0.00301883 0)
(0.0552479 -0.0030325 0)
(0.05591 -0.00308547 0)
(0.0566158 -0.00308981 0)
(0.0572439 -0.00315083 0)
(0.0579928 -0.00314914 0)
(0.0585434 -0.00321419 0)
(0.0593923 -0.00321842 0)
(0.0597775 -0.00327174 0)
(0.0608371 -0.0033126 0)
(0.115886 0.00529963 0)
(0.11546 0.00553641 0)
(0.115002 0.00576891 0)
(0.114515 0.00599924 0)
(0.113993 0.00622652 0)
(0.113437 0.00645155 0)
(0.112843 0.00667373 0)
(0.112211 0.00689309 0)
(0.111538 0.00710895 0)
(0.110823 0.00732082 0)
(0.110063 0.00752778 0)
(0.109256 0.00772894 0)
(0.1084 0.00792312 0)
(0.107493 0.00810911 0)
(0.106534 0.00828549 0)
(0.105521 0.0084508 0)
(0.104451 0.00860345 0)
(0.103324 0.0087418 0)
(0.102139 0.00886417 0)
(0.100895 0.00896888 0)
(0.099591 0.00905425 0)
(0.0982274 0.00911869 0)
(0.0968044 0.00916066 0)
(0.0953229 0.00917878 0)
(0.0937842 0.00917183 0)
(0.0921903 0.00913879 0)
(0.0905437 0.00907889 0)
(0.0888473 0.00899165 0)
(0.0871051 0.00887691 0)
(0.0853213 0.00873482 0)
(0.0835009 0.00856594 0)
(0.0816494 0.00837116 0)
(0.0797731 0.00815176 0)
(0.0778787 0.00790935 0)
(0.0759731 0.0076459 0)
(0.074064 0.00736363 0)
(0.0721591 0.00706502 0)
(0.0702664 0.00675271 0)
(0.0683939 0.00642949 0)
(0.0665496 0.00609817 0)
(0.0647413 0.00576157 0)
(0.0629766 0.00542241 0)
(0.0612625 0.00508332 0)
(0.0596057 0.00474671 0)
(0.0580123 0.00441479 0)
(0.0564876 0.00408954 0)
(0.0550361 0.00377263 0)
(0.0536617 0.00346547 0)
(0.0523671 0.00316919 0)
(0.0511547 0.00288462 0)
(0.0500254 0.00261234 0)
(0.04898 0.00235266 0)
(0.0480179 0.00210568 0)
(0.0471385 0.00187129 0)
(0.04634 0.00164922 0)
(0.0456207 0.00143905 0)
(0.0449781 0.00124029 0)
(0.0444094 0.00105233 0)
(0.0439119 0.000874552 0)
(0.0434825 0.00070629 0)
(0.043118 0.000546877 0)
(0.0428152 0.000395656 0)
(0.0425709 0.000251989 0)
(0.0423821 0.000115265 0)
(0.0422457 -1.50899e-05 0)
(0.0421588 -0.000139615 0)
(0.0421184 -0.000258808 0)
(0.042122 -0.000373131 0)
(0.042167 -0.000483007 0)
(0.0422508 -0.000588822 0)
(0.0423712 -0.000690929 0)
(0.042526 -0.000789648 0)
(0.0427132 -0.00088527 0)
(0.0429308 -0.000978058 0)
(0.043177 -0.00106825 0)
(0.0434501 -0.00115607 0)
(0.0437485 -0.0012417 0)
(0.0440708 -0.00132533 0)
(0.0444154 -0.00140711 0)
(0.0447812 -0.00148718 0)
(0.0451668 -0.00156567 0)
(0.0455712 -0.00164269 0)
(0.0459931 -0.00171835 0)
(0.0464316 -0.00179273 0)
(0.0468857 -0.0018659 0)
(0.0473544 -0.00193794 0)
(0.0478369 -0.0020089 0)
(0.0483324 -0.00207881 0)
(0.04884 -0.00214772 0)
(0.049359 -0.00221565 0)
(0.0498886 -0.00228262 0)
(0.0504282 -0.00234864 0)
(0.0509771 -0.00241371 0)
(0.0515345 -0.00247781 0)
(0.0521 -0.00254093 0)
(0.0526727 -0.00260306 0)
(0.0532522 -0.00266416 0)
(0.0538379 -0.00272419 0)
(0.054429 -0.00278313 0)
(0.0550252 -0.00284091 0)
(0.0556257 -0.00289753 0)
(0.0562301 -0.00295285 0)
(0.0568378 -0.00300695 0)
(0.0574481 -0.00305958 0)
(0.0580609 -0.00311099 0)
(0.058675 -0.00316068 0)
(0.0592908 -0.00320927 0)
(0.0599066 -0.00325571 0)
(0.0605236 -0.00330145 0)
(0.0611389 -0.00334431 0)
(0.0617552 -0.00338734 0)
(0.0623682 -0.00342619 0)
(0.0629823 -0.00346694 0)
(0.0635908 -0.0035012 0)
(0.0642012 -0.00354053 0)
(0.0648038 -0.00356934 0)
(0.0654087 -0.00360875 0)
(0.0660049 -0.00363088 0)
(0.0666013 -0.0036726 0)
(0.0671927 -0.00368646 0)
(0.067774 -0.00373341 0)
(0.0683686 -0.00373745 0)
(0.0689184 -0.00379243 0)
(0.0695375 -0.00378637 0)
(0.0700204 -0.00384973 0)
(0.0707115 -0.00384064 0)
(0.071047 -0.00389675 0)
(0.0719192 -0.00391405 0)
(0.116961 0.005571 0)
(0.116851 0.00582966 0)
(0.116721 0.0060865 0)
(0.116574 0.00634284 0)
(0.116404 0.00659855 0)
(0.116211 0.006854 0)
(0.115992 0.00710905 0)
(0.115745 0.00736353 0)
(0.115466 0.007617 0)
(0.115155 0.00786886 0)
(0.114806 0.00811835 0)
(0.114419 0.00836447 0)
(0.113991 0.0086061 0)
(0.113518 0.0088419 0)
(0.112998 0.0090704 0)
(0.112428 0.00928995 0)
(0.111807 0.0094988 0)
(0.111131 0.00969508 0)
(0.110398 0.0098768 0)
(0.109607 0.010042 0)
(0.108755 0.0101885 0)
(0.107843 0.0103144 0)
(0.106868 0.0104177 0)
(0.105831 0.0104965 0)
(0.104731 0.0105491 0)
(0.10357 0.0105739 0)
(0.102348 0.0105696 0)
(0.101068 0.0105351 0)
(0.0997316 0.0104698 0)
(0.098342 0.0103733 0)
(0.0969029 0.0102455 0)
(0.0954185 0.0100869 0)
(0.0938938 0.00989805 0)
(0.092334 0.00968019 0)
(0.0907451 0.00943478 0)
(0.0891332 0.00916362 0)
(0.087505 0.00886885 0)
(0.0858675 0.00855286 0)
(0.0842277 0.00821826 0)
(0.082593 0.00786785 0)
(0.0809706 0.00750452 0)
(0.0793678 0.00713122 0)
(0.0777914 0.00675088 0)
(0.0762483 0.00636639 0)
(0.0747448 0.00598047 0)
(0.0732869 0.00559569 0)
(0.0718799 0.0052144 0)
(0.0705288 0.0048387 0)
(0.0692377 0.00447044 0)
(0.0680103 0.00411115 0)
(0.0668494 0.00376214 0)
(0.0657574 0.0034244 0)
(0.0647358 0.0030987 0)
(0.0637857 0.00278554 0)
(0.0629075 0.00248523 0)
(0.0621011 0.00219788 0)
(0.0613657 0.00192343 0)
(0.0607005 0.00166168 0)
(0.0601038 0.00141233 0)
(0.059574 0.00117497 0)
(0.059109 0.000949153 0)
(0.0587065 0.000734346 0)
(0.0583642 0.000530007 0)
(0.0580795 0.000335566 0)
(0.0578498 0.000150453 0)
(0.0576725 -2.59032e-05 0)
(0.0575449 -0.000194059 0)
(0.0574644 -0.000354554 0)
(0.0574285 -0.000507908 0)
(0.0574345 -0.000654613 0)
(0.0574801 -0.000795136 0)
(0.0575629 -0.000929917 0)
(0.0576806 -0.00105937 0)
(0.0578311 -0.00118387 0)
(0.0580123 -0.00130378 0)
(0.0582222 -0.00141943 0)
(0.0584589 -0.00153112 0)
(0.0587206 -0.00163913 0)
(0.0590057 -0.00174372 0)
(0.0593126 -0.00184512 0)
(0.0596398 -0.00194355 0)
(0.0599857 -0.0020392 0)
(0.0603492 -0.00213224 0)
(0.0607289 -0.00222284 0)
(0.0611235 -0.00231112 0)
(0.061532 -0.00239722 0)
(0.0619533 -0.00248125 0)
(0.0623863 -0.00256328 0)
(0.0628301 -0.00264342 0)
(0.0632836 -0.00272171 0)
(0.0637461 -0.00279821 0)
(0.0642166 -0.00287296 0)
(0.0646943 -0.002946 0)
(0.0651784 -0.00301734 0)
(0.0656683 -0.00308699 0)
(0.066163 -0.00315494 0)
(0.066662 -0.0032212 0)
(0.0671644 -0.00328573 0)
(0.0676698 -0.00334853 0)
(0.0681773 -0.00340954 0)
(0.0686864 -0.00346878 0)
(0.0691964 -0.00352613 0)
(0.0697069 -0.00358167 0)
(0.070217 -0.00363518 0)
(0.0707265 -0.0036869 0)
(0.0712343 -0.00373638 0)
(0.0717407 -0.00378419 0)
(0.0722442 -0.0038294 0)
(0.0727455 -0.00387334 0)
(0.0732425 -0.00391402 0)
(0.0737371 -0.00395429 0)
(0.0742256 -0.00399009 0)
(0.0747119 -0.00402721 0)
(0.0751899 -0.00405759 0)
(0.075667 -0.00409258 0)
(0.0761327 -0.00411667 0)
(0.0765994 -0.00415128 0)
(0.0770513 -0.00416761 0)
(0.0775063 -0.00420464 0)
(0.0779443 -0.00421091 0)
(0.078384 -0.0042543 0)
(0.0788119 -0.00424761 0)
(0.0792263 -0.00430071 0)
(0.0796596 -0.00428252 0)
(0.0800208 -0.00434108 0)
(0.0804936 -0.0043175 0)
(0.0807404 -0.0043719 0)
(0.0813422 -0.00436622 0)
(0.110403 0.00550677 0)
(0.110664 0.00577536 0)
(0.110921 0.00604397 0)
(0.111175 0.00631431 0)
(0.11142 0.00658661 0)
(0.111658 0.00686097 0)
(0.111882 0.00713764 0)
(0.112091 0.00741628 0)
(0.112283 0.00769673 0)
(0.112453 0.00797833 0)
(0.112599 0.00826049 0)
(0.112718 0.0085422 0)
(0.112806 0.00882244 0)
(0.112861 0.00909984 0)
(0.112877 0.00937295 0)
(0.112853 0.00964008 0)
(0.112784 0.00989939 0)
(0.112668 0.0101489 0)
(0.112501 0.0103864 0)
(0.112279 0.0106097 0)
(0.112001 0.0108165 0)
(0.111663 0.0110043 0)
(0.111263 0.0111709 0)
(0.110799 0.0113138 0)
(0.11027 0.0114309 0)
(0.109675 0.01152 0)
(0.109014 0.0115792 0)
(0.108287 0.0116068 0)
(0.107494 0.0116014 0)
(0.106638 0.0115621 0)
(0.105721 0.0114881 0)
(0.104745 0.0113791 0)
(0.103715 0.0112354 0)
(0.102633 0.0110574 0)
(0.101506 0.0108463 0)
(0.100338 0.0106034 0)
(0.0991347 0.0103305 0)
(0.0979025 0.0100299 0)
(0.0966477 0.00970386 0)
(0.0953768 0.00935519 0)
(0.0940964 0.00898676 0)
(0.0928133 0.00860156 0)
(0.0915342 0.00820268 0)
(0.0902655 0.00779317 0)
(0.0890136 0.00737608 0)
(0.0877845 0.00695431 0)
(0.0865838 0.00653064 0)
(0.0854168 0.00610767 0)
(0.0842882 0.00568776 0)
(0.0832023 0.00527304 0)
(0.0821628 0.00486541 0)
(0.0811729 0.00446647 0)
(0.0802352 0.00407759 0)
(0.0793518 0.00369987 0)
(0.0785242 0.00333417 0)
(0.0777534 0.00298112 0)
(0.07704 0.00264115 0)
(0.076384 0.0023145 0)
(0.0757851 0.00200123 0)
(0.0752428 0.00170129 0)
(0.0747559 0.0014145 0)
(0.0743232 0.00114056 0)
(0.0739431 0.000879122 0)
(0.0736141 0.000629764 0)
(0.0733343 0.00039202 0)
(0.0731016 0.000165394 0)
(0.072914 -5.06292e-05 0)
(0.0727694 -0.000256576 0)
(0.0726657 -0.000452972 0)
(0.0726008 -0.000640341 0)
(0.0725724 -0.000819192 0)
(0.0725784 -0.000990023 0)
(0.0726169 -0.00115331 0)
(0.0726857 -0.00130952 0)
(0.072783 -0.00145908 0)
(0.0729067 -0.00160242 0)
(0.0730552 -0.00173991 0)
(0.0732266 -0.00187193 0)
(0.0734192 -0.00199881 0)
(0.0736315 -0.00212089 0)
(0.0738619 -0.00223845 0)
(0.074109 -0.00235177 0)
(0.0743713 -0.00246109 0)
(0.0746475 -0.00256665 0)
(0.0749364 -0.00266864 0)
(0.0752367 -0.00276727 0)
(0.0755474 -0.00286269 0)
(0.0758673 -0.00295506 0)
(0.0761954 -0.0030445 0)
(0.0765307 -0.00313113 0)
(0.0768722 -0.00321503 0)
(0.0772191 -0.0032963 0)
(0.0775705 -0.003375 0)
(0.0779255 -0.00345119 0)
(0.0782834 -0.00352489 0)
(0.0786434 -0.00359615 0)