/*--------------------------------*- C++ -*----------------------------------*\
| =========                 |                                                 |
| \\      /  F ield         | OpenFOAM: The Open Source CFD Toolbox           |
|  \\    /   O peration     | Version:  4.1                                   |
|   \\  /    A nd           | Web:      www.OpenFOAM.org                      |
|    \\/     M anipulation  |                                                 |
\*---------------------------------------------------------------------------*/
FoamFile
{
    version     2.0;
    format      ascii;
    class       volVectorField;
    location    "0.0324";
    object      U;
}
// * * * * * * * * * * * * * * * * * * * * * * * * * * * * * * * * * * * * * //

dimensions      [0 1 -1 0 0 0 0];

internalField   nonuniform List<vector> 
441
(
(-9.79458e-05 7.81416e-05 0)
(-0.000490477 0.000283978 0)
(-0.001097 0.00049522 0)
(-0.00186898 0.000645055 0)
(-0.0027325 0.000718162 0)
(-0.00360912 0.000717284 0)
(-0.00442733 0.000652385 0)
(-0.00512754 0.000536054 0)
(-0.00566356 0.000381334 0)
(-0.00600253 0.000200857 0)
(-0.00612422 6.75484e-06 0)
(-0.00602066 -0.000188974 0)
(-0.00569617 -0.00037394 0)
(-0.00516821 -0.000534917 0)
(-0.00446844 -0.00065772 0)
(-0.00364373 -0.000727658 0)
(-0.00275613 -0.000730846 0)
(-0.00188072 -0.000656811 0)
(-0.0010995 -0.000503369 0)
(-0.000488658 -0.000287469 0)
(-9.67689e-05 -7.80737e-05 0)
(-0.000350103 0.000444485 0)
(-0.00155432 0.00136772 0)
(-0.00324969 0.00219267 0)
(-0.00530904 0.00275861 0)
(-0.007557 0.00302008 0)
(-0.00980867 0.00298886 0)
(-0.0118941 0.00270377 0)
(-0.0136705 0.00221429 0)
(-0.0150262 0.00157204 0)
(-0.0158818 0.000827234 0)
(-0.016188 2.81586e-05 0)
(-0.0159258 -0.000777423 0)
(-0.015106 -0.0015402 0)
(-0.0137711 -0.00220753 0)
(-0.0119978 -0.00272304 0)
(-0.00989887 -0.00302854 0)
(-0.00762245 -0.00306937 0)
(-0.00534633 -0.00280463 0)
(-0.00326359 -0.00222469 0)
(-0.00155516 -0.00138143 0)
(-0.000348936 -0.000444704 0)
(-0.00062957 0.00106272 0)
(-0.00263694 0.00302374 0)
(-0.00532281 0.00464275 0)
(-0.00848768 0.00571207 0)
(-0.0118803 0.00617617 0)
(-0.0152409 0.00606745 0)
(-0.0183317 0.00546371 0)
(-0.0209528 0.00446169 0)
(-0.022948 0.00316196 0)
(-0.0242056 0.00166229 0)
(-0.0246568 5.6748e-05 0)
(-0.0242745 -0.00156165 0)
(-0.0230735 -0.00309687 0)
(-0.0211131 -0.00444646 0)
(-0.0185001 -0.00550061 0)
(-0.0153918 -0.00614585 0)
(-0.0119953 -0.0062751 0)
(-0.00855948 -0.005806 0)
(-0.00535625 -0.00470981 0)
(-0.00264583 -0.00305418 0)
(-0.000629985 -0.00106484 0)
(-0.000898725 0.00193163 0)
(-0.00367448 0.00524917 0)
(-0.00728569 0.00783693 0)
(-0.0114567 0.00948324 0)
(-0.0158647 0.0101492 0)
(-0.0201872 0.00990514 0)
(-0.0241345 0.00888122 0)
(-0.0274657 0.0072323 0)
(-0.0299945 0.00511719 0)
(-0.0315879 0.00268922 0)
(-0.0321642 9.52824e-05 0)
(-0.0316904 -0.00251967 0)
(-0.0301824 -0.00500595 0)
(-0.0277087 -0.00720333 0)
(-0.0243946 -0.00893927 0)
(-0.0204271 -0.010034 0)
(-0.0160556 -0.0103153 0)
(-0.0115846 -0.00964459 0)
(-0.00735352 -0.00795597 0)
(-0.00369927 -0.00530694 0)
(-0.000902657 -0.00193855 0)
(-0.00115895 0.00304658 0)
(-0.00468375 0.00804119 0)
(-0.00919359 0.0117761 0)
(-0.0143308 0.0140691 0)
(-0.0196978 0.0149267 0)
(-0.0249124 0.0144803 0)
(-0.0296408 0.0129295 0)
(-0.0336113 0.0105002 0)
(-0.0366171 0.00741886 0)
(-0.0385126 0.00390075 0)
(-0.0392079 0.000150193 0)
(-0.0386654 -0.00363217 0)
(-0.0368995 -0.00723887 0)
(-0.0339808 -0.0104463 0)
(-0.0300436 -0.0130109 0)
(-0.0252936 -0.0146749 0)
(-0.0200124 -0.0151853 0)
(-0.0145532 -0.0143275 0)
(-0.00932219 -0.0119743 0)
(-0.00473832 -0.00814432 0)
(-0.0011698 -0.00306399 0)
(-0.00142171 0.00441097 0)
(-0.00570886 0.0114124 0)
(-0.0111309 0.016479 0)
(-0.0172398 0.0194861 0)
(-0.0235574 0.0205169 0)
(-0.0296415 0.0197911 0)
(-0.0351182 0.0175994 0)
(-0.0396928 0.0142543 0)
(-0.0431467 0.0100592 0)
(-0.0453287 0.00529696 0)
(-0.0461456 0.000231246 0)
(-0.0455557 -0.0048808 0)
(-0.0435687 -0.00977273 0)
(-0.040251 -0.0141541 0)
(-0.0357366 -0.0177028 0)
(-0.0302398 -0.0200702 0)
(-0.0240665 -0.0209032 0)
(-0.017615 -0.0198856 0)
(-0.011361 -0.0167985 0)
(-0.00581504 -0.0115909 0)
(-0.0014449 -0.00444946 0)
(-0.00169942 0.00604062 0)
(-0.00679602 0.0153978 0)
(-0.0131782 0.0219864 0)
(-0.0202952 0.0257694 0)
(-0.0275806 0.0269424 0)
(-0.0345313 0.0258463 0)
(-0.0407386 0.0228893 0)
(-0.045893 0.0184883 0)
(-0.0497736 0.0130344 0)
(-0.0522318 0.00688099 0)
(-0.0531758 0.000351002 0)
(-0.0525614 -0.00624478 0)
(-0.0503902 -0.0125832 0)
(-0.0467168 -0.0183062 0)
(-0.0416643 -0.0230068 0)
(-0.0354444 -0.0262312 0)
(-0.0283772 -0.0275029 0)
(-0.0209017 -0.026372 0)
(-0.0135661 -0.0224899 0)
(-0.0069848 -0.0156986 0)
(-0.00174274 -0.00611829 0)
(-0.00200165 0.00796322 0)
(-0.00798023 0.0200519 0)
(-0.0153911 0.028355 0)
(-0.023563 0.0329619 0)
(-0.0318334 0.0342249 0)
(-0.0396394 0.0326475 0)
(-0.0465458 0.0287872 0)
(-0.0522407 0.0231859 0)
(-0.0565132 0.0163322 0)
(-0.0592281 0.00865238 0)
(-0.060302 0.000523791 0)
(-0.0596902 -0.00769601 0)
(-0.0573825 -0.0156339 0)
(-0.0534132 -0.0228673 0)
(-0.0478811 -0.0289003 0)
(-0.0409798 -0.0331592 0)
(-0.0330287 -0.0350167 0)
(-0.0244981 -0.0338493 0)
(-0.0160088 -0.02913 0)
(-0.00829223 -0.0205441 0)
(-0.00207545 -0.0081085 0)
(-0.00233263 0.0102151 0)
(-0.00927578 0.0254395 0)
(-0.0177824 0.0356423 0)
(-0.0270386 0.0410934 0)
(-0.0362783 0.0423616 0)
(-0.0448852 0.0401646 0)
(-0.0524127 0.0352473 0)
(-0.0585645 0.0283 0)
(-0.0631579 0.0199179 0)
(-0.0660854 0.0105981 0)
(-0.067282 0.000763833 0)
(-0.0667054 -0.00919344 0)
(-0.0643309 -0.0188634 0)
(-0.0601618 -0.0277677 0)
(-0.0542562 -0.0353212 0)
(-0.0467675 -0.0408176 0)
(-0.037992 -0.0434482 0)
(-0.0284121 -0.0423668 0)
(-0.018715 -0.0368037 0)
(-0.00976071 -0.0262189 0)
(-0.00244983 -0.0104697 0)
(-0.00268882 0.0128361 0)
(-0.0106666 0.0316211 0)
(-0.0203034 0.0438831 0)
(-0.0306172 0.0501517 0)
(-0.0407354 0.0512921 0)
(-0.0500038 0.0483022 0)
(-0.0579888 0.0421599 0)
(-0.0644369 0.0337278 0)
(-0.0692183 0.0237144 0)
(-0.0722723 0.0126813 0)
(-0.0735649 0.00108211 0)
(-0.0730621 -0.0106776 0)
(-0.0707219 -0.0221707 0)
(-0.0665058 -0.0328794 0)
(-0.0604108 -0.0421371 0)
(-0.0525214 -0.0490956 0)
(-0.0430765 -0.0527337 0)
(-0.0325391 -0.0519243 0)
(-0.0216425 -0.0455715 0)
(-0.011381 -0.0328127 0)
(-0.00286455 -0.0132578 0)
(-0.00305561 0.0158629 0)
(-0.0120942 0.0386325 0)
(-0.0228199 0.0530572 0)
(-0.0340572 0.0600414 0)
(-0.0448342 0.0608548 0)
(-0.0544885 0.0568587 0)
(-0.062638 0.0493149 0)
(-0.0691096 0.0392817 0)
(-0.0738575 0.0275821 0)
(-0.0768917 0.0148283 0)
(-0.0782244 0.00148171 0)
(-0.0778378 -0.012066 0)
(-0.075672 -0.0254005 0)
(-0.0716364 -0.0379912 0)
(-0.065645 -0.0491079 0)
(-0.0576783 -0.0577615 0)
(-0.0478711 -0.062691 0)
(-0.0366156 -0.0624231 0)
(-0.0246511 -0.0554293 0)
(-0.0130963 -0.0403883 0)
(-0.00330625 -0.0165269 0)
(-0.00340244 0.0193197 0)
(-0.0134396 0.0464571 0)
(-0.0250784 0.063046 0)
(-0.0369307 0.0705316 0)
(-0.0479518 0.0707338 0)
(-0.0575227 0.0654775 0)
(-0.0653686 0.0563626 0)
(-0.0714449 0.0446592 0)
(-0.0758263 0.0312968 0)
(-0.0786185 0.0169152 0)
(-0.0798965 0.00195173 0)
(-0.0796679 -0.0132517 0)
(-0.0778577 -0.028332 0)
(-0.0743169 -0.0427846 0)
(-0.0688567 -0.0558486 0)
(-0.0613158 -0.0664108 0)
(-0.0516667 -0.0729561 0)
(-0.0401569 -0.0736002 0)
(-0.0274594 -0.066253 0)
(-0.0147795 -0.0489465 0)
(-0.00374373 -0.0203186 0)
(-0.00367454 0.0232062 0)
(-0.0144941 0.054989 0)
(-0.0266534 0.0735743 0)
(-0.0385511 0.0811896 0)
(-0.0491299 0.0803961 0)
(-0.057896 0.0735965 0)
(-0.0647566 0.0627759 0)
(-0.069851 0.0494177 0)
(-0.0734098 0.0345339 0)
(-0.0756555 0.0187568 0)
(-0.0767391 0.00246037 0)
(-0.0767029 -0.0141057 0)
(-0.0754639 -0.0306752 0)
(-0.0728165 -0.0468195 0)
(-0.0684593 -0.0617974 0)
(-0.062058 -0.074414 0)
(-0.0533592 -0.0829119 0)
(-0.0423694 -0.0849466 0)
(-0.029581 -0.0777231 0)
(-0.0161983 -0.0583769 0)
(-0.0041183 -0.0246458 0)
(-0.00377761 0.0274811 0)
(-0.0149068 0.0639823 0)
(-0.0268588 0.0841348 0)
(-0.037861 0.0913013 0)
(-0.0469578 0.0890255 0)
(-0.0539002 0.0804034 0)
(-0.058866 0.0678268 0)
(-0.0622296 0.0529649 0)
(-0.0644005 0.0368654 0)
(-0.0657252 0.0201048 0)
(-0.0664331 0.00294899 0)
(-0.0666072 -0.0144875 0)
(-0.0661685 -0.0320824 0)
(-0.0648708 -0.0495392 0)
(-0.0623109 -0.0662057 0)
(-0.0579714 -0.0808794 0)
(-0.0513233 -0.091618 0)
(-0.0420232 -0.0956117 0)
(-0.0302207 -0.0892267 0)
(-0.0169539 -0.0683889 0)
(-0.0043268 -0.0294706 0)
(-0.00354682 0.0320351 0)
(-0.0140788 0.0729747 0)
(-0.0245836 0.0938843 0)
(-0.0332435 0.099777 0)
(-0.0393984 0.0954636 0)
(-0.0431965 0.0848142 0)
(-0.0451688 0.0705938 0)
(-0.045949 0.0545809 0)
(-0.0461155 0.0377832 0)
(-0.0461178 0.0206615 0)
(-0.0462468 0.00333047 0)
(-0.0466236 -0.0142648 0)
(-0.0471893 -0.0321828 0)
(-0.0476913 -0.0503122 0)
(-0.0476687 -0.0681696 0)
(-0.0464567 -0.084655 0)
(-0.0432455 -0.0977645 0)
(-0.0372551 -0.104303 0)
(-0.0280954 -0.0997311 0)
(-0.0163657 -0.0784108 0)
(-0.00418868 -0.0346688 0)
(-0.00267838 0.0366419 0)
(-0.0109386 0.081165 0)
(-0.0179713 0.1015 0)
(-0.0221936 0.105055 0)
(-0.0235211 0.0981837 0)
(-0.0226446 0.0855086 0)
(-0.020474 0.070031 0)
(-0.0178588 0.0534958 0)
(-0.0154779 0.0367649 0)
(-0.0138183 0.0201207 0)
(-0.0131873 0.00349703 0)
(-0.0137277 -0.0133422 0)
(-0.0154178 -0.0306482 0)
(-0.0180515 -0.0485259 0)
(-0.0211968 -0.066734 0)
(-0.024148 -0.08441 0)
(-0.0259044 -0.0996886 0)
(-0.025256 -0.109211 0)
(-0.0211073 -0.107627 0)
(-0.013237 -0.0874376 0)
(-0.00337634 -0.0399685 0)
(-0.000558342 0.0408447 0)
(-0.0034315 0.0871826 0)
(-0.0037801 0.10498 0)
(-0.000746423 0.10503 0)
(0.00489543 0.0953528 0)
(0.0119009 0.0810735 0)
(0.019109 0.0651391 0)
(0.0256214 0.0490482 0)
(0.0308108 0.0333976 0)
(0.0342684 0.0182448 0)
(0.0357451 0.00334392 0)
(0.0351093 -0.0116965 0)
(0.0323338 -0.0272899 0)
(0.0275156 -0.0437452 0)
(0.0209342 -0.0610986 0)
(0.0131464 -0.0788494 0)
(0.00510347 -0.0955285 0)
(-0.00177429 -0.108013 0)
(-0.00572511 -0.110552 0)
(-0.00534304 -0.093774 0)
(-0.00124429 -0.0448221 0)
(0.00422932 0.043719 0)
(0.0127081 0.088701 0)
(0.0239115 0.101425 0)
(0.0374784 0.0971293 0)
(0.0518925 0.0851047 0)
(0.0657644 0.0703448 0)
(0.0781014 0.0552873 0)
(0.0882856 0.040946 0)
(0.0959706 0.027565 0)
(0.100973 0.0149795 0)
(0.10319 0.00281348 0)
(0.102542 -0.00940672 0)
(0.098957 -0.0221749 0)
(0.0923725 -0.0359296 0)
(0.0827918 -0.0509443 0)
(0.0703821 -0.0671283 0)
(0.0556429 -0.0836392 0)
(0.0396362 -0.0981229 0)
(0.0242012 -0.105301 0)
(0.0117671 -0.0946553 0)
(0.00366405 -0.0481453 0)
(0.0158163 0.0430189 0)
(0.0470574 0.0813999 0)
(0.0761881 0.0868188 0)
(0.102642 0.0787299 0)
(0.125807 0.0661975 0)
(0.145383 0.0530332 0)
(0.161316 0.0407041 0)
(0.173693 0.0296108 0)
(0.182667 0.019672 0)
(0.18839 0.0105866 0)
(0.190958 0.00195475 0)
(0.190378 -0.00666479 0)
(0.186548 -0.0157238 0)
(0.179255 -0.0256569 0)
(0.168177 -0.0368369 0)
(0.152924 -0.0494753 0)
(0.133114 -0.0633866 0)
(0.10855 -0.0774018 0)
(0.0796015 -0.0879283 0)
(0.0477329 -0.0853759 0)
(0.0155309 -0.0474727 0)
(0.0495643 0.0348481 0)
(0.122729 0.0594506 0)
(0.173842 0.0577001 0)
(0.210114 0.0490998 0)
(0.237109 0.0395747 0)
(0.257543 0.0307748 0)
(0.272972 0.0231084 0)
(0.284351 0.0165293 0)
(0.292317 0.010828 0)
(0.297288 0.00573681 0)
(0.299508 0.000969939 0)
(0.299057 -0.0037622 0)
(0.295845 -0.00874859 0)
(0.289595 -0.0142748 0)
(0.279804 -0.0206163 0)
(0.265659 -0.0280173 0)
(0.245879 -0.0366324 0)
(0.218403 -0.0463282 0)
(0.179965 -0.0559979 0)
(0.125095 -0.0602957 0)
(0.049679 -0.0384975 0)
(0.182885 0.00468407 0)
(0.296862 0.00836376 0)
(0.350944 0.011946 0)
(0.378505 0.0117278 0)
(0.395461 0.00992623 0)
(0.406831 0.00784268 0)
(0.414797 0.0059044 0)
(0.420385 0.00420823 0)
(0.424162 0.00273235 0)
(0.426456 0.00141609 0)
(0.427449 0.000187369 0)
(0.427211 -0.00102743 0)
(0.425703 -0.00229879 0)
(0.422769 -0.00368859 0)
(0.418092 -0.00523804 0)
(0.411078 -0.00693791 0)
(0.400571 -0.00865467 0)
(0.384035 -0.00996705 0)
(0.35565 -0.00983658 0)
(0.298483 -0.0071277 0)
(0.18116 -0.00732446 0)
)
;

boundaryField
{
    movingWall
    {
        type            fixedValue;
        value           uniform (0.5 0 0);
    }
    fixedWalls
    {
        type            noSlip;
    }
    frontAndBack
    {
        type            empty;
    }
}


// ************************************************************************* //
