/*--------------------------------*- C++ -*----------------------------------*\
| =========                 |                                                 |
| \\      /  F ield         | OpenFOAM: The Open Source CFD Toolbox           |
|  \\    /   O peration     | Version:  4.1                                   |
|   \\  /    A nd           | Web:      www.OpenFOAM.org                      |
|    \\/     M anipulation  |                                                 |
\*---------------------------------------------------------------------------*/
FoamFile
{
    version     2.0;
    format      ascii;
    class       volScalarField;
    location    "690";
    object      p;
}
// * * * * * * * * * * * * * * * * * * * * * * * * * * * * * * * * * * * * * //

dimensions      [1 -1 -2 0 0 0 0];

internalField   nonuniform List<scalar> 
1275
(
0.712359
0.712311
0.712304
0.712261
0.712248
0.712204
0.712188
0.712136
0.71212
0.712051
0.712372
0.71232
0.712314
0.712269
0.712258
0.712214
0.712201
0.712154
0.712146
0.712099
0.712391
0.712336
0.712332
0.712285
0.712275
0.712231
0.712219
0.712176
0.712164
0.712125
0.712413
0.712357
0.712353
0.712305
0.712298
0.712255
0.712245
0.712206
0.712198
0.712165
0.712434
0.712378
0.712374
0.712327
0.71232
0.712279
0.71227
0.712234
0.712224
0.712194
0.712452
0.712397
0.712393
0.712348
0.712341
0.712302
0.712293
0.712259
0.71225
0.712222
0.712462
0.712409
0.712405
0.712362
0.712354
0.712318
0.712307
0.712276
0.712265
0.712239
0.712465
0.712417
0.712411
0.712371
0.712362
0.712327
0.712316
0.712286
0.712275
0.712249
0.712459
0.712417
0.712411
0.712372
0.712363
0.712329
0.712317
0.712287
0.712275
0.71225
0.712207
0.712218
0.71223
0.712243
0.712258
0.712276
0.712296
0.712318
0.712344
0.712374
0.712408
0.712446
0.712488
0.712534
0.712583
0.712635
0.712689
0.712743
0.712798
0.712851
0.712902
0.712949
0.712992
0.713029
0.713061
0.713087
0.713107
0.713121
0.713131
0.713136
0.713139
0.713139
0.713136
0.713132
0.713127
0.713122
0.713117
0.713112
0.713107
0.713104
0.713101
0.713099
0.713097
0.713096
0.713095
0.713095
0.713095
0.713096
0.713097
0.713098
0.7131
0.713101
0.713103
0.713106
0.713108
0.713111
0.713114
0.713117
0.713121
0.713124
0.713128
0.713133
0.713138
0.713143
0.713148
0.713154
0.713161
0.713168
0.713175
0.713183
0.713191
0.713201
0.71321
0.713221
0.713233
0.713245
0.713259
0.713273
0.712025
0.712077
0.712069
0.712092
0.712087
0.712095
0.712092
0.712096
0.712093
0.712095
0.712094
0.712094
0.712094
0.712095
0.712094
0.712095
0.712096
0.712097
0.712098
0.712099
0.712101
0.712103
0.712105
0.712107
0.71211
0.712113
0.712116
0.71212
0.712124
0.712128
0.712132
0.712138
0.712143
0.712149
0.712155
0.712162
0.71217
0.712178
0.712187
0.712197
0.712207
0.712218
0.712229
0.712243
0.712255
0.712272
0.712286
0.712304
0.712322
0.712343
0.712366
0.712391
0.712418
0.712448
0.71248
0.712515
0.712553
0.712594
0.712636
0.71268
0.712725
0.71277
0.712815
0.712857
0.712897
0.712933
0.712966
0.712994
0.713018
0.713037
0.713052
0.713064
0.713071
0.713076
0.713078
0.713078
0.713077
0.713075
0.713074
0.713072
0.713072
0.713071
0.713071
0.713071
0.713071
0.713072
0.713073
0.713073
0.713074
0.713076
0.713077
0.713079
0.71308
0.713082
0.713084
0.713087
0.713089
0.713092
0.713094
0.713097
0.7131
0.713104
0.713107
0.713111
0.713115
0.713119
0.713123
0.713127
0.713132
0.713137
0.713143
0.713149
0.713155
0.713162
0.713169
0.713176
0.713184
0.713193
0.713203
0.713213
0.713224
0.713236
0.71325
0.712102
0.712106
0.7121
0.712105
0.712099
0.712102
0.712097
0.712099
0.712097
0.712098
0.712097
0.712098
0.712098
0.712099
0.7121
0.712101
0.712103
0.712105
0.712107
0.712109
0.712112
0.712115
0.712118
0.712122
0.712127
0.712131
0.712136
0.712142
0.712148
0.712155
0.712162
0.712169
0.712178
0.712187
0.712196
0.712207
0.712218
0.71223
0.712243
0.712256
0.712271
0.712286
0.712303
0.71232
0.712339
0.712358
0.712379
0.712401
0.712424
0.712449
0.712476
0.712504
0.712534
0.712565
0.712598
0.712633
0.712668
0.712705
0.712742
0.712778
0.712814
0.712848
0.71288
0.71291
0.712938
0.712962
0.712983
0.713001
0.713014
0.713025
0.713032
0.713037
0.713041
0.713043
0.713046
0.713048
0.71305
0.713052
0.713053
0.713054
0.713055
0.713055
0.713056
0.713058
0.713059
0.713061
0.713063
0.713065
0.713067
0.71307
0.713072
0.713074
0.713076
0.713079
0.713081
0.713083
0.713086
0.713089
0.713091
0.713094
0.713097
0.713101
0.713104
0.713107
0.713111
0.713115
0.713119
0.713124
0.713128
0.713133
0.713138
0.713144
0.713149
0.713155
0.713162
0.713169
0.713176
0.713184
0.713193
0.713202
0.713213
0.713224
0.713236
0.712113
0.712113
0.712108
0.712114
0.712109
0.712113
0.71211
0.712111
0.712109
0.71211
0.712109
0.71211
0.71211
0.712111
0.712112
0.712114
0.712116
0.712119
0.712122
0.712125
0.712129
0.712134
0.712139
0.712144
0.71215
0.712157
0.712164
0.712172
0.712181
0.71219
0.7122
0.712211
0.712223
0.712235
0.712248
0.712262
0.712277
0.712293
0.71231
0.712328
0.712347
0.712367
0.712387
0.712409
0.712432
0.712456
0.71248
0.712506
0.712532
0.71256
0.712588
0.712617
0.712647
0.712677
0.712707
0.712738
0.712768
0.712798
0.712828
0.712856
0.712883
0.712908
0.712931
0.712951
0.712968
0.712982
0.712993
0.713002
0.71301
0.713017
0.713023
0.713029
0.713033
0.713036
0.713037
0.713039
0.71304
0.713042
0.713044
0.713046
0.713049
0.713051
0.713054
0.713057
0.713059
0.713061
0.713063
0.713065
0.713067
0.713069
0.713071
0.713073
0.713075
0.713078
0.71308
0.713082
0.713085
0.713088
0.71309
0.713093
0.713096
0.7131
0.713103
0.713106
0.71311
0.713114
0.713118
0.713122
0.713127
0.713132
0.713137
0.713142
0.713148
0.713154
0.71316
0.713167
0.713174
0.713181
0.71319
0.713199
0.713208
0.713219
0.71323
0.712162
0.71215
0.712145
0.71214
0.712134
0.712132
0.712127
0.712126
0.712123
0.712122
0.712121
0.712121
0.712121
0.712123
0.712125
0.712127
0.71213
0.712134
0.712138
0.712143
0.712149
0.712155
0.712162
0.71217
0.712178
0.712187
0.712197
0.712208
0.712219
0.712231
0.712244
0.712258
0.712273
0.712289
0.712306
0.712323
0.712342
0.712362
0.712382
0.712404
0.712426
0.712449
0.712473
0.712498
0.712523
0.712549
0.712576
0.712603
0.71263
0.712657
0.712685
0.712713
0.712741
0.712768
0.712795
0.712821
0.712846
0.71287
0.712891
0.712911
0.712929
0.712944
0.712958
0.712971
0.712982
0.712993
0.713002
0.713009
0.713014
0.713018
0.713021
0.713023
0.713025
0.713028
0.713031
0.713035
0.713039
0.713043
0.713046
0.713048
0.71305
0.713052
0.713054
0.713056
0.713058
0.71306
0.713062
0.713064
0.713067
0.713069
0.713071
0.713073
0.713076
0.713078
0.71308
0.713083
0.713085
0.713088
0.713091
0.713094
0.713097
0.7131
0.713103
0.713107
0.713111
0.713115
0.713119
0.713123
0.713127
0.713132
0.713137
0.713142
0.713148
0.713154
0.71316
0.713167
0.713174
0.713181
0.713189
0.713198
0.713207
0.713218
0.713229
0.712186
0.712169
0.712163
0.712155
0.71215
0.712145
0.712141
0.712138
0.712135
0.712134
0.712133
0.712133
0.712134
0.712135
0.712138
0.712141
0.712145
0.712149
0.712155
0.712161
0.712168
0.712176
0.712184
0.712194
0.712204
0.712215
0.712227
0.71224
0.712254
0.712268
0.712284
0.7123
0.712318
0.712336
0.712356
0.712376
0.712397
0.71242
0.712443
0.712467
0.712491
0.712517
0.712543
0.712569
0.712596
0.712623
0.712649
0.712676
0.712703
0.712729
0.712755
0.71278
0.712804
0.712827
0.712849
0.712869
0.712888
0.712905
0.712922
0.712937
0.712951
0.712963
0.712974
0.712982
0.712989
0.712994
0.712998
0.713002
0.713006
0.713011
0.713017
0.713022
0.713027
0.713031
0.713034
0.713037
0.713039
0.713042
0.713044
0.713046
0.713049
0.713051
0.713054
0.713056
0.713059
0.713061
0.713063
0.713065
0.713067
0.713069
0.713072
0.713074
0.713076
0.713078
0.713081
0.713083
0.713086
0.713088
0.713091
0.713094
0.713097
0.7131
0.713104
0.713107
0.713111
0.713115
0.713119
0.713123
0.713128
0.713133
0.713138
0.713143
0.713148
0.713154
0.713161
0.713167
0.713174
0.713182
0.71319
0.713199
0.713208
0.713218
0.71323
0.712215
0.712196
0.712189
0.712176
0.71217
0.712162
0.712157
0.712151
0.712148
0.712145
0.712144
0.712143
0.712144
0.712146
0.712149
0.712152
0.712157
0.712162
0.712169
0.712176
0.712184
0.712193
0.712203
0.712214
0.712226
0.712239
0.712252
0.712267
0.712282
0.712299
0.712316
0.712335
0.712354
0.712374
0.712396
0.712418
0.712441
0.712465
0.712489
0.712514
0.71254
0.712566
0.712592
0.712618
0.712644
0.71267
0.712696
0.712721
0.712745
0.712769
0.712792
0.712814
0.712836
0.712856
0.712875
0.712892
0.712908
0.712922
0.712934
0.712945
0.712954
0.712961
0.712969
0.712976
0.712983
0.712991
0.712998
0.713005
0.71301
0.713015
0.713019
0.713022
0.713025
0.713028
0.713031
0.713035
0.713038
0.713041
0.713044
0.713047
0.71305
0.713052
0.713054
0.713056
0.713058
0.713061
0.713063
0.713065
0.713067
0.713069
0.713071
0.713074
0.713076
0.713079
0.713081
0.713084
0.713086
0.713089
0.713092
0.713095
0.713098
0.713101
0.713104
0.713108
0.713112
0.713116
0.71312
0.713124
0.713129
0.713133
0.713139
0.713144
0.713149
0.713155
0.713162
0.713168
0.713176
0.713183
0.713191
0.7132
0.71321
0.71322
0.713232
0.712229
0.712209
0.712201
0.712186
0.712179
0.712169
0.712163
0.712157
0.712154
0.71215
0.712149
0.712148
0.712149
0.712151
0.712154
0.712158
0.712163
0.712169
0.712176
0.712184
0.712193
0.712203
0.712213
0.712225
0.712238
0.712251
0.712266
0.712281
0.712298
0.712315
0.712333
0.712352
0.712372
0.712393
0.712415
0.712438
0.712461
0.712485
0.71251
0.712535
0.712561
0.712586
0.712612
0.712638
0.712664
0.712689
0.712713
0.712738
0.712761
0.712783
0.712804
0.712824
0.712843
0.71286
0.712876
0.71289
0.712903
0.712916
0.712928
0.71294
0.712951
0.712961
0.71297
0.712979
0.712986
0.712992
0.712997
0.713002
0.713007
0.713011
0.713016
0.713021
0.713025
0.713029
0.713032
0.713035
0.713038
0.713041
0.713044
0.713046
0.713049
0.713051
0.713054
0.713056
0.713058
0.713061
0.713063
0.713065
0.713067
0.713069
0.713072
0.713074
0.713076
0.713078
0.713081
0.713083
0.713086
0.713089
0.713092
0.713095
0.713098
0.713101
0.713104
0.713108
0.713112
0.713116
0.71312
0.713124
0.713129
0.713133
0.713139
0.713144
0.71315
0.713156
0.713162
0.713169
0.713176
0.713184
0.713192
0.713201
0.713211
0.713222
0.713233
0.712238
0.712218
0.712209
0.712193
0.712186
0.712174
0.712169
0.712161
0.712158
0.712154
0.712153
0.712152
0.712153
0.712155
0.712158
0.712162
0.712167
0.712173
0.71218
0.712189
0.712198
0.712208
0.712219
0.712231
0.712244
0.712258
0.712273
0.712288
0.712305
0.712323
0.712341
0.71236
0.712381
0.712402
0.712424
0.712446
0.71247
0.712494
0.712518
0.712543
0.712568
0.712593
0.712618
0.712643
0.712668
0.712691
0.712715
0.712737
0.712759
0.71278
0.712801
0.712821
0.712839
0.712857
0.712874
0.71289
0.712905
0.712918
0.71293
0.712941
0.712951
0.71296
0.712968
0.712975
0.712982
0.712989
0.712996
0.713002
0.713008
0.713012
0.713017
0.713021
0.713024
0.713028
0.713031
0.713035
0.713038
0.713041
0.713044
0.713046
0.713049
0.713051
0.713054
0.713056
0.713058
0.71306
0.713062
0.713065
0.713067
0.713069
0.713071
0.713074
0.713076
0.713078
0.713081
0.713083
0.713086
0.713089
0.713092
0.713095
0.713098
0.713101
0.713105
0.713108
0.713112
0.713116
0.71312
0.713124
0.713129
0.713134
0.713139
0.713144
0.71315
0.713156
0.713163
0.713169
0.713177
0.713185
0.713193
0.713202
0.713212
0.713223
0.713235
0.712239
0.712218
0.712208
0.712193
0.712184
0.712173
0.712167
0.71216
0.712156
0.712152
0.712151
0.712149
0.712151
0.712152
0.712155
0.712159
0.712165
0.712171
0.712178
0.712186
0.712195
0.712205
0.712216
0.712228
0.712241
0.712255
0.712269
0.712285
0.712302
0.712319
0.712337
0.712356
0.712376
0.712397
0.712419
0.712441
0.712464
0.712488
0.712512
0.712537
0.712562
0.712587
0.712612
0.712637
0.712662
0.712686
0.71271
0.712733
0.712756
0.712777
0.712798
0.712818
0.712837
0.712855
0.712871
0.712887
0.712901
0.712914
0.712926
0.712937
0.712948
0.712958
0.712967
0.712975
0.712983
0.712989
0.712996
0.713001
0.713006
0.713011
0.713016
0.71302
0.713024
0.713028
0.713031
0.713035
0.713038
0.71304
0.713043
0.713046
0.713048
0.713051
0.713053
0.713056
0.713058
0.71306
0.713062
0.713064
0.713067
0.713069
0.713071
0.713073
0.713076
0.713078
0.71308
0.713083
0.713086
0.713088
0.713091
0.713094
0.713097
0.7131
0.713104
0.713107
0.713111
0.713115
0.713119
0.713124
0.713128
0.713133
0.713138
0.713143
0.713149
0.713155
0.713161
0.713168
0.713175
0.713183
0.713192
0.713201
0.713211
0.713222
0.713234
)
;

boundaryField
{
    inlet
    {
        type            zeroGradient;
    }
    outlet
    {
        type            fixedValue;
        value           nonuniform 0();
    }
    walls
    {
        type            zeroGradient;
    }
    symwall
    {
        type            empty;
    }
    procBoundary2to0
    {
        type            processor;
        value           nonuniform List<scalar> 
133
(
0.712168
0.712174
0.712182
0.71219
0.712201
0.712212
0.712227
0.712244
0.712266
0.712291
0.712321
0.712356
0.712397
0.712443
0.712495
0.712551
0.712612
0.712675
0.712741
0.712806
0.712871
0.712933
0.712992
0.713045
0.713092
0.713133
0.713167
0.713193
0.713213
0.713226
0.713233
0.713235
0.713234
0.713229
0.713222
0.713214
0.713205
0.713195
0.713186
0.713177
0.713169
0.713162
0.713155
0.713149
0.713144
0.71314
0.713136
0.713134
0.713132
0.71313
0.713129
0.713129
0.71313
0.71313
0.713132
0.713133
0.713136
0.713138
0.713141
0.713145
0.713149
0.713153
0.713158
0.713164
0.71317
0.713176
0.713184
0.713191
0.7132
0.713209
0.713219
0.713229
0.71324
0.713252
0.713265
0.71328
0.713294
0.71235
0.712308
0.7123
0.712259
0.712246
0.712202
0.712187
0.712135
0.712124
0.71205
0.712066
0.712093
0.712086
0.712092
0.712086
0.712089
0.712086
0.712087
0.712086
0.712087
0.712086
0.712087
0.712087
0.712088
0.712088
0.712089
0.71209
0.712091
0.712092
0.712093
0.712094
0.712096
0.712097
0.712099
0.712101
0.712103
0.712105
0.712108
0.71211
0.712113
0.712116
0.71212
0.712123
0.712127
0.712131
0.712136
0.712141
0.712146
0.712152
0.712158
0.712165
0.712172
0.71218
0.712188
0.712197
0.712197
)
;
    }
    procBoundary2to1
    {
        type            processor;
        value           uniform 0.713311;
    }
    procBoundary2to3
    {
        type            processor;
        value           nonuniform List<scalar> 10(0.713289 0.713265 0.71325 0.713243 0.713241 0.713242 0.713244 0.713246 0.713248 0.713248);
    }
}


// ************************************************************************* //
