/*--------------------------------*- C++ -*----------------------------------*\
| =========                 |                                                 |
| \\      /  F ield         | OpenFOAM: The Open Source CFD Toolbox           |
|  \\    /   O peration     | Version:  4.1                                   |
|   \\  /    A nd           | Web:      www.OpenFOAM.org                      |
|    \\/     M anipulation  |                                                 |
\*---------------------------------------------------------------------------*/
FoamFile
{
    version     2.0;
    format      ascii;
    class       volVectorField;
    location    "2250";
    object      U;
}
// * * * * * * * * * * * * * * * * * * * * * * * * * * * * * * * * * * * * * //

dimensions      [0 1 -1 0 0 0 0];

internalField   nonuniform List<vector> 
1275
(
(0.0899497 -0.000861087 0)
(0.0898619 -0.000866865 0)
(0.0897419 -0.000858419 0)
(0.0896723 -0.000866714 0)
(0.0895289 -0.00085456 0)
(0.0804144 0.000242236 0)
(0.0803522 0.000534528 0)
(0.0803578 0.000806235 0)
(0.0804235 0.00106527 0)
(0.0805461 0.00130913 0)
(0.0807196 0.00154144 0)
(0.0809405 0.00176184 0)
(0.0812038 0.00197244 0)
(0.0815061 0.0021735 0)
(0.0818432 0.00236646 0)
(0.082212 0.00255176 0)
(0.0826089 0.00273042 0)
(0.0830312 0.0029029 0)
(0.0834758 0.00306998 0)
(0.0839403 0.00323205 0)
(0.0844221 0.00338969 0)
(0.084919 0.00354322 0)
(0.0854287 0.00369305 0)
(0.0859493 0.00383943 0)
(0.0864788 0.00398262 0)
(0.0870155 0.00412278 0)
(0.0875577 0.00426005 0)
(0.0881036 0.00439448 0)
(0.0886517 0.00452613 0)
(0.0892006 0.00465494 0)
(0.0897487 0.00478086 0)
(0.0902947 0.00490377 0)
(0.0908372 0.00502351 0)
(0.0913748 0.00513988 0)
(0.0919063 0.00525265 0)
(0.0924305 0.00536153 0)
(0.092946 0.00546624 0)
(0.0934518 0.00556643 0)
(0.0939466 0.00566174 0)
(0.0944294 0.0057518 0)
(0.094899 0.00583622 0)
(0.0953544 0.00591458 0)
(0.0957947 0.00598647 0)
(0.096219 0.00605147 0)
(0.0966262 0.00610918 0)
(0.0970157 0.0061592 0)
(0.0973867 0.00620113 0)
(0.0977386 0.00623462 0)
(0.0980706 0.00625933 0)
(0.0983824 0.00627495 0)
(0.0986735 0.00628122 0)
(0.0989436 0.00627791 0)
(0.0991925 0.00626485 0)
(0.0994199 0.0062419 0)
(0.0996258 0.00620899 0)
(0.0998104 0.0061661 0)
(0.0999736 0.00611327 0)
(0.100116 0.00605059 0)
(0.100237 0.00597821 0)
(0.100338 0.00589635 0)
(0.10042 0.00580527 0)
(0.100481 0.00570529 0)
(0.100525 0.00559678 0)
(0.10055 0.00548015 0)
(0.100558 0.00535587 0)
(0.100549 0.00522443 0)
(0.100525 0.00508637 0)
(0.100485 0.00494224 0)
(0.100432 0.00479262 0)
(0.100366 0.00463811 0)
(0.100287 0.00447933 0)
(0.100197 0.00431688 0)
(0.100097 0.00415139 0)
(0.0999872 0.00398348 0)
(0.0998686 0.00381373 0)
(0.0997421 0.00364276 0)
(0.0996086 0.00347114 0)
(0.0994687 0.00329942 0)
(0.0993233 0.00312814 0)
(0.099173 0.0029578 0)
(0.0990185 0.00278889 0)
(0.0988603 0.00262186 0)
(0.0986991 0.00245712 0)
(0.0985353 0.00229508 0)
(0.0983695 0.00213607 0)
(0.0982021 0.00198044 0)
(0.0980335 0.00182847 0)
(0.097864 0.00168043 0)
(0.097694 0.00153653 0)
(0.0975238 0.00139699 0)
(0.0973535 0.00126197 0)
(0.0971835 0.00113161 0)
(0.0970138 0.00100603 0)
(0.0968448 0.000885307 0)
(0.0966764 0.000769516 0)
(0.0965088 0.000658694 0)
(0.096342 0.000552859 0)
(0.0961763 0.00045201 0)
(0.0960115 0.000356128 0)
(0.0958477 0.000265175 0)
(0.0956851 0.000179098 0)
(0.0955234 9.78309e-05 0)
(0.0953629 2.12884e-05 0)
(0.0952035 -5.06151e-05 0)
(0.0950451 -0.000117995 0)
(0.0948878 -0.000180946 0)
(0.0947315 -0.000239618 0)
(0.0945762 -0.0002941 0)
(0.0944219 -0.000344587 0)
(0.0942686 -0.000391133 0)
(0.0941162 -0.000434013 0)
(0.0939649 -0.00047319 0)
(0.0938142 -0.000509087 0)
(0.0936648 -0.000541473 0)
(0.0935157 -0.000571057 0)
(0.0933684 -0.000597216 0)
(0.0932203 -0.000621209 0)
(0.0930756 -0.00064166 0)
(0.0929277 -0.000660853 0)
(0.0927869 -0.00067603 0)
(0.0926369 -0.000691303 0)
(0.0925033 -0.000701525 0)
(0.092346 -0.00071384 0)
(0.0922281 -0.000719337 0)
(0.0920503 -0.000729608 0)
(0.0919684 -0.000730793 0)
(0.0917394 -0.00073911 0)
(0.0916454 -0.000736877 0)
(0.0915317 -0.000744445 0)
(0.0913646 -0.000737782 0)
(0.0912734 -0.000744641 0)
(0.0910731 -0.000736215 0)
(0.0586529 0.000289473 0)
(0.0587327 0.000504834 0)
(0.0588807 0.00070754 0)
(0.0590939 0.000902004 0)
(0.0593661 0.00108705 0)
(0.0596925 0.00126527 0)
(0.0600684 0.00143637 0)
(0.0604895 0.00160197 0)
(0.060952 0.00176216 0)
(0.061452 0.00191801 0)
(0.0619864 0.00206974 0)
(0.062552 0.00221808 0)
(0.0631461 0.0023633 0)
(0.0637659 0.00250591 0)
(0.0644091 0.00264614 0)
(0.0650733 0.00278437 0)
(0.0657567 0.00292078 0)
(0.0664571 0.00305563 0)
(0.0671728 0.00318902 0)
(0.067902 0.00332113 0)
(0.0686431 0.003452 0)
(0.0693946 0.0035817 0)
(0.0701549 0.00371021 0)
(0.0709227 0.00383751 0)
(0.0716964 0.0039635 0)
(0.0724748 0.00408809 0)
(0.0732565 0.00421112 0)
(0.0740402 0.00433239 0)
(0.0748245 0.00445167 0)
(0.0756082 0.00456872 0)
(0.07639 0.00468322 0)
(0.0771685 0.00479485 0)
(0.0779426 0.00490326 0)
(0.0787108 0.00500805 0)
(0.0794721 0.00510884 0)
(0.080225 0.00520518 0)
(0.0809684 0.00529663 0)
(0.0817009 0.00538276 0)
(0.0824215 0.00546308 0)
(0.083129 0.00553716 0)
(0.0838221 0.00560452 0)
(0.0844998 0.00566473 0)
(0.0851611 0.00571735 0)
(0.0858048 0.00576198 0)
(0.0864302 0.00579823 0)
(0.0870362 0.00582576 0)
(0.0876221 0.00584426 0)
(0.0881871 0.00585345 0)
(0.0887306 0.00585312 0)
(0.0892521 0.0058431 0)
(0.089751 0.00582328 0)
(0.0902269 0.00579359 0)
(0.0906795 0.00575404 0)
(0.0911087 0.0057047 0)
(0.0915143 0.00564566 0)
(0.0918963 0.00557713 0)
(0.0922547 0.00549934 0)
(0.0925897 0.00541258 0)
(0.0929015 0.00531719 0)
(0.0931904 0.00521357 0)
(0.0934569 0.00510217 0)
(0.0937012 0.00498346 0)
(0.093924 0.00485795 0)
(0.0941257 0.0047262 0)
(0.0943071 0.00458877 0)
(0.0944686 0.00444625 0)
(0.094611 0.00429925 0)
(0.0947351 0.00414837 0)
(0.0948414 0.00399424 0)
(0.0949307 0.00383746 0)
(0.0950038 0.00367863 0)
(0.0950615 0.00351835 0)
(0.0951044 0.00335719 0)
(0.0951332 0.00319572 0)
(0.0951488 0.00303447 0)
(0.0951518 0.00287394 0)
(0.0951429 0.00271463 0)
(0.0951228 0.00255698 0)
(0.0950921 0.00240143 0)
(0.0950515 0.00224835 0)
(0.0950015 0.00209812 0)
(0.0949428 0.00195106 0)
(0.0948758 0.00180746 0)
(0.0948012 0.00166759 0)
(0.0947193 0.00153167 0)
(0.0946308 0.00139992 0)
(0.0945359 0.00127249 0)
(0.0944352 0.00114954 0)
(0.0943291 0.00103117 0)
(0.0942179 0.000917469 0)
(0.094102 0.000808506 0)
(0.0939817 0.000704319 0)
(0.0938574 0.000604924 0)
(0.0937293 0.00051032 0)
(0.0935978 0.000420485 0)
(0.093463 0.00033538 0)
(0.0933253 0.00025495 0)
(0.093185 0.000179124 0)
(0.0930421 0.000107822 0)
(0.092897 4.09456e-05 0)
(0.0927499 -2.16063e-05 0)
(0.0926009 -7.99552e-05 0)
(0.0924502 -0.000134213 0)
(0.0922981 -0.00018453 0)
(0.0921446 -0.000231011 0)
(0.09199 -0.000273848 0)
(0.0918343 -0.000313109 0)
(0.091678 -0.000349067 0)
(0.0915207 -0.000381686 0)
(0.0913631 -0.000411404 0)
(0.0912046 -0.000437955 0)
(0.0910465 -0.000462126 0)
(0.0908871 -0.000483135 0)
(0.0907292 -0.000502533 0)
(0.0905689 -0.000518409 0)
(0.090412 -0.000533977 0)
(0.0902507 -0.000544864 0)
(0.0900961 -0.000557902 0)
(0.0899331 -0.000563417 0)
(0.089782 -0.000575813 0)
(0.0896167 -0.000575086 0)
(0.0894697 -0.000588128 0)
(0.0893008 -0.000584461 0)
(0.0891665 -0.000592342 0)
(0.0889799 -0.000588766 0)
(0.0888774 -0.000594131 0)
(0.088649 -0.000590105 0)
(0.0379475 0.000164298 0)
(0.0381601 0.000307513 0)
(0.0384308 0.000445673 0)
(0.038756 0.00058045 0)
(0.039131 0.000711273 0)
(0.0395522 0.00083976 0)
(0.040016 0.000965459 0)
(0.0405193 0.00108946 0)
(0.0410593 0.00121158 0)
(0.0416333 0.00133251 0)
(0.042239 0.00145223 0)
(0.0428741 0.0015712 0)
(0.0435366 0.00168946 0)
(0.0442248 0.00180733 0)
(0.0449368 0.00192486 0)
(0.0456711 0.00204228 0)
(0.0464262 0.00215964 0)
(0.0472007 0.00227706 0)
(0.0479933 0.00239459 0)
(0.0488028 0.00251228 0)
(0.0496279 0.00263013 0)
(0.0504674 0.00274815 0)
(0.0513204 0.00286628 0)
(0.0521855 0.00298446 0)
(0.0530618 0.00310258 0)
(0.0539481 0.00322052 0)
(0.0548434 0.00333813 0)
(0.0557465 0.0034552 0)
(0.0566563 0.00357151 0)
(0.0575717 0.00368681 0)
(0.0584916 0.00380082 0)
(0.0594146 0.00391321 0)
(0.0603397 0.00402365 0)
(0.0612655 0.00413176 0)
(0.0621909 0.00423715 0)
(0.0631145 0.00433939 0)
(0.064035 0.00443806 0)
(0.0649512 0.00453268 0)
(0.0658617 0.00462281 0)
(0.0667651 0.00470797 0)
(0.0676601 0.00478768 0)
(0.0685454 0.00486148 0)
(0.0694197 0.0049289 0)
(0.0702816 0.00498949 0)
(0.0711299 0.00504282 0)
(0.0719634 0.0050885 0)
(0.0727809 0.00512615 0)
(0.0735812 0.00515543 0)
(0.0743631 0.00517606 0)
(0.0751258 0.00518779 0)
(0.0758683 0.00519041 0)
(0.0765895 0.00518379 0)
(0.0772889 0.00516783 0)
(0.0779656 0.00514251 0)
(0.0786189 0.00510785 0)
(0.0792485 0.00506394 0)
(0.0798537 0.00501092 0)
(0.0804343 0.00494901 0)
(0.0809899 0.00487846 0)
(0.0815205 0.00479958 0)
(0.0820258 0.00471274 0)
(0.0825058 0.00461833 0)
(0.0829607 0.0045168 0)
(0.0833906 0.00440864 0)
(0.0837956 0.00429436 0)
(0.0841761 0.00417449 0)
(0.0845325 0.0040496 0)
(0.084865 0.00392025 0)
(0.0851742 0.00378702 0)
(0.0854605 0.0036505 0)
(0.0857246 0.00351127 0)
(0.0859669 0.0033699 0)
(0.086188 0.00322697 0)
(0.0863887 0.00308302 0)
(0.0865694 0.00293858 0)
(0.086731 0.00279418 0)
(0.086874 0.00265028 0)
(0.0869991 0.00250737 0)
(0.0871071 0.00236586 0)
(0.0871985 0.00222618 0)
(0.0872741 0.00208869 0)
(0.0873346 0.00195373 0)
(0.0873805 0.00182162 0)
(0.0874126 0.00169264 0)
(0.0874314 0.00156703 0)
(0.0874377 0.00144503 0)
(0.087432 0.00132682 0)
(0.087415 0.00121255 0)
(0.0873872 0.00110237 0)
(0.0873492 0.00099638 0)
(0.0873016 0.00089466 0)
(0.0872449 0.00079727 0)
(0.0871797 0.000704245 0)
(0.0871063 0.000615598 0)
(0.0870254 0.000531326 0)
(0.0869375 0.000451403 0)
(0.0868429 0.000375792 0)
(0.0867421 0.000304436 0)
(0.0866356 0.000237268 0)
(0.0865238 0.000174204 0)
(0.086407 0.000115157 0)
(0.0862857 6.00151e-05 0)
(0.0861603 8.68386e-06 0)
(0.086031 -3.89811e-05 0)
(0.0858982 -8.30664e-05 0)
(0.0857623 -0.000123759 0)
(0.0856235 -0.000161113 0)
(0.0854822 -0.000195382 0)
(0.0853387 -0.000226548 0)
(0.085193 -0.000254976 0)
(0.0850458 -0.000280511 0)
(0.084897 -0.000303704 0)
(0.084747 -0.000324169 0)
(0.0845958 -0.000342739 0)
(0.0844439 -0.000358697 0)
(0.0842914 -0.00037325 0)
(0.084138 -0.000385268 0)
(0.0839855 -0.000396375 0)
(0.0838303 -0.000405021 0)
(0.08368 -0.000413243 0)
(0.0835208 -0.000418937 0)
(0.0833777 -0.000425078 0)
(0.0832094 -0.000427504 0)
(0.0830804 -0.0004332 0)
(0.0828948 -0.000433735 0)
(0.0827963 -0.000436968 0)
(0.0825699 -0.000437806 0)
(0.0212391 -7.03298e-05 0)
(0.02148 2.13744e-05 0)
(0.0217636 0.000111619 0)
(0.022089 0.000201617 0)
(0.0224526 0.000290769 0)
(0.022853 0.000380038 0)
(0.0232878 0.000469033 0)
(0.0237555 0.000558414 0)
(0.0242543 0.000647968 0)
(0.0247829 0.000738133 0)
(0.0253397 0.000828805 0)
(0.0259236 0.000920276 0)
(0.0265334 0.0010125 0)
(0.027168 0.00110568 0)
(0.0278264 0.0011998 0)
(0.0285077 0.00129499 0)
(0.0292111 0.00139124 0)
(0.0299355 0.00148863 0)
(0.0306804 0.00158715 0)
(0.0314449 0.00168683 0)
(0.0322282 0.00178763 0)
(0.0330297 0.00188955 0)
(0.0338485 0.00199252 0)
(0.034684 0.00209649 0)
(0.0355354 0.00220134 0)
(0.0364019 0.00230699 0)
(0.0372828 0.00241326 0)
(0.0381771 0.00252001 0)
(0.0390841 0.00262704 0)
(0.0400029 0.00273412 0)
(0.0409325 0.00284101 0)
(0.0418719 0.00294742 0)
(0.0428201 0.00305305 0)
(0.043776 0.00315757 0)
(0.0447386 0.00326061 0)
(0.0457065 0.00336179 0)
(0.0466787 0.00346071 0)
(0.0476537 0.00355693 0)
(0.0486304 0.00365003 0)
(0.0496074 0.00373955 0)
(0.0505833 0.00382502 0)
(0.0515566 0.00390598 0)
(0.0525261 0.00398198 0)
(0.0534901 0.00405255 0)
(0.0544474 0.00411726 0)
(0.0553964 0.00417567 0)
(0.0563357 0.00422739 0)
(0.057264 0.00427205 0)
(0.0581797 0.00430929 0)
(0.0590817 0.00433883 0)
(0.0599685 0.00436039 0)
(0.0608389 0.00437378 0)
(0.0616917 0.00437883 0)
(0.0625257 0.00437543 0)
(0.06334 0.00436353 0)
(0.0641334 0.00434313 0)
(0.0649052 0.00431428 0)
(0.0656544 0.0042771 0)
(0.0663803 0.00423175 0)
(0.0670823 0.00417846 0)
(0.0677598 0.00411749 0)
(0.0684123 0.00404917 0)
(0.0690395 0.00397384 0)
(0.069641 0.00389191 0)
(0.0702167 0.00380381 0)
(0.0707665 0.00370999 0)
(0.0712902 0.00361095 0)
(0.071788 0.00350719 0)
(0.0722599 0.00339922 0)
(0.0727062 0.00328756 0)
(0.0731271 0.00317276 0)
(0.0735229 0.00305534 0)
(0.073894 0.00293581 0)
(0.0742408 0.00281471 0)
(0.0745638 0.00269252 0)
(0.0748635 0.00256973 0)
(0.0751404 0.00244682 0)
(0.0753951 0.00232421 0)
(0.0756283 0.00220234 0)
(0.0758405 0.0020816 0)
(0.0760325 0.00196236 0)
(0.0762049 0.00184495 0)
(0.0763583 0.00172968 0)
(0.0764935 0.00161685 0)
(0.0766111 0.0015067 0)
(0.0767119 0.00139947 0)
(0.0767966 0.00129534 0)
(0.0768659 0.00119448 0)
(0.0769204 0.00109705 0)
(0.0769608 0.00100317 0)
(0.0769879 0.000912913 0)
(0.0770023 0.000826367 0)
(0.0770047 0.000743578 0)
(0.0769957 0.000664576 0)
(0.0769759 0.000589371 0)
(0.076946 0.000517956 0)
(0.0769066 0.000450309 0)
(0.0768583 0.000386389 0)
(0.0768017 0.000326147 0)
(0.0767372 0.000269516 0)
(0.0766655 0.000216427 0)
(0.0765871 0.000166784 0)
(0.0765025 0.000120511 0)
(0.0764122 7.74809e-05 0)
(0.0763165 3.76256e-05 0)
(0.0762161 7.71456e-07 0)
(0.0761113 -3.31078e-05 0)
(0.0760025 -6.42712e-05 0)
(0.0758902 -9.26399e-05 0)
(0.0757746 -0.00011864 0)
(0.0756562 -0.000141966 0)
(0.0755352 -0.000163374 0)
(0.075412 -0.000182098 0)
(0.0752871 -0.000199543 0)
(0.0751601 -0.000214048 0)
(0.0750325 -0.000228235 0)
(0.0749024 -0.000238816 0)
(0.0747736 -0.000250527 0)
(0.0746407 -0.000257439 0)
(0.0745128 -0.000267377 0)
(0.0743758 -0.00027122 0)
(0.0742525 -0.000279292 0)
(0.0741076 -0.000282124 0)
(0.0739968 -0.000286712 0)
(0.0738348 -0.000290416 0)
(0.0737507 -0.000291609 0)
(0.0735539 -0.000297018 0)
(0.00898599 -0.000270058 0)
(0.00915815 -0.000217282 0)
(0.00936183 -0.000163484 0)
(0.00959641 -0.000108624 0)
(0.00986036 -5.27624e-05 0)
(0.010153 4.52448e-06 0)
(0.0104733 6.29817e-05 0)
(0.0108206 0.00012298 0)
(0.0111941 0.000184313 0)
(0.0115932 0.000247235 0)
(0.0120172 0.000311615 0)
(0.0124657 0.000377619 0)
(0.0129381 0.00044517 0)
(0.013434 0.000514376 0)
(0.013953 0.000585192 0)
(0.0144948 0.000657689 0)
(0.0150588 0.000731837 0)
(0.0156449 0.000807678 0)
(0.0162526 0.000885185 0)
(0.0168816 0.000964375 0)
(0.0175316 0.00104521 0)
(0.0182022 0.00112769 0)
(0.018893 0.00121175 0)
(0.0196038 0.00129735 0)
(0.020334 0.00138442 0)
(0.0210832 0.00147287 0)
(0.021851 0.0015626 0)
(0.0226369 0.00165347 0)
(0.0234403 0.00174535 0)
(0.0242605 0.00183805 0)
(0.025097 0.00193137 0)
(0.025949 0.0020251 0)
(0.0268157 0.00211899 0)
(0.0276962 0.00221275 0)
(0.0285898 0.0023061 0)
(0.0294953 0.0023987 0)
(0.0304118 0.00249021 0)
(0.0313381 0.00258027 0)
(0.0322731 0.00266847 0)
(0.0332156 0.00275443 0)
(0.0341643 0.00283772 0)
(0.0351178 0.00291792 0)
(0.0360747 0.00299461 0)
(0.0370337 0.00306734 0)
(0.0379933 0.00313571 0)
(0.038952 0.00319929 0)
(0.0399083 0.00325768 0)
(0.0408606 0.00331051 0)
(0.0418075 0.00335743 0)
(0.0427474 0.0033981 0)
(0.0436788 0.00343224 0)
(0.0446003 0.00345959 0)
(0.0455104 0.00347995 0)
(0.0464076 0.00349315 0)
(0.0472906 0.00349908 0)
(0.0481581 0.00349767 0)
(0.0490088 0.0034889 0)
(0.0498416 0.00347279 0)
(0.0506553 0.00344945 0)
(0.0514489 0.003419 0)
(0.0522215 0.00338161 0)
(0.0529722 0.00333751 0)
(0.0537002 0.00328698 0)
(0.0544049 0.00323031 0)
(0.0550856 0.00316784 0)
(0.055742 0.00309995 0)
(0.0563734 0.00302702 0)
(0.0569798 0.00294949 0)
(0.0575607 0.00286777 0)
(0.0581162 0.00278232 0)
(0.0586461 0.0026936 0)
(0.0591505 0.00260205 0)
(0.0596294 0.00250815 0)
(0.0600831 0.00241233 0)
(0.0605118 0.00231505 0)
(0.0609158 0.00221673 0)
(0.0612955 0.00211781 0)
(0.0616512 0.00201866 0)
(0.0619835 0.00191969 0)
(0.0622929 0.00182125 0)
(0.0625799 0.00172368 0)
(0.0628451 0.00162729 0)
(0.0630892 0.00153237 0)
(0.0633127 0.0014392 0)
(0.0635163 0.001348 0)
(0.0637008 0.001259 0)
(0.0638668 0.00117239 0)
(0.0640151 0.00108834 0)
(0.0641463 0.00100698 0)
(0.0642611 0.000928432 0)
(0.0643604 0.000852804 0)
(0.0644447 0.000780169 0)
(0.0645149 0.000710584 0)
(0.0645716 0.000644091 0)
(0.0646155 0.000580709 0)
(0.0646474 0.000520445 0)
(0.0646678 0.00046329 0)
(0.0646775 0.000409221 0)
(0.0646772 0.000358204 0)
(0.0646673 0.00031019 0)
(0.0646487 0.000265126 0)
(0.0646218 0.000222938 0)
(0.0645872 0.000183566 0)
(0.0645455 0.000146909 0)
(0.0644973 0.000112909 0)
(0.0644429 8.14303e-05 0)
(0.0643831 5.24389e-05 0)
(0.0643181 2.57448e-05 0)
(0.0642486 1.36975e-06 0)
(0.0641747 -2.0964e-05 0)
(0.0640972 -4.11325e-05 0)
(0.0640162 -5.95498e-05 0)
(0.0639321 -7.59322e-05 0)
(0.0638455 -9.08837e-05 0)
(0.0637562 -0.000103912 0)
(0.0636654 -0.000115836 0)
(0.0635717 -0.000125972 0)
(0.0634785 -0.000135265 0)
(0.0633806 -0.000143029 0)
(0.0632872 -0.000150009 0)
(0.0631841 -0.000156048 0)
(0.063094 -0.000160875 0)
(0.062983 -0.000166201 0)
(0.0629017 -0.000168555 0)
(0.0627773 -0.000175295 0)
(0.0627144 -0.000174324 0)
(0.0625655 -0.000183371 0)
(0.00059163 -0.000381235 0)
(0.0006532 -0.000354712 0)
(0.000736221 -0.000326845 0)
(0.000841244 -0.000297212 0)
(0.000967446 -0.000266153 0)
(0.00111518 -0.000233294 0)
(0.00128399 -0.0001989 0)
(0.00147406 -0.000162709 0)
(0.00168517 -0.000124899 0)
(0.00191741 -8.5298e-05 0)
(0.00217071 -4.40161e-05 0)
(0.00244513 -9.43563e-07 0)
(0.00274065 4.38557e-05 0)
(0.00305733 9.04542e-05 0)
(0.0033952 0.000138816 0)
(0.00375431 0.000188992 0)
(0.00413471 0.00024096 0)
(0.00453644 0.000294756 0)
(0.00495955 0.000350366 0)
(0.00540406 0.000407809 0)
(0.00587 0.000467071 0)
(0.00635737 0.000528152 0)
(0.00686616 0.00059103 0)
(0.00739632 0.000655686 0)
(0.00794778 0.000722077 0)
(0.00852044 0.000790159 0)
(0.00911414 0.000859863 0)
(0.0097287 0.000931112 0)
(0.0103639 0.00100381 0)
(0.0110194 0.00107783 0)
(0.0116949 0.00115304 0)
(0.0123899 0.00122927 0)
(0.013104 0.00130636 0)
(0.0138366 0.00138407 0)
(0.0145872 0.0014622 0)
(0.0153549 0.00154047 0)
(0.0161391 0.00161863 0)
(0.0169389 0.00169636 0)
(0.0177533 0.00177335 0)
(0.0185814 0.00184926 0)
(0.0194221 0.00192375 0)
(0.0202742 0.00199644 0)
(0.0211365 0.00206697 0)
(0.0220078 0.00213495 0)
(0.0228866 0.00220001 0)
(0.0237716 0.00226177 0)
(0.0246614 0.00231986 0)
(0.0255545 0.00237392 0)
(0.0264493 0.00242362 0)
(0.0273443 0.00246863 0)
(0.028238 0.00250866 0)
(0.0291288 0.00254344 0)
(0.0300151 0.00257275 0)
(0.0308954 0.0025964 0)
(0.0317681 0.00261421 0)
(0.0326318 0.00262609 0)
(0.033485 0.00263195 0)
(0.0343263 0.00263177 0)
(0.0351543 0.00262557 0)
(0.0359678 0.00261339 0)
(0.0367655 0.00259535 0)
(0.0375463 0.00257157 0)
(0.038309 0.00254224 0)
(0.0390528 0.00250757 0)
(0.0397767 0.00246781 0)
(0.0404799 0.00242324 0)
(0.0411617 0.00237415 0)
(0.0418214 0.00232087 0)
(0.0424586 0.00226374 0)
(0.0430728 0.00220312 0)
(0.0436636 0.00213937 0)
(0.0442308 0.00207287 0)
(0.0447743 0.00200399 0)
(0.0452939 0.0019331 0)
(0.0457897 0.00186058 0)
(0.0462617 0.00178679 0)
(0.04671 0.00171208 0)
(0.0471349 0.0016368 0)
(0.0475367 0.00156127 0)
(0.0479157 0.0014858 0)
(0.0482723 0.00141068 0)
(0.0486069 0.0013362 0)
(0.0489201 0.0012626 0)
(0.0492122 0.00119012 0)
(0.049484 0.00111897 0)
(0.049736 0.00104936 0)
(0.0499687 0.000981441 0)
(0.0501829 0.00091538 0)
(0.0503792 0.000851307 0)
(0.0505583 0.000789335 0)
(0.0507208 0.000729559 0)
(0.0508674 0.000672058 0)
(0.0509988 0.00061689 0)
(0.0511157 0.000564102 0)
(0.0512188 0.000513722 0)
(0.0513088 0.000465766 0)
(0.0513863 0.000420237 0)
(0.051452 0.000377124 0)
(0.0515065 0.00033641 0)
(0.0515505 0.00029806 0)
(0.0515847 0.000262041 0)
(0.0516096 0.000228295 0)
(0.0516258 0.000196785 0)
(0.0516339 0.000167424 0)
(0.0516345 0.000140184 0)
(0.051628 0.000114937 0)
(0.0516151 9.16906e-05 0)
(0.0515962 7.02457e-05 0)
(0.0515718 5.06954e-05 0)
(0.0515423 3.27066e-05 0)
(0.0515082 1.65452e-05 0)
(0.05147 1.63655e-06 0)
(0.0514278 -1.14391e-05 0)
(0.0513825 -2.367e-05 0)
(0.0513335 -3.39563e-05 0)
(0.0512827 -4.39219e-05 0)
(0.051228 -5.1738e-05 0)
(0.0511733 -5.97983e-05 0)
(0.0511134 -6.56054e-05 0)
(0.0510568 -7.1889e-05 0)
(0.0509915 -7.65896e-05 0)
(0.0509354 -8.06546e-05 0)
(0.0508634 -8.59849e-05 0)
(0.0508117 -8.6769e-05 0)
(0.05073 -9.4758e-05 0)
(0.050688 -9.21285e-05 0)
(0.0505917 -0.000103019 0)
(-0.00452873 -0.000370577 0)
(-0.00457644 -0.000361739 0)
(-0.00461105 -0.000351412 0)
(-0.00463189 -0.000339669 0)
(-0.00463892 -0.000326497 0)
(-0.00463157 -0.000311789 0)
(-0.00460965 -0.000295643 0)
(-0.00457269 -0.000277935 0)
(-0.00452038 -0.000258766 0)
(-0.00445232 -0.000238038 0)
(-0.00436814 -0.000215825 0)
(-0.00426746 -0.000192058 0)
(-0.00414989 -0.000166784 0)
(-0.00401507 -0.000139952 0)
(-0.0038626 -0.000111586 0)
(-0.00369212 -8.16485e-05 0)
(-0.00350326 -5.01474e-05 0)
(-0.00329565 -1.70507e-05 0)
(-0.00306893 1.7642e-05 0)
(-0.00282277 5.39572e-05 0)
(-0.00255681 9.18984e-05 0)
(-0.00227076 0.000131485 0)
(-0.0019643 0.000172716 0)
(-0.00163717 0.000215602 0)
(-0.0012891 0.000260131 0)
(-0.000919889 0.000306297 0)
(-0.000529337 0.000354073 0)
(-0.000117306 0.000403428 0)
(0.000316309 0.000454314 0)
(0.000771555 0.000506671 0)
(0.00124843 0.000560421 0)
(0.00174688 0.00061547 0)
(0.00226676 0.000671703 0)
(0.00280788 0.000728989 0)
(0.00336998 0.000787173 0)
(0.0039527 0.000846082 0)
(0.00455562 0.000905522 0)
(0.00517823 0.000965279 0)
(0.00581993 0.00102512 0)
(0.00648003 0.00108479 0)
(0.00715778 0.00114402 0)
(0.0078523 0.00120253 0)
(0.00856265 0.00126002 0)
(0.00928782 0.00131619 0)
(0.0100267 0.00137073 0)
(0.0107781 0.00142332 0)
(0.0115407 0.00147366 0)
(0.0123133 0.00152144 0)
(0.0130944 0.00156636 0)
(0.0138826 0.00160814 0)
(0.0146765 0.0016465 0)
(0.0154745 0.00168121 0)
(0.0162751 0.00171203 0)
(0.0170767 0.00173877 0)
(0.0178778 0.00176126 0)
(0.0186768 0.00177937 0)
(0.0194721 0.00179299 0)
(0.0202623 0.00180205 0)
(0.0210458 0.00180652 0)
(0.0218212 0.00180641 0)
(0.0225871 0.00180174 0)
(0.023342 0.00179258 0)
(0.0240849 0.00177905 0)
(0.0248143 0.00176126 0)
(0.0255292 0.00173939 0)
(0.0262284 0.00171362 0)
(0.0269112 0.00168416 0)
(0.0275764 0.00165124 0)
(0.0282234 0.00161511 0)
(0.0288514 0.00157604 0)
(0.0294598 0.00153428 0)
(0.0300481 0.00149014 0)
(0.0306158 0.00144388 0)
(0.0311626 0.0013958 0)
(0.0316882 0.00134619 0)
(0.0321924 0.00129533 0)
(0.0326752 0.00124349 0)
(0.0331365 0.00119094 0)
(0.0335763 0.00113795 0)
(0.0339949 0.00108476 0)
(0.0343923 0.0010316 0)
(0.0347688 0.000978709 0)
(0.0351248 0.000926279 0)
(0.0354605 0.000874507 0)
(0.0357764 0.000823567 0)
(0.0360729 0.000773619 0)
(0.0363504 0.000724807 0)
(0.0366096 0.000677258 0)
(0.0368508 0.000631084 0)
(0.0370748 0.000586383 0)
(0.037282 0.000543236 0)
(0.0374731 0.000501709 0)
(0.0376487 0.000461858 0)
(0.0378094 0.000423724 0)
(0.0379558 0.000387334 0)
(0.0380886 0.000352708 0)
(0.0382083 0.000319851 0)
(0.0383157 0.000288761 0)
(0.0384114 0.000259427 0)
(0.0384959 0.000231828 0)
(0.0385699 0.000205939 0)
(0.038634 0.000181721 0)
(0.0386888 0.000159143 0)
(0.0387349 0.000138147 0)
(0.0387728 0.000118706 0)
(0.038803 0.000100731 0)
(0.0388262 8.42174e-05 0)
(0.0388427 6.90338e-05 0)
(0.0388532 5.52187e-05 0)
(0.0388581 4.25735e-05 0)
(0.0388578 3.12128e-05 0)
(0.0388528 2.08402e-05 0)
(0.0388434 1.16777e-05 0)
(0.0388303 3.31259e-06 0)
(0.0388132 -3.92909e-06 0)
(0.0387937 -1.05275e-05 0)
(0.03877 -1.61774e-05 0)
(0.0387457 -2.11797e-05 0)
(0.0387163 -2.56921e-05 0)
(0.0386889 -2.91125e-05 0)
(0.038654 -3.32219e-05 0)
(0.0386254 -3.477e-05 0)
(0.038585 -3.97675e-05 0)
(0.0385568 -3.87326e-05 0)
(0.0385105 -4.65574e-05 0)
(0.0384846 -4.27665e-05 0)
(0.038432 -5.35474e-05 0)
(-0.00668531 -0.000272886 0)
(-0.00680574 -0.000272743 0)
(-0.00692056 -0.000271752 0)
(-0.00702885 -0.00026974 0)
(-0.00713039 -0.000266872 0)
(-0.00722439 -0.00026298 0)
(-0.00731048 -0.000258199 0)
(-0.00738797 -0.000252406 0)
(-0.00745639 -0.000245688 0)
(-0.00751515 -0.000237962 0)
(-0.0075637 -0.00022928 0)
(-0.00760149 -0.000219584 0)
(-0.00762796 -0.000208898 0)
(-0.00764257 -0.00019718 0)
(-0.00764475 -0.000184436 0)
(-0.00763395 -0.00017063 0)
(-0.00760962 -0.000155754 0)
(-0.0075712 -0.000139774 0)
(-0.00751813 -0.000122677 0)
(-0.00744987 -0.000104427 0)
(-0.00736586 -8.50066e-05 0)
(-0.00726556 -6.43832e-05 0)
(-0.00714842 -4.25364e-05 0)
(-0.00701392 -1.94395e-05 0)
(-0.00686154 4.92457e-06 0)
(-0.00669077 3.05744e-05 0)
(-0.00650113 5.75183e-05 0)
(-0.00629216 8.5762e-05 0)
(-0.00606343 0.000115299 0)
(-0.00581455 0.000146118 0)
(-0.00554515 0.000178192 0)
(-0.00525494 0.000211485 0)
(-0.00494364 0.000245947 0)
(-0.00461107 0.000281513 0)
(-0.00425709 0.000318102 0)
(-0.00388163 0.000355618 0)
(-0.00348471 0.000393949 0)
(-0.00306641 0.000432964 0)
(-0.00262693 0.000472518 0)
(-0.00216652 0.000512449 0)
(-0.00168555 0.000552579 0)
(-0.00118449 0.000592716 0)
(-0.000663885 0.000632658 0)
(-0.000124396 0.00067219 0)
(0.000433219 0.000711088 0)
(0.00100811 0.000749126 0)
(0.00159932 0.00078607 0)
(0.00220582 0.000821689 0)
(0.00282648 0.000855754 0)
(0.00346009 0.000888042 0)
(0.00410537 0.000918337 0)
(0.00476098 0.000946438 0)
(0.00542549 0.000972157 0)
(0.00609747 0.000995322 0)
(0.00677541 0.00101578 0)
(0.0074578 0.00103341 0)
(0.00814307 0.00104809 0)
(0.00882969 0.00105975 0)
(0.0095161 0.00106834 0)
(0.0102008 0.00107381 0)
(0.0108822 0.00107617 0)
(0.0115588 0.00107543 0)
(0.0122293 0.00107164 0)
(0.0128921 0.00106488 0)
(0.0135461 0.00105522 0)
(0.0141898 0.00104279 0)
(0.0148222 0.00102771 0)
(0.0154421 0.00101013 0)
(0.0160483 0.000990219 0)
(0.0166401 0.000968141 0)
(0.0172165 0.000944085 0)
(0.0177767 0.000918242 0)
(0.01832 0.000890807 0)
(0.0188459 0.00086198 0)
(0.0193538 0.000831961 0)
(0.0198433 0.00080095 0)
(0.0203141 0.000769143 0)
(0.020766 0.00073673 0)
(0.0211987 0.000703896 0)
(0.0216121 0.00067082 0)
(0.0220064 0.000637671 0)
(0.0223815 0.000604606 0)
(0.0227375 0.000571776 0)
(0.0230747 0.000539319 0)
(0.0233933 0.00050736 0)
(0.0236937 0.000476015 0)
(0.0239761 0.000445388 0)
(0.0242409 0.00041557 0)
(0.0244887 0.000386642 0)
(0.0247199 0.000358673 0)
(0.0249349 0.00033172 0)
(0.0251344 0.000305831 0)
(0.0253188 0.000281044 0)
(0.0254889 0.000257388 0)
(0.025645 0.000234881 0)
(0.0257879 0.000213533 0)
(0.0259182 0.00019335 0)
(0.0260364 0.000174326 0)
(0.0261431 0.000156454 0)
(0.0262391 0.000139713 0)
(0.0263249 0.000124088 0)
(0.026401 0.000109545 0)
(0.0264681 9.60676e-05 0)
(0.0265268 8.36029e-05 0)
(0.0265776 7.21442e-05 0)
(0.0266211 6.16097e-05 0)
(0.0266577 5.20217e-05 0)
(0.0266881 4.32482e-05 0)
(0.0267126 3.53723e-05 0)
(0.026732 2.81743e-05 0)
(0.0267463 2.18489e-05 0)
(0.0267564 1.60292e-05 0)
(0.0267621 1.10929e-05 0)
(0.0267647 6.45047e-06 0)
(0.0267633 2.73512e-06 0)
(0.0267601 -9.13932e-07 0)
(0.0267528 -3.61827e-06 0)
(0.0267451 -6.3859e-06 0)
(0.0267328 -8.42485e-06 0)
(0.026722 -1.02333e-05 0)
(0.0267055 -1.22766e-05 0)
(0.0266927 -1.26887e-05 0)
(0.0266727 -1.59571e-05 0)
(0.0266582 -1.41991e-05 0)
(0.0266358 -2.03303e-05 0)
(0.026619 -1.63779e-05 0)
(0.0265956 -2.57093e-05 0)
(-0.00604728 -0.000123817 0)
(-0.00617838 -0.000126047 0)
(-0.00630909 -0.00012788 0)
(-0.00643867 -0.000129377 0)
(-0.00656689 -0.000130497 0)
(-0.00669311 -0.000131233 0)
(-0.00681697 -0.000131593 0)
(-0.00693793 -0.000131547 0)
(-0.00705556 -0.000131116 0)
(-0.00716934 -0.000130271 0)
(-0.00727881 -0.00012903 0)
(-0.00738346 -0.000127367 0)
(-0.0074828 -0.000125293 0)
(-0.00757634 -0.000122786 0)
(-0.00766356 -0.000119847 0)
(-0.00774396 -0.000116457 0)
(-0.00781699 -0.000112611 0)
(-0.00788215 -0.000108286 0)
(-0.00793887 -0.000103472 0)
(-0.00798662 -9.81447e-05 0)
(-0.00802481 -9.22885e-05 0)
(-0.00805288 -8.58784e-05 0)
(-0.00807024 -7.88943e-05 0)
(-0.0080763 -7.13107e-05 0)
(-0.00807044 -6.31061e-05 0)
(-0.00805208 -5.42559e-05 0)
(-0.00802058 -4.47397e-05 0)
(-0.00797534 -3.45365e-05 0)
(-0.00791575 -2.363e-05 0)
(-0.0078412 -1.2006e-05 0)
(-0.00775112 3.43912e-07 0)
(-0.00764494 1.3424e-05 0)
(-0.00752211 2.72308e-05 0)
(-0.00738212 4.17548e-05 0)
(-0.00722451 5.69774e-05 0)
(-0.00704885 7.28717e-05 0)
(-0.00685477 8.94009e-05 0)
(-0.00664196 0.000106518 0)
(-0.00641019 0.000124167 0)
(-0.0061593 0.000142279 0)
(-0.00588922 0.000160777 0)
(-0.00559994 0.000179573 0)
(-0.00529159 0.000198569 0)
(-0.00496437 0.000217659 0)
(-0.00461858 0.000236729 0)
(-0.00425465 0.00025566 0)
(-0.0038731 0.000274326 0)
(-0.00347455 0.0002926 0)
(-0.00305975 0.000310352 0)
(-0.00262952 0.000327453 0)
(-0.00218481 0.000343776 0)
(-0.00172663 0.000359199 0)
(-0.00125611 0.000373606 0)
(-0.00077444 0.000386889 0)
(-0.000282874 0.000398949 0)
(0.000217264 0.000409699 0)
(0.000724601 0.000419062 0)
(0.00123773 0.000426978 0)
(0.0017552 0.000433399 0)
(0.00227558 0.00043829 0)
(0.0027974 0.000441635 0)
(0.00331921 0.00044343 0)
(0.00383957 0.000443686 0)
(0.00435709 0.000442428 0)
(0.0048704 0.000439695 0)
(0.00537817 0.000435539 0)
(0.00587916 0.000430023 0)
(0.00637217 0.000423219 0)
(0.00685607 0.00041521 0)
(0.00732982 0.000406085 0)
(0.00779245 0.00039594 0)
(0.00824309 0.000384875 0)
(0.00868094 0.000372995 0)
(0.00910531 0.000360404 0)
(0.00951559 0.000347209 0)
(0.00991126 0.000333516 0)
(0.0102919 0.000319428 0)
(0.0106572 0.000305048 0)
(0.0110068 0.000290471 0)
(0.0113407 0.000275791 0)
(0.0116587 0.000261095 0)
(0.0119609 0.000246466 0)
(0.0122472 0.000231979 0)
(0.0125178 0.000217704 0)
(0.012773 0.000203703 0)
(0.0130129 0.000190032 0)
(0.0132379 0.000176741 0)
(0.0134484 0.000163872 0)
(0.0136446 0.000151461 0)
(0.0138271 0.000139537 0)
(0.0139963 0.000128126 0)
(0.0141527 0.000117245 0)
(0.0142967 0.000106906 0)
(0.014429 9.71182e-05 0)
(0.0145501 8.78845e-05 0)
(0.0146605 7.92045e-05 0)
(0.0147608 7.10736e-05 0)
(0.0148514 6.34842e-05 0)
(0.0149331 5.64258e-05 0)
(0.0150062 4.98848e-05 0)
(0.0150714 4.38471e-05 0)
(0.0151292 3.82934e-05 0)
(0.0151802 3.32088e-05 0)
(0.0152247 2.85676e-05 0)
(0.0152633 2.43579e-05 0)
(0.0152965 2.05455e-05 0)
(0.0153247 1.71268e-05 0)