/*--------------------------------*- C++ -*----------------------------------*\
| =========                 |                                                 |
| \\      /  F ield         | OpenFOAM: The Open Source CFD Toolbox           |
|  \\    /   O peration     | Version:  4.1                                   |
|   \\  /    A nd           | Web:      www.OpenFOAM.org                      |
|    \\/     M anipulation  |                                                 |
\*---------------------------------------------------------------------------*/
FoamFile
{
    version     2.0;
    format      ascii;
    class       volScalarField;
    location    "250";
    object      p;
}
// * * * * * * * * * * * * * * * * * * * * * * * * * * * * * * * * * * * * * //

dimensions      [1 -1 -2 0 0 0 0];

internalField   nonuniform List<scalar> 
3264
(
0.712527
0.712526
0.712525
0.712524
0.712524
0.712525
0.712525
0.712527
0.712529
0.712532
0.712536
0.71254
0.712545
0.712551
0.712558
0.712565
0.712574
0.712583
0.712594
0.712607
0.712621
0.712637
0.712655
0.712676
0.7127
0.712727
0.712758
0.712793
0.712832
0.712876
0.712924
0.712977
0.713035
0.713098
0.713165
0.713237
0.713312
0.713391
0.713474
0.713558
0.713644
0.713731
0.713818
0.713904
0.713988
0.714069
0.714147
0.714221
0.714291
0.714355
0.714413
0.714465
0.714511
0.714551
0.714584
0.714611
0.714633
0.714649
0.714661
0.714668
0.714672
0.714674
0.714672
0.714669
0.714665
0.714661
0.714656
0.714651
0.714647
0.714644
0.714641
0.714639
0.714638
0.714638
0.714638
0.714639
0.714641
0.714642
0.714644
0.714646
0.714648
0.71465
0.714651
0.714652
0.714654
0.714655
0.714655
0.714656
0.714656
0.714657
0.714657
0.714658
0.714658
0.714659
0.71466
0.714661
0.714664
0.714667
0.714671
0.714676
0.714683
0.714691
0.7147
0.714711
0.714723
0.714736
0.714751
0.714766
0.714783
0.7148
0.714817
0.714835
0.714852
0.714869
0.714885
0.7149
0.714915
0.714928
0.714939
0.714949
0.714957
0.714964
0.714968
0.714971
0.714973
0.714973
0.714971
0.714968
0.714964
0.714958
0.714952
0.714944
0.714936
0.714928
0.714919
0.714909
0.7149
0.71489
0.71488
0.71487
0.714861
0.714851
0.714841
0.714832
0.714823
0.714814
0.714805
0.714796
0.714787
0.714778
0.714769
0.71476
0.714752
0.714743
0.714734
0.714724
0.714715
0.714706
0.714696
0.714687
0.714677
0.714667
0.714658
0.714648
0.714638
0.714628
0.714618
0.714608
0.714598
0.714588
0.714578
0.714568
0.714558
0.714548
0.714538
0.714528
0.714518
0.714508
0.714498
0.714488
0.714478
0.714469
0.714459
0.714449
0.714439
0.714429
0.714419
0.714409
0.7144
0.71439
0.71438
0.71437
0.71436
0.71435
0.71434
0.71433
0.714321
0.714311
0.714301
0.714291
0.712529
0.712527
0.712527
0.712526
0.712526
0.712527
0.712528
0.71253
0.712532
0.712535
0.712538
0.712542
0.712548
0.712553
0.71256
0.712568
0.712576
0.712586
0.712597
0.712609
0.712623
0.712639
0.712657
0.712678
0.712701
0.712727
0.712758
0.712792
0.71283
0.712872
0.71292
0.712972
0.713029
0.713091
0.713158
0.713229
0.713304
0.713383
0.713464
0.713549
0.713634
0.713721
0.713807
0.713893
0.713977
0.714059
0.714137
0.714211
0.714281
0.714345
0.714403
0.714455
0.714502
0.714541
0.714575
0.714603
0.714625
0.714642
0.714654
0.714662
0.714667
0.714668
0.714668
0.714666
0.714663
0.714659
0.714655
0.714652
0.714649
0.714646
0.714644
0.714643
0.714643
0.714643
0.714643
0.714644
0.714646
0.714647
0.714649
0.71465
0.714652
0.714653
0.714654
0.714656
0.714656
0.714657
0.714658
0.714658
0.714658
0.714659
0.714659
0.714659
0.714659
0.714659
0.71466
0.714662
0.714664
0.714667
0.71467
0.714675
0.714682
0.714689
0.714698
0.714708
0.71472
0.714733
0.714748
0.714763
0.714779
0.714796
0.714814
0.714831
0.714849
0.714866
0.714882
0.714897
0.714912
0.714925
0.714937
0.714947
0.714955
0.714962
0.714967
0.71497
0.714972
0.714972
0.714971
0.714968
0.714964
0.714958
0.714952
0.714945
0.714937
0.714928
0.714919
0.71491
0.7149
0.71489
0.714881
0.714871
0.714861
0.714851
0.714842
0.714832
0.714823
0.714814
0.714805
0.714796
0.714787
0.714778
0.714769
0.71476
0.714752
0.714743
0.714734
0.714724
0.714715
0.714706
0.714696
0.714687
0.714677
0.714667
0.714658
0.714648
0.714638
0.714628
0.714618
0.714608
0.714598
0.714588
0.714578
0.714568
0.714558
0.714548
0.714538
0.714528
0.714518
0.714508
0.714498
0.714488
0.714478
0.714469
0.714459
0.714449
0.714439
0.714429
0.714419
0.714409
0.7144
0.71439
0.71438
0.71437
0.71436
0.71435
0.71434
0.71433
0.714321
0.714311
0.714301
0.714291
0.71253
0.712528
0.712527
0.712527
0.712526
0.712527
0.712527
0.712529
0.712531
0.712534
0.712537
0.712542
0.712547
0.712553
0.712559
0.712567
0.712575
0.712585
0.712596
0.712608
0.712621
0.712637
0.712654
0.712674
0.712697
0.712723
0.712752
0.712785
0.712823
0.712865
0.712912
0.712964
0.713021
0.713082
0.713149
0.713219
0.713294
0.713373
0.713454
0.713538
0.713624
0.71371
0.713797
0.713882
0.713966
0.714048
0.714126
0.7142
0.714269
0.714333
0.714391
0.714443
0.714489
0.714528
0.714562
0.714589
0.714611
0.714628
0.71464
0.714648
0.714653
0.714655
0.714655
0.714653
0.714651
0.714648
0.714644
0.714641
0.714639
0.714637
0.714637
0.714637
0.714637
0.714639
0.714641
0.714643
0.714645
0.714648
0.71465
0.714652
0.714654
0.714656
0.714657
0.714658
0.714658
0.714659
0.714659
0.71466
0.71466
0.71466
0.71466
0.71466
0.71466
0.71466
0.714661
0.714662
0.714663
0.714666
0.71467
0.714674
0.71468
0.714688
0.714696
0.714707
0.714718
0.714731
0.714746
0.714761
0.714777
0.714794
0.714811
0.714829
0.714846
0.714863
0.71488
0.714896
0.71491
0.714923
0.714935
0.714945
0.714954
0.714961
0.714966
0.714969
0.714971
0.714971
0.71497
0.714967
0.714963
0.714958
0.714952
0.714945
0.714937
0.714928
0.714919
0.71491
0.7149
0.714891
0.714881
0.714871
0.714861
0.714851
0.714842
0.714832
0.714823
0.714814
0.714805
0.714796
0.714787
0.714778
0.714769
0.71476
0.714752
0.714743
0.714734
0.714725
0.714715
0.714706
0.714696
0.714687
0.714677
0.714667
0.714658
0.714648
0.714638
0.714628
0.714618
0.714608
0.714598
0.714588
0.714578
0.714568
0.714558
0.714548
0.714538
0.714528
0.714518
0.714508
0.714498
0.714488
0.714478
0.714469
0.714459
0.714449
0.714439
0.714429
0.714419
0.714409
0.7144
0.71439
0.71438
0.71437
0.71436
0.71435
0.71434
0.71433
0.714321
0.714311
0.714301
0.714291
0.712525
0.712524
0.712523
0.712524
0.712524
0.712524
0.712525
0.712527
0.712529
0.712532
0.712536
0.71254
0.712545
0.712551
0.712558
0.712565
0.712574
0.712583
0.712594
0.712605
0.712618
0.712633
0.71265
0.712669
0.712691
0.712716
0.712745
0.712778
0.712815
0.712856
0.712902
0.712954
0.71301
0.713071
0.713137
0.713207
0.713282
0.71336
0.713441
0.713524
0.713609
0.713695
0.71378
0.713865
0.713948
0.714028
0.714105
0.714177
0.714245
0.714308
0.714364
0.714415
0.71446
0.714498
0.71453
0.714557
0.714578
0.714594
0.714605
0.714613
0.714618
0.71462
0.71462
0.714619
0.714618
0.714616
0.714614
0.714613
0.714612
0.714612
0.714613
0.714616
0.714619
0.714622
0.714627
0.714631
0.714636
0.714641
0.714646
0.71465
0.714654
0.714657
0.714659
0.714661
0.714663
0.714663
0.714664
0.714664
0.714664
0.714663
0.714663
0.714662
0.714662
0.714662
0.714662
0.714663
0.714665
0.714667
0.71467
0.714675
0.71468
0.714687
0.714696
0.714706
0.714717
0.71473
0.714744
0.714759
0.714775
0.714792
0.714809
0.714826
0.714843
0.71486
0.714877
0.714892
0.714907
0.71492
0.714931
0.714942
0.71495
0.714957
0.714962
0.714966
0.714968
0.714968
0.714967
0.714965
0.714961
0.714956
0.71495
0.714943
0.714936
0.714928
0.714919
0.71491
0.7149
0.714891
0.714881
0.714871
0.714861
0.714852
0.714842
0.714833
0.714823
0.714814
0.714805
0.714796
0.714787
0.714778
0.71477
0.714761
0.714752
0.714743
0.714734
0.714725
0.714715
0.714706
0.714696
0.714687
0.714677
0.714667
0.714658
0.714648
0.714638
0.714628
0.714618
0.714608
0.714598
0.714588
0.714578
0.714568
0.714558
0.714548
0.714538
0.714528
0.714518
0.714508
0.714498
0.714488
0.714478
0.714469
0.714459
0.714449
0.714439
0.714429
0.714419
0.714409
0.7144
0.71439
0.71438
0.71437
0.71436
0.71435
0.71434
0.71433
0.714321
0.714311
0.714301
0.714291
0.712522
0.712522
0.71252
0.71252
0.712519
0.712519
0.71252
0.712522
0.712525
0.712528
0.712532
0.712537
0.712542
0.712548
0.712555
0.712563
0.712571
0.71258
0.712591
0.712602
0.712615
0.712629
0.712646
0.712665
0.712686
0.712711
0.71274
0.712772
0.712809
0.71285
0.712896
0.712947
0.713003
0.713063
0.713129
0.713199
0.713272
0.71335
0.71343
0.713512
0.713595
0.713679
0.713763
0.713846
0.713926
0.714004
0.714078
0.714148
0.714213
0.714272
0.714326
0.714373
0.714415
0.71445
0.714479
0.714503
0.714522
0.714536
0.714546
0.714553
0.714557
0.714559
0.714559
0.714559
0.714558
0.714557
0.714557
0.714558
0.71456
0.714562
0.714567
0.714572
0.714578
0.714585
0.714593
0.714602
0.714611
0.71462
0.714628
0.714637
0.714644
0.714651
0.714657
0.714661
0.714665
0.714668
0.71467
0.714671
0.714672
0.714672
0.714671
0.714671
0.71467
0.714669
0.714669
0.71467
0.714671
0.714672
0.714675
0.714679
0.714685
0.714691
0.714699
0.714709
0.71472
0.714732
0.714745
0.71476
0.714775
0.714792
0.714808
0.714825
0.714841
0.714858
0.714874
0.714888
0.714902
0.714915
0.714926
0.714936
0.714944
0.714951
0.714956
0.71496
0.714962
0.714962
0.714961
0.714959
0.714956
0.714952
0.714946
0.71494
0.714933
0.714925
0.714917
0.714909
0.7149
0.71489
0.714881
0.714872
0.714862
0.714853
0.714843
0.714834
0.714824
0.714815
0.714806
0.714797
0.714788
0.714779
0.71477
0.714761
0.714752
0.714743
0.714734
0.714725
0.714715
0.714706
0.714696
0.714687
0.714677
0.714667
0.714657
0.714648
0.714638
0.714628
0.714618
0.714608
0.714598
0.714588
0.714578
0.714568
0.714558
0.714548
0.714538
0.714528
0.714518
0.714508
0.714498
0.714488
0.714478
0.714469
0.714459
0.714449
0.714439
0.714429
0.714419
0.714409
0.7144
0.71439
0.71438
0.71437
0.71436
0.71435
0.71434
0.71433
0.714321
0.714311
0.714301
0.714291
0.71249
0.712505
0.712505
0.712511
0.712512
0.712515
0.712516
0.712519
0.712522
0.712526
0.71253
0.712535
0.712541
0.712547
0.712554
0.712562
0.71257
0.712579
0.71259
0.712601
0.712614
0.712628
0.712644
0.712663
0.712685
0.71271
0.712738
0.71277
0.712807
0.712848
0.712894
0.712945
0.713001
0.713061
0.713126
0.713195
0.713268
0.713344
0.713423
0.713503
0.713584
0.713666
0.713746
0.713826
0.713902
0.713976
0.714046
0.714111
0.71417
0.714225
0.714273
0.714315
0.714352
0.714382
0.714407
0.714427
0.714442
0.714454
0.714461
0.714467
0.71447
0.714471
0.714472
0.714473
0.714473
0.714475
0.714477
0.71448
0.714485
0.714491
0.714499
0.714508
0.714518
0.71453
0.714542
0.714555
0.714569
0.714583
0.714597
0.714611
0.714624
0.714636
0.714647
0.714656
0.714665
0.714672
0.714677
0.714681
0.714684
0.714686
0.714687
0.714687
0.714687
0.714686
0.714686
0.714686
0.714686
0.714687
0.71469
0.714693
0.714697
0.714703
0.71471
0.714719
0.714729
0.71474
0.714752
0.714766
0.71478
0.714795
0.71481
0.714826
0.714841
0.714856
0.714871
0.714884
0.714897
0.714909
0.714919
0.714928
0.714936
0.714942
0.714947
0.71495
0.714952
0.714953
0.714952
0.714951
0.714948
0.714944
0.71494
0.714934
0.714928
0.714921
0.714914
0.714906
0.714898
0.71489
0.714881
0.714872
0.714863
0.714854
0.714844
0.714835
0.714826
0.714817
0.714808
0.714798
0.714789
0.71478
0.714771
0.714762
0.714753
0.714743
0.714734
0.714725
0.714715
0.714706
0.714696
0.714687
0.714677
0.714667
0.714657
0.714647
0.714637
0.714627
0.714617
0.714607
0.714598
0.714588
0.714578
0.714568
0.714558
0.714548
0.714538
0.714528
0.714518
0.714508
0.714498
0.714488
0.714478
0.714469
0.714459
0.714449
0.714439
0.714429
0.714419
0.714409
0.7144
0.71439
0.71438
0.71437
0.71436
0.71435
0.71434
0.71433
0.714321
0.714311
0.714301
0.714291
0.71249
0.712506
0.712504
0.712508
0.712508
0.712511
0.712513
0.712516
0.71252
0.712524
0.712529
0.712534
0.71254
0.712547
0.712554
0.712562
0.712571
0.71258
0.712591
0.712602
0.712615
0.71263
0.712647
0.712667
0.712689
0.712715
0.712744
0.712777
0.712814
0.712856
0.712903
0.712954
0.71301
0.71307
0.713135
0.713203
0.713275
0.713349
0.713426
0.713503
0.713581
0.713659
0.713735
0.71381
0.713881
0.713948
0.714012
0.71407
0.714123
0.71417
0.714211
0.714246
0.714276
0.7143
0.71432
0.714335
0.714346
0.714354
0.71436
0.714363
0.714366
0.714368
0.71437
0.714372
0.714375
0.714379
0.714384
0.71439
0.714399
0.714408
0.71442
0.714433
0.714448
0.714464
0.714481
0.714499
0.714518
0.714537
0.714557
0.714576
0.714595
0.714613
0.71463
0.714646
0.71466
0.714673
0.714684
0.714693
0.7147
0.714706
0.71471
0.714712
0.714714
0.714715
0.714715
0.714715
0.714715
0.714716
0.714717
0.71472
0.714723
0.714727
0.714733
0.71474
0.714748
0.714758
0.714768
0.71478
0.714792
0.714805
0.714818
0.714831
0.714845
0.714857
0.71487
0.714881
0.714892
0.714902
0.714911
0.714918
0.714925
0.71493
0.714934
0.714937
0.714939
0.71494
0.71494
0.714939
0.714937
0.714934
0.714931
0.714926
0.714922
0.714916
0.71491
0.714903
0.714896
0.714889
0.714881
0.714872
0.714864
0.714855
0.714846
0.714837
0.714828
0.714819
0.71481
0.7148
0.714791
0.714782
0.714772
0.714763
0.714754
0.714744
0.714735
0.714725
0.714715
0.714706
0.714696
0.714686
0.714677
0.714667
0.714657
0.714647
0.714637
0.714627
0.714617
0.714607
0.714597
0.714587
0.714577
0.714568
0.714558
0.714548
0.714538
0.714528
0.714518
0.714508
0.714498
0.714488
0.714479
0.714469
0.714459
0.714449
0.714439
0.714429
0.714419
0.714409
0.7144
0.71439
0.71438
0.71437
0.71436
0.71435
0.71434
0.71433
0.714321
0.714311
0.714301
0.714291
0.712334
0.712473
0.71249
0.712511
0.712515
0.712518
0.71252
0.712523
0.712525
0.712529
0.712534
0.712539
0.712545
0.712551
0.712559
0.712567
0.712576
0.712586
0.712597
0.71261
0.712624
0.71264
0.712658
0.712679
0.712703
0.71273
0.712761
0.712796
0.712835
0.712879
0.712926
0.712979
0.713035
0.713096
0.71316
0.713228
0.713298
0.71337
0.713444
0.713518
0.713591
0.713664
0.713734
0.713801
0.713865
0.713925
0.71398
0.714029
0.714073
0.714111
0.714144
0.714171
0.714193
0.714211
0.714225
0.714235
0.714243
0.714249
0.714253
0.714257
0.71426
0.714264
0.714268
0.714273
0.714279
0.714286
0.714294
0.714305
0.714316
0.71433
0.714345
0.714362
0.71438
0.714401
0.714422
0.714444
0.714468
0.714492
0.714517
0.714542
0.714566
0.71459
0.714613
0.714635
0.714655
0.714674
0.714691
0.714705
0.714718
0.714729
0.714737
0.714744
0.714749
0.714752
0.714754
0.714756
0.714757
0.714758
0.714759
0.71476
0.714762
0.714765
0.714769
0.714774
0.71478
0.714787
0.714795
0.714803
0.714812
0.714822
0.714832
0.714842
0.714852
0.714862
0.714871
0.71488
0.714888
0.714895
0.714901
0.714907
0.714912
0.714916
0.714919
0.714921
0.714923
0.714924
0.714925
0.714924
0.714924
0.714922
0.71492
0.714917
0.714914
0.71491
0.714905
0.7149
0.714894
0.714887
0.71488
0.714873
0.714865
0.714857
0.714848
0.714839
0.71483
0.714821
0.714812
0.714803
0.714793
0.714784
0.714774
0.714764
0.714755
0.714745
0.714735
0.714725
0.714716
0.714706
0.714696
0.714686
0.714676
0.714666
0.714657
0.714647
0.714637
0.714627
0.714617
0.714607
0.714597
0.714587
0.714577
0.714567
0.714558
0.714548
0.714538
0.714528
0.714518
0.714508
0.714498
0.714488
0.714479
0.714469
0.714459
0.714449
0.714439
0.714429
0.714419
0.714409
0.7144
0.71439
0.71438
0.71437
0.71436
0.71435
0.71434
0.71433
0.714321
0.714311
0.714301
0.714291
0.713066
0.71301
0.712947
0.71288
0.712807
0.712729
0.712641
0.712522
0.713072
0.713026
0.712963
0.712894
0.71282
0.712742
0.712651
0.712554
0.713077
0.713037
0.71298
0.712914
0.712845
0.712773
0.712702
0.712632
0.713087
0.713053
0.713
0.712939
0.712875
0.71281
0.712747
0.712689
0.7131
0.713068
0.713019
0.712962
0.712903
0.712846
0.712792
0.712744
0.713114
0.713081
0.713033
0.71298
0.712926
0.712874
0.712826
0.712784
0.71313
0.713093
0.713043
0.71299
0.712939
0.712892
0.712848
0.712809
0.713138
0.713091
0.713041
0.712991
0.712943
0.712897
0.712855
0.712816
0.712459
0.712479
0.7125
0.712511
0.712517
0.712521
0.712523
0.712526
0.71253
0.712534
0.712539
0.712544
0.712551
0.712558
0.712567
0.712576
0.712587
0.712598
0.712611
0.712626
0.712642
0.712661
0.712682
0.712706
0.712733
0.712763
0.712797
0.712834
0.712876
0.712922
0.712972
0.713026
0.713084
0.713145
0.713208
0.713275
0.713343
0.713412
0.713482
0.713551
0.713618
0.713683
0.713746
0.713805
0.713859
0.713909
0.713953
0.713992
0.714026
0.714055
0.714078
0.714098
0.714113
0.714125
0.714135
0.714143
0.714149
0.714155
0.71416
0.714166
0.714171
0.714178
0.714185
0.714193
0.714203
0.714213
0.714225
0.714238
0.714253
0.714269
0.714288
0.714307
0.714329
0.714352
0.714376
0.714402
0.714429
0.714457
0.714486
0.714515
0.714544
0.714572
0.7146
0.714627
0.714653
0.714677
0.7147
0.71472
0.714738
0.714754
0.714767
0.714778
0.714787
0.714794
0.714799
0.714803
0.714806
0.714808
0.714809
0.71481
0.714811
0.714813
0.714815
0.714817
0.714821
0.714824
0.714829
0.714834
0.714839
0.714845
0.714851
0.714857
0.714863
0.714868
0.714874
0.714879
0.714883
0.714888
0.714891
0.714895
0.714898
0.7149
0.714902
0.714904
0.714906
0.714907
0.714909
0.714909
0.71491
0.71491
0.714909
0.714908
0.714906
0.714903
0.7149
0.714896
0.714892
0.714886
0.71488
0.714874
0.714867
0.714859
0.714851
0.714842
0.714833
0.714824
0.714815
0.714805
0.714795
0.714786
0.714776
0.714766
0.714756
0.714746
0.714736
0.714726
0.714716
0.714706
0.714696
0.714686
0.714676
0.714666
0.714656
0.714646
0.714636
0.714627
0.714617
0.714607
0.714597
0.714587
0.714577
0.714567
0.714558
0.714548
0.714538
0.714528
0.714518
0.714508
0.714498
0.714488
0.714479
0.714469
0.714459
0.714449
0.714439
0.714429
0.714419
0.714409
0.7144
0.71439
0.71438
0.71437
0.71436
0.71435
0.71434
0.71433
0.714321
0.714311
0.714301
0.714291
0.712481
0.712491
0.712504
0.712517
0.712525
0.71253
0.712534
0.712538
0.712542
0.712546
0.712552
0.712558
0.712566
0.712575
0.712585
0.712596
0.712608
0.712623
0.712638
0.712656
0.712676
0.712698
0.712723
0.712751
0.712782
0.712817
0.712855
0.712896
0.712942
0.712991
0.713043
0.713099
0.713157
0.713218
0.713281
0.713345
0.71341
0.713475
0.713539
0.713601
0.71366
0.713716
0.713768
0.713816
0.71386
0.713898
0.713931
0.71396
0.713984
0.714003
0.71402
0.714033
0.714044
0.714054
0.714063
0.714071
0.714079
0.714087
0.714095
0.714104
0.714113
0.714122
0.714133
0.714144
0.714156
0.714169
0.714183
0.714198
0.714214
0.714233
0.714252
0.714274
0.714297
0.714321
0.714348
0.714376
0.714405
0.714435
0.714467
0.714499
0.714531
0.714563
0.714595
0.714626
0.714656
0.714685
0.714711
0.714736
0.714759
0.714779
0.714797
0.714812
0.714825
0.714836
0.714844
0.71485
0.714855
0.714858
0.71486
0.714862
0.714862
0.714863
0.714863
0.714863
0.714864
0.714865
0.714866
0.714867
0.714868
0.71487
0.714871
0.714873
0.714874
0.714876
0.714877
0.714878
0.714879
0.71488
0.714881
0.714883
0.714884
0.714885
0.714887
0.714888
0.71489
0.714892
0.714894
0.714895
0.714897
0.714898
0.714899
0.714899
0.714899
0.714898
0.714896
0.714894
0.71489
0.714886
0.714881
0.714875
0.714869
0.714861
0.714853
0.714845
0.714836
0.714827
0.714817
0.714808
0.714798
0.714787
0.714777
0.714767
0.714757
0.714746
0.714736
0.714726
0.714716
0.714706
0.714696
0.714686
0.714676
0.714666
0.714656
0.714646
0.714636
0.714626
0.714616
0.714607
0.714597
0.714587
0.714577
0.714567
0.714557
0.714548
0.714538
0.714528
0.714518
0.714508
0.714498
0.714488
0.714479
0.714469
0.714459
0.714449
0.714439
0.714429
0.714419
0.714409
0.7144
0.71439
0.71438
0.71437
0.71436
0.71435
0.71434
0.71433
0.714321
0.714311
0.714301
0.714291
0.712579
0.712555
0.712549
0.712549
0.712551
0.712553
0.712555
0.712558
0.712561
0.712566
0.712572
0.71258
0.712589
0.712599
0.712611
0.712625
0.712641
0.712658
0.712678
0.7127
0.712724
0.712751
0.712781
0.712814
0.71285
0.712889
0.712932
0.712978
0.713027
0.713079
0.713134
0.713191
0.713249
0.713309
0.71337
0.71343
0.71349
0.713548
0.713604
0.713657
0.713706
0.713752
0.713792
0.713828
0.71386
0.713887
0.713911
0.713931
0.713948
0.713962
0.713976
0.713988
0.713999
0.714009
0.71402
0.71403
0.714041
0.714051
0.714062
0.714074
0.714085
0.714097
0.714109
0.714121
0.714134
0.714148
0.714163
0.714179
0.714196
0.714215
0.714235
0.714258
0.714281
0.714307
0.714334
0.714363
0.714394
0.714425
0.714458
0.714492
0.714527
0.714561
0.714596
0.71463
0.714663
0.714694
0.714725
0.714753
0.714779
0.714803
0.714824
0.714843
0.714859
0.714872
0.714883
0.714892
0.714898
0.714903
0.714906
0.714907
0.714908
0.714907
0.714906
0.714904
0.714903
0.7149
0.714898
0.714896
0.714893
0.714891
0.714888
0.714886
0.714883
0.714881
0.714879
0.714877
0.714875
0.714874
0.714872
0.714872
0.714872
0.714872
0.714873
0.714875
0.714877
0.714879
0.714882
0.714884
0.714887
0.71489
0.714892
0.714893
0.714894
0.714894
0.714894
0.714892
0.71489
0.714886
0.714882
0.714877
0.714871
0.714864
0.714856
0.714848
0.714839
0.714829
0.71482
0.71481
0.7148
0.714789
0.714779
0.714768
0.714758
0.714747
0.714737
0.714726
0.714716
0.714706
0.714695
0.714685
0.714675
0.714665
0.714655
0.714646
0.714636
0.714626
0.714616
0.714606
0.714597
0.714587
0.714577
0.714567
0.714557
0.714548
0.714538
0.714528
0.714518
0.714508
0.714498
0.714489
0.714479
0.714469
0.714459
0.714449
0.714439
0.714429
0.714419
0.714409
0.7144
0.71439
0.71438
0.71437
0.71436
0.71435
0.71434
0.71433
0.714321
0.714311
0.714301
0.714291
0.712643
0.712615
0.7126
0.712593
0.712589
0.712588
0.712587
0.712588
0.712591
0.712595
0.712601
0.712608
0.712618
0.71263
0.712644
0.71266
0.712679
0.7127
0.712723
0.712749
0.712778
0.71281
0.712844
0.712882
0.712923
0.712967
0.713014
0.713064
0.713117
0.713171
0.713227
0.713284
0.713341
0.713398
0.713455
0.713509
0.713562
0.713612
0.713658
0.713701
0.713739
0.713773
0.713804
0.713831
0.713854
0.713876
0.713894
0.71391
0.713925
0.713938
0.713951
0.713963
0.713976
0.713989
0.714001
0.714014
0.714027
0.71404
0.714052
0.714064
0.714076
0.714089
0.714101
0.714114
0.714128
0.714142
0.714157
0.714173
0.71419
0.714209
0.71423
0.714252
0.714277
0.714303
0.71433
0.71436
0.714391
0.714424
0.714458
0.714493
0.714529
0.714565
0.714601
0.714637
0.714672
0.714705
0.714738
0.714768
0.714797
0.714823
0.714846
0.714867
0.714885
0.714901
0.714914
0.714924
0.714931
0.714937
0.71494
0.714942
0.714942
0.714941
0.714938
0.714935
0.714931
0.714927
0.714922
0.714916
0.714911
0.714905
0.7149
0.714894
0.714889
0.714884
0.714879
0.714875
0.714871
0.714868
0.714866
0.714864
0.714863
0.714863
0.714864
0.714866
0.714868
0.714871
0.714874
0.714877
0.714881
0.714884
0.714887
0.714889
0.714891
0.714892
0.714892
0.714892
0.71489
0.714887
0.714883
0.714878
0.714872
0.714865
0.714858
0.71485
0.714841
0.714831
0.714822
0.714811
0.714801
0.71479
0.71478
0.714769
0.714758
0.714748
0.714737
0.714726
0.714716
0.714706
0.714695
0.714685
0.714675
0.714665
0.714655
0.714645
0.714636
0.714626
0.714616
0.714606
0.714596
0.714587
0.714577
0.714567
0.714557
0.714548
0.714538
0.714528
0.714518
0.714508
0.714498
0.714489
0.714479
0.714469
0.714459
0.714449
0.714439
0.714429
0.714419
0.714409
0.7144
0.71439
0.71438
0.71437
0.71436
0.71435
0.71434
0.71433
0.714321
0.714311
0.714301
0.714291
0.712705
0.712677
0.712657
0.712644
0.712635
0.712628
0.712624
0.712622
0.712622
0.712624
0.712629
0.712637
0.712647
0.71266
0.712676
0.712694
0.712715
0.712739
0.712766
0.712795
0.712828
0.712864
0.712903
0.712945
0.71299
0.713037
0.713087
0.71314
0.713193
0.713248
0.713303
0.713358
0.713411
0.713463
0.713513
0.713561
0.713606
0.713649
0.713688
0.713723
0.713754
0.713781
0.713805
0.713825
0.713844
0.713861
0.713877
0.713894
0.71391
0.713926
0.713942
0.713957
0.713971
0.713985
0.713999
0.714012
0.714025
0.714037
0.714049
0.714062
0.714074
0.714087
0.714099
0.714112
0.714126
0.714141
0.714156
0.714172
0.71419
0.714209
0.71423
0.714253
0.714277
0.714304
0.714332
0.714362
0.714394
0.714427
0.714462
0.714497
0.714534
0.714571
0.714608
0.714644
0.71468
0.714715
0.714749
0.71478
0.71481
0.714837
0.714862
0.714884
0.714903
0.71492
0.714934
0.714944
0.714953
0.714959
0.714962
0.714964
0.714963
0.714961
0.714958
0.714954
0.714948
0.714942
0.714935
0.714928
0.714921
0.714913
0.714906
0.714898
0.714891
0.714885
0.714878
0.714873
0.714868
0.714864
0.714861
0.714859
0.714858
0.714858
0.714859
0.714861
0.714864
0.714867
0.71487
0.714874
0.714878
0.714881
0.714885
0.714888
0.71489
0.714891
0.714892
0.714891
0.71489
0.714887
0.714884
0.714879
0.714873
0.714867
0.714859
0.714851
0.714842
0.714832
0.714823
0.714812
0.714802
0.714791
0.71478
0.714769
0.714759
0.714748
0.714737
0.714726
0.714716
0.714706
0.714695
0.714685
0.714675
0.714665
0.714655
0.714645
0.714635
0.714626
0.714616
0.714606
0.714596
0.714587
0.714577
0.714567
0.714557
0.714548
0.714538
0.714528
0.714518
0.714508
0.714498
0.714489
0.714479
0.714469
0.714459
0.714449
0.714439
0.714429
0.714419
0.714409
0.7144
0.71439
0.71438
0.71437
0.71436
0.71435
0.71434
0.71433
0.714321
0.714311
0.714301
0.714291
0.712749
0.71272
0.712698
0.712681
0.712667
0.712656
0.712649
0.712644
0.712643
0.712644
0.712649
0.712656
0.712667
0.712681
0.712698
0.712717
0.71274
0.712766
0.712795
0.712827
0.712863
0.712901
0.712942
0.712986
0.713032
0.713081
0.713132
0.713185
0.713238
0.713291
0.713344
0.713396
0.713446
0.713494
0.713539
0.713581
0.71362
0.713655
0.713687
0.713715
0.713741
0.713765
0.713788
0.713811
0.713834
0.713855
0.713875
0.713893
0.71391
0.713926
0.713941
0.713955
0.713969
0.713983
0.713997
0.71401
0.714023
0.714036
0.714048
0.714061
0.714074
0.714087
0.7141
0.714113
0.714127
0.714142
0.714157
0.714174
0.714192
0.714212
0.714233
0.714256
0.714281
0.714308
0.714336
0.714367
0.714399
0.714432
0.714467
0.714503
0.71454
0.714577
0.714615
0.714652
0.714688
0.714723
0.714757
0.714789
0.714819
0.714847
0.714872
0.714895
0.714914
0.714931
0.714945
0.714956
0.714964
0.71497
0.714973
0.714974
0.714973
0.714971
0.714967
0.714962
0.714955
0.714948
0.714941
0.714933
0.714924
0.714916
0.714907
0.714899
0.714892
0.714884
0.714878
0.714872
0.714867
0.714863
0.71486
0.714858
0.714857
0.714857
0.714858
0.71486
0.714862
0.714865
0.714869
0.714873
0.714877
0.714881
0.714884
0.714887
0.714889
0.714891
0.714892
0.714891
0.71489
0.714887
0.714884
0.714879
0.714873
0.714867
0.714859
0.714851
0.714842
0.714833
0.714823
0.714813
0.714802
0.714791
0.714781
0.71477
0.714759
0.714748
0.714737
0.714727
0.714716
0.714706
0.714695
0.714685
0.714675
0.714665
0.714655
0.714645
0.714635
0.714626
0.714616
0.714606
0.714596
0.714587
0.714577
0.714567
0.714557
0.714548
0.714538
0.714528
0.714518
0.714508
0.714498
0.714489
0.714479
0.714469
0.714459
0.714449
0.714439
0.714429
0.714419
0.714409
0.7144
0.71439
0.71438
0.71437
0.71436
0.71435
0.71434
0.71433
0.714321
0.714311
0.714301
0.714291
0.712775
0.712746
0.712721
0.712701
0.712684
0.712671
0.712662
0.712655
0.712653
0.712654
0.712658
0.712666
0.712677
0.712692
0.712709
0.71273
0.712754
0.712781
0.712811
0.712844
0.71288
0.712919
0.712961
0.713005
0.713052
0.713101
0.713151
0.713202
0.713253
0.713303
0.713352
0.713399
0.713444
0.713487
0.713528
0.713568
0.713606
0.713643
0.713678
0.71371
0.71374
0.713767
0.713791
0.713814
0.713834
0.713854
0.713872
0.71389
0.713907
0.713923
0.713939
0.713954
0.713968
0.713983
0.713996
0.71401
0.714023
0.714035
0.714048
0.714061
0.714074
0.714086
0.7141
0.714113
0.714128
0.714143
0.714159
0.714176
0.714194
0.714214
0.714236
0.714259
0.714284
0.714311
0.71434
0.714371
0.714403
0.714437
0.714472
0.714508
0.714545
0.714582
0.714619
0.714656
0.714693
0.714728
0.714762
0.714794
0.714824
0.714852
0.714877
0.714899
0.714919
0.714935
0.714949
0.71496
0.714968
0.714973
0.714976
0.714977
0.714976
0.714973
0.714969
0.714964
0.714957
0.71495
0.714942
0.714933
0.714925
0.714916
0.714908
0.714899
0.714891
0.714884
0.714878
0.714872
0.714867
0.714863
0.71486
0.714858
0.714857
0.714857
0.714858
0.71486
0.714862
0.714866
0.714869
0.714873
0.714877
0.714881
0.714884
0.714887
0.714889
0.714891
0.714891
0.714891
0.71489
0.714887
0.714883
0.714879
0.714873
0.714867
0.714859
0.714851
0.714842
0.714833
0.714823
0.714813
0.714802
0.714791
0.714781
0.71477
0.714759
0.714748
0.714737
0.714727
0.714716
0.714706
0.714695
0.714685
0.714675
0.714665
0.714655
0.714645
0.714635
0.714626
0.714616
0.714606
0.714596
0.714587
0.714577
0.714567
0.714557
0.714548
0.714538
0.714528
0.714518
0.714508
0.714498
0.714489
0.714479
0.714469
0.714459
0.714449
0.714439
0.714429
0.714419
0.714409
0.7144
0.71439
0.71438
0.71437
0.71436
0.71435
0.71434
0.71433
0.714321
0.714311
0.714301
0.714291
0.712781
0.712751
0.712724
0.712701
0.712683
0.712668
0.712658
0.712652
0.712649
0.71265
0.712654
0.712662
0.712673
0.712688
0.712705
0.712726
0.71275
0.712777
0.712806
0.712839
0.712874
0.712912
0.712953
0.712996
0.713042
0.713089
0.713138
0.713188
0.713238
0.713289
0.713339
0.713387
0.713434
0.71348
0.713523
0.713565
0.713604
0.71364
0.713674
0.713705
0.713734
0.71376
0.713785
0.713808
0.71383
0.713851
0.713871
0.713889
0.713906
0.713922
0.713938
0.713953
0.713968
0.713982
0.713995
0.714009
0.714022
0.714035
0.714047
0.71406
0.714073
0.714086
0.714099
0.714113
0.714128
0.714143
0.714159
0.714177
0.714195
0.714216
0.714238
0.714262
0.714287
0.714314
0.714344
0.714375
0.714407
0.714441
0.714477
0.714513
0.71455
0.714588
0.714625
0.714662
0.714699
0.714734
0.714767
0.714799
0.714829
0.714857
0.714881
0.714903
0.714923
0.714939
0.714952
0.714962
0.71497
0.714975
0.714978
0.714978
0.714977
0.714974
0.714969
0.714963
0.714956
0.714949
0.71494
0.714932
0.714923
0.714915
0.714906
0.714898
0.714891
0.714884
0.714877
0.714872
0.714867
0.714863
0.71486
0.714858
0.714858
0.714858
0.714859
0.714861
0.714864
0.714867
0.71487
0.714874
0.714878
0.714882
0.714885
0.714888
0.71489
0.714891
0.714892
0.714891
0.71489
0.714887
0.714883
0.714879
0.714873
0.714866
0.714859
0.714851
0.714842
0.714832
0.714823
0.714812
0.714802
0.714791
0.71478
0.71477
0.714759
0.714748
0.714737
0.714727
0.714716
0.714706
0.714695
0.714685
0.714675
0.714665
0.714655
0.714645
0.714635
0.714626
0.714616
0.714606
0.714596
0.714587
0.714577
0.714567
0.714557
0.714548
0.714538
0.714528
0.714518
0.714508
0.714498
0.714489
0.714479
0.714469
0.714459
0.714449
0.714439
0.714429
0.714419
0.714409
0.7144
0.71439
0.71438
0.71437
0.71436
0.71435
0.71434
0.71433
0.714321
0.714311
0.714301
0.714291
)
;

boundaryField
{
    inlet
    {
        type            zeroGradient;
    }
    outlet
    {
        type            fixedValue;
        value           uniform 0.714286;
    }
    walls
    {