/*--------------------------------*- C++ -*----------------------------------*\
| =========                 |                                                 |
| \\      /  F ield         | OpenFOAM: The Open Source CFD Toolbox           |
|  \\    /   O peration     | Version:  4.1                                   |
|   \\  /    A nd           | Web:      www.OpenFOAM.org                      |
|    \\/     M anipulation  |                                                 |
\*---------------------------------------------------------------------------*/
FoamFile
{
    version     2.0;
    format      ascii;
    class       volVectorField;
    location    "0.0315";
    object      U;
}
// * * * * * * * * * * * * * * * * * * * * * * * * * * * * * * * * * * * * * //

dimensions      [0 1 -1 0 0 0 0];

internalField   nonuniform List<vector> 
441
(
(-9.83801e-05 7.882e-05 0)
(-0.000491365 0.000283859 0)
(-0.00109625 0.000493189 0)
(-0.00186401 0.000640852 0)
(-0.00272096 0.000712132 0)
(-0.00358939 0.000710156 0)
(-0.00439878 0.00064508 0)
(-0.00509063 0.00052952 0)
(-0.00561979 0.000376413 0)
(-0.00595422 0.000198182 0)
(-0.00607428 6.68014e-06 0)
(-0.00597217 -0.000186416 0)
(-0.00565209 -0.000369051 0)
(-0.005131 -0.000528308 0)
(-0.0044397 -0.000650247 0)
(-0.00362401 -0.000720319 0)
(-0.00274483 -0.000724628 0)
(-0.00187613 -0.000652502 0)
(-0.00109914 -0.000501335 0)
(-0.000489821 -0.000287415 0)
(-9.72801e-05 -7.88156e-05 0)
(-0.000349247 0.000445965 0)
(-0.00154981 0.00136525 0)
(-0.00323614 0.00218213 0)
(-0.00528026 0.00273922 0)
(-0.00750753 0.0029934 0)
(-0.00973497 0.00295797 0)
(-0.0117952 0.00267248 0)
(-0.0135482 0.00218649 0)
(-0.0148849 0.00155119 0)
(-0.015728 0.000815927 0)
(-0.0160297 2.78373e-05 0)
(-0.0157715 -0.00076663 0)
(-0.0149637 -0.00151952 0)
(-0.0136477 -0.00217946 0)
(-0.011898 -0.00269109 0)
(-0.00982476 -0.00299681 0)
(-0.00757309 -0.00304194 0)
(-0.00531806 -0.00278481 0)
(-0.00325069 -0.00221414 0)
(-0.00155114 -0.00137924 0)
(-0.000348217 -0.00044644 0)
(-0.000626152 0.00106264 0)
(-0.00262195 0.00301287 0)
(-0.0052879 0.00461486 0)
(-0.00842411 0.00566657 0)
(-0.0117808 0.00611674 0)
(-0.0151011 0.00600046 0)
(-0.0181512 0.00539692 0)
(-0.0207351 0.00440293 0)
(-0.0227004 0.00311814 0)
(-0.0239385 0.00163858 0)
(-0.0243825 5.60274e-05 0)
(-0.0240063 -0.00153911 0)
(-0.0228241 -0.00305353 0)
(-0.0208932 -0.00438727 0)
(-0.0183175 -0.00543257 0)
(-0.0152506 -0.00607719 0)
(-0.0118951 -0.00621408 0)
(-0.00849597 -0.0057595 0)
(-0.00532181 -0.00468173 0)
(-0.0026313 -0.00304377 0)
(-0.000626706 -0.00106521 0)
(-0.000891985 0.00192671 0)
(-0.00364607 0.00522186 0)
(-0.00722435 0.00778044 0)
(-0.0113516 0.00939852 0)
(-0.0157075 0.0100431 0)
(-0.0199735 0.00978851 0)
(-0.023865 0.00876665 0)
(-0.0271459 0.00713243 0)
(-0.0296346 0.0050431 0)
(-0.0312019 0.00264919 0)
(-0.0317686 9.39186e-05 0)
(-0.0313026 -0.00248193 0)
(-0.0298193 -0.00493297 0)
(-0.0273849 -0.00710301 0)
(-0.0241211 -0.00882279 0)
(-0.0202101 -0.00991459 0)
(-0.0158962 -0.0102064 0)
(-0.0114784 -0.00955789 0)
(-0.007292 -0.00789878 0)
(-0.00367105 -0.00528004 0)
(-0.000895998 -0.00193424 0)
(-0.00114857 0.00303307 0)
(-0.00464072 0.0079882 0)
(-0.00910372 0.0116784 0)
(-0.0141815 0.0139307 0)
(-0.0194801 0.0147591 0)
(-0.0246224 0.0142998 0)
(-0.0292804 0.0127545 0)
(-0.0331882 0.010349 0)
(-0.0361444 0.00730717 0)
(-0.0380076 0.00384041 0)
(-0.0386908 0.000147794 0)
(-0.0381575 -0.00357595 0)
(-0.0364215 -0.00712945 0)
(-0.033551 -0.0102948 0)
(-0.0296761 -0.0128333 0)
(-0.0249973 -0.0144901 0)
(-0.0197899 -0.0150132 0)
(-0.014401 -0.0141856 0)
(-0.00923096 -0.0118748 0)
(-0.0046949 -0.00809137 0)
(-0.00115936 -0.00305114 0)
(-0.00140777 0.004385 0)
(-0.00565154 0.0113243 0)
(-0.0110133 0.0163271 0)
(-0.0170479 0.0192796 0)
(-0.0232819 0.0202731 0)
(-0.029279 0.0195328 0)
(-0.0346722 0.0173518 0)
(-0.039173 0.0140418 0)
(-0.0425689 0.0099029 0)
(-0.0447131 0.00521239 0)
(-0.0455155 0.000227235 0)
(-0.0449357 -0.00480325 0)
(-0.0429829 -0.00962064 0)
(-0.0397209 -0.0139421 0)
(-0.0352794 -0.0174519 0)
(-0.029867 -0.0198059 0)
(-0.0237825 -0.0206524 0)
(-0.0174173 -0.0196731 0)
(-0.0112401 -0.016643 0)
(-0.00575638 -0.0115019 0)
(-0.00143067 -0.00442403 0)
(-0.0016824 0.00599862 0)
(-0.00672636 0.0152659 0)
(-0.0130368 0.0217688 0)
(-0.0200669 0.0254817 0)
(-0.0272561 0.0266092 0)
(-0.0341081 0.025498 0)
(-0.0402213 0.0225585 0)
(-0.0452933 0.018206 0)
(-0.0491092 0.0128272 0)
(-0.051525 0.00676867 0)
(-0.0524524 0.000344612 0)
(-0.0518485 -0.00614381 0)
(-0.0497143 -0.0123835 0)
(-0.046102 -0.0180258 0)
(-0.0411305 -0.0226722 0)
(-0.0350054 -0.0258748 0)
(-0.0280394 -0.0271594 0)
(-0.0206638 -0.0260747 0)
(-0.0134188 -0.0222657 0)
(-0.0069124 -0.015564 0)
(-0.00172508 -0.00607641 0)
(-0.00198246 0.00790231 0)
(-0.00790191 0.0198693 0)
(-0.0152332 0.0280625 0)
(-0.02331 0.032583 0)
(-0.031476 0.0337926 0)
(-0.0391759 0.0322004 0)
(-0.045982 0.0283655 0)
(-0.0515892 0.0228277 0)
(-0.0557931 0.0160698 0)
(-0.0584628 0.00850956 0)
(-0.0595186 0.000514105 0)
(-0.0589168 -0.0075706 0)
(-0.0566472 -0.0153835 0)
(-0.0527415 -0.0225134 0)
(-0.0472947 -0.0284747 0)
(-0.0404942 -0.0327014 0)
(-0.0326522 -0.03457 0)
(-0.0242305 -0.0334561 0)
(-0.0158416 -0.0288267 0)
(-0.00820929 -0.0203561 0)
(-0.00205513 -0.00804689 0)
(-0.00231265 0.0101336 0)
(-0.00919432 0.0252023 0)
(-0.0176188 0.0352698 0)
(-0.0267777 0.0406183 0)
(-0.0359114 0.0418255 0)
(-0.0444113 0.0396146 0)
(-0.051838 0.0347316 0)
(-0.0579021 0.0278634 0)
(-0.0624267 0.0195982 0)
(-0.0653088 0.0104233 0)
(-0.0664864 0.000749874 0)
(-0.0659188 -0.00904404 0)
(-0.0635809 -0.018562 0)
(-0.0594741 -0.0273389 0)
(-0.0536528 -0.0348022 0)
(-0.0462649 -0.0402546 0)
(-0.0375996 -0.042893 0)
(-0.0281311 -0.0418715 0)
(-0.0185381 -0.0364149 0)
(-0.00967233 -0.0259724 0)
(-0.00242811 -0.0103861 0)
(-0.00266984 0.012734 0)
(-0.0105893 0.0313295 0)
(-0.0201484 0.0434317 0)
(-0.0303706 0.0495821 0)
(-0.0403895 0.0506546 0)
(-0.0495581 0.0476523 0)
(-0.0574495 0.0415531 0)
(-0.0638163 0.0332153 0)
(-0.0685338 0.0233393 0)
(-0.0715454 0.0124751 0)
(-0.0728196 0.00106298 0)
(-0.0723238 -0.0105064 0)
(-0.0700159 -0.0218215 0)
(-0.0658558 -0.0323797 0)
(-0.0598376 -0.0415284 0)
(-0.0520412 -0.0484306 0)
(-0.0426991 -0.0520722 0)
(-0.0322669 -0.0513278 0)
(-0.0214698 -0.0450969 0)
(-0.0112942 -0.0325067 0)
(-0.00284312 -0.0131516 0)
(-0.00303975 0.0157422 0)
(-0.0120295 0.0382919 0)
(-0.0226902 0.052535 0)
(-0.0338509 0.0593873 0)
(-0.0445451 0.0601271 0)
(-0.0541163 0.0561201 0)
(-0.0621881 0.0486275 0)
(-0.0685923 0.0387021 0)
(-0.0732871 0.0271576 0)
(-0.0762856 0.0145937 0)
(-0.0776021 0.00145681 0)
(-0.0772197 -0.0118773 0)
(-0.0750788 -0.0250111 0)
(-0.0710877 -0.0374307 0)
(-0.0651582 -0.0484214 0)
(-0.0572675 -0.0570069 0)
(-0.0475457 -0.0619349 0)
(-0.0363789 -0.0617353 0)
(-0.0244996 -0.0548764 0)
(-0.0130195 -0.0400271 0)
(-0.0032872 -0.0163995 0)
(-0.00339191 0.0191848 0)
(-0.0133964 0.0460788 0)
(-0.0249913 0.0624691 0)
(-0.0367916 0.0698124 0)
(-0.0477565 0.0699368 0)
(-0.057271 0.0646709 0)
(-0.0650642 0.0556135 0)
(-0.0710948 0.0440283 0)
(-0.0754401 0.0308343 0)
(-0.0782075 0.0166579 0)
(-0.0794733 0.00192095 0)
(-0.0792457 -0.0130516 0)
(-0.0774499 -0.0279143 0)
(-0.0739365 -0.0421802 0)
(-0.0685157 -0.0551046 0)
(-0.0610247 -0.0655888 0)
(-0.051433 -0.0721276 0)
(-0.0399845 -0.0728414 0)
(-0.0273475 -0.065638 0)
(-0.014722 -0.0485409 0)
(-0.00372929 -0.0201738 0)
(-0.00367123 0.0230639 0)
(-0.0144802 0.0545901 0)
(-0.0266243 0.0729671 0)
(-0.0385032 0.080434 0)
(-0.0490612 0.0795602 0)
(-0.0578063 0.072752 0)
(-0.0646474 0.0619924 0)
(-0.069725 0.048758 0)
(-0.0732702 0.0340497 0)
(-0.0755059 0.0184857 0)
(-0.0765832 0.00242429 0)
(-0.0765444 -0.0139022 0)
(-0.0753068 -0.0302454 0)
(-0.0726651 -0.0461942 0)
(-0.0683184 -0.0610248 0)
(-0.0619324 -0.0735567 0)
(-0.0532539 -0.0820438 0)
(-0.042288 -0.0841473 0)
(-0.0295258 -0.0770713 0)
(-0.0161688 -0.0579441 0)
(-0.00411056 -0.0244901 0)
(-0.00378268 0.0273399 0)
(-0.014927 0.0635844 0)
(-0.0268973 0.0835279 0)
(-0.0379194 0.0905453 0)
(-0.0470368 0.0881891 0)
(-0.0539998 0.0795584 0)
(-0.058985 0.0670432 0)
(-0.0623656 0.052305 0)
(-0.0645496 0.0363803 0)
(-0.0658819 0.0198316 0)
(-0.0665909 0.00290905 0)
(-0.0667589 -0.0142896 0)
(-0.0663073 -0.0316595 0)
(-0.0649908 -0.0489213 0)
(-0.062408 -0.0654396 0)
(-0.0580439 -0.0800268 0)
(-0.0513723 -0.0907517 0)
(-0.042052 -0.0948109 0)
(-0.0302346 -0.0885711 0)
(-0.0169586 -0.0679516 0)
(-0.00432723 -0.0293127 0)
(-0.00356021 0.0319043 0)
(-0.0141331 0.0726017 0)
(-0.02469 0.0933115 0)
(-0.0334094 0.0990607 0)
(-0.0396277 0.0946693 0)
(-0.0434894 0.084011 0)
(-0.0455216 0.0698486 0)
(-0.0463541 0.053953 0)
(-0.0465618 0.0373209 0)
(-0.0465905 0.0203997 0)
(-0.0467289 0.00328904 0)
(-0.0470967 -0.0140816 0)
(-0.0476354 -0.0317871 0)
(-0.0480938 -0.0497321 0)
(-0.0480144 -0.0674487 0)
(-0.0467368 -0.0838511 0)
(-0.0434568 -0.096946 0)
(-0.0374001 -0.103545 0)
(-0.0281823 -0.0991092 0)
(-0.0164064 -0.0779954 0)
(-0.00419774 -0.0345186 0)
(-0.00269848 0.0365303 0)
(-0.0110209 0.0808395 0)
(-0.0181344 0.100995 0)
(-0.0224506 0.104418 0)
(-0.0238792 0.0974739 0)
(-0.0231049 0.0847892 0)
(-0.0210309 0.0693628 0)
(-0.0185005 0.0529324 0)
(-0.0161865 0.0363496 0)
(-0.0145708 0.0198845 0)
(-0.0139574 0.00345728 0)
(-0.0144869 -0.0131821 0)
(-0.016138 -0.030299 0)
(-0.0187067 -0.0480127 0)
(-0.0217653 -0.0660956 0)
(-0.0246145 -0.0836975 0)
(-0.0262616 -0.098963 0)
(-0.0255056 -0.108539 0)
(-0.0212597 -0.107076 0)
(-0.0133101 -0.0870701 0)
(-0.00339303 -0.0398361 0)
(-0.000581993 0.0407587 0)
(-0.00352939 0.0869223 0)
(-0.00397665 0.104567 0)
(-0.00105962 0.104504 0)
(0.00445491 0.0947634 0)
(0.0113305 0.0804742 0)
(0.018415 0.0645815 0)
(0.0248186 0.0485779 0)
(0.0299215 0.0330508 0)
(0.0333215 0.0180471 0)
(0.034774 0.00330941 0)
(0.0341497 -0.0115654 0)
(0.0314212 -0.0270024 0)
(0.0266829 -0.0433225 0)
(0.0202091 -0.0605731 0)
(0.0125489 -0.0782636 0)
(0.0046438 -0.0949329 0)
(-0.00209695 -0.107462 0)
(-0.00592292 -0.110103 0)
(-0.00543816 -0.0934761 0)
(-0.00126602 -0.044716 0)
(0.0042064 0.0436608 0)
(0.0126115 0.0885146 0)
(0.0237138 0.101121 0)
(0.0371581 0.0967356 0)
(0.0514359 0.0846597 0)
(0.065167 0.0698904 0)
(0.0773688 0.0548641 0)
(0.0874334 0.040589 0)
(0.095023 0.027302 0)
(0.0999615 0.0148298 0)
(0.10215 0.00278736 0)
(0.101514 -0.00930782 0)
(0.0979778 -0.0219585 0)
(0.0914783 -0.0356121 0)
(0.0820126 -0.0505506 0)
(0.0697398 -0.0666909 0)
(0.0551489 -0.0831965 0)
(0.0392899 -0.0977163 0)
(0.0239897 -0.104972 0)
(0.0116662 -0.0944401 0)
(0.00364131 -0.0480702 0)
(0.0157985 0.0429863 0)
(0.0469798 0.0812854 0)
(0.076024 0.0866243 0)
(0.102369 0.078473 0)
(0.125409 0.0659044 0)
(0.144855 0.0527328 0)
(0.160661 0.040424 0)
(0.172925 0.029375 0)
(0.18181 0.0194989 0)
(0.187472 0.0104887 0)
(0.190013 0.00193871 0)
(0.189442 -0.00659851 0)
(0.185658 -0.0155806 0)
(0.178443 -0.025448 0)
(0.167471 -0.0365792 0)
(0.152344 -0.0491906 0)
(0.13267 -0.0631005 0)
(0.108241 -0.0771419 0)
(0.0794149 -0.0877213 0)
(0.0476457 -0.0852441 0)
(0.015512 -0.0474286 0)
(0.0495548 0.0348347 0)
(0.122684 0.0593961 0)
(0.173739 0.0576026 0)
(0.209935 0.048968 0)
(0.236839 0.039423 0)
(0.257176 0.0306188 0)
(0.27251 0.0229631 0)
(0.283805 0.0164074 0)
(0.291703 0.0107391 0)
(0.296628 0.00568738 0)
(0.298829 0.000963143 0)
(0.298385 -0.00372637 0)
(0.295206 -0.00867325 0)
(0.289014 -0.0141662 0)
(0.279301 -0.0204833 0)
(0.265248 -0.0278716 0)
(0.245568 -0.0364876 0)
(0.21819 -0.0461987 0)
(0.17984 -0.0558974 0)
(0.12504 -0.0602346 0)
(0.0496682 -0.0384789 0)
(0.182882 0.00468132 0)
(0.29685 0.008351 0)
(0.350913 0.0119219 0)
(0.378445 0.0116948 0)
(0.395365 0.00988806 0)
(0.406696 0.00780349 0)
(0.414623 0.00586806 0)
(0.420177 0.00417795 0)
(0.423927 0.00271054 0)
(0.426203 0.00140432 0)
(0.427188 0.000186364 0)
(0.426953 -0.00101777 0)
(0.42546 -0.00227934 0)
(0.422549 -0.00366101 0)
(0.417904 -0.0052047 0)
(0.410926 -0.00690185 0)
(0.400459 -0.00861936 0)
(0.383961 -0.00993616 0)
(0.355609 -0.00981349 0)
(0.298467 -0.00711475 0)
(0.181158 -0.00732143 0)
)
;

boundaryField
{
    movingWall
    {
        type            fixedValue;
        value           uniform (0.5 0 0);
    }
    fixedWalls
    {
        type            noSlip;
    }
    frontAndBack
    {
        type            empty;
    }
}


// ************************************************************************* //
