/*--------------------------------*- C++ -*----------------------------------*\
| =========                 |                                                 |
| \\      /  F ield         | OpenFOAM: The Open Source CFD Toolbox           |
|  \\    /   O peration     | Version:  4.1                                   |
|   \\  /    A nd           | Web:      www.OpenFOAM.org                      |
|    \\/     M anipulation  |                                                 |
\*---------------------------------------------------------------------------*/
FoamFile
{
    version     2.0;
    format      ascii;
    class       volVectorField;
    location    "0.0306";
    object      U;
}
// * * * * * * * * * * * * * * * * * * * * * * * * * * * * * * * * * * * * * //

dimensions      [0 1 -1 0 0 0 0];

internalField   nonuniform List<vector> 
441
(
(-9.88681e-05 7.95618e-05 0)
(-0.000492455 0.000283824 0)
(-0.00109579 0.000491202 0)
(-0.00185934 0.000636616 0)
(-0.00270962 0.000705993 0)
(-0.00356967 0.000702863 0)
(-0.00437001 0.000637586 0)
(-0.00505327 0.000522807 0)
(-0.00557537 0.000371353 0)
(-0.00590515 0.00019543 0)
(-0.0060235 6.60227e-06 0)
(-0.00592289 -0.000183787 0)
(-0.00560736 -0.000364026 0)
(-0.00509332 -0.000521517 0)
(-0.00441073 -0.000642579 0)
(-0.00360431 -0.000712807 0)
(-0.00273373 -0.000718296 0)
(-0.00187185 -0.000648156 0)
(-0.00109909 -0.000499344 0)
(-0.000491195 -0.000287449 0)
(-9.78478e-05 -7.96234e-05 0)
(-0.00034845 0.00044767 0)
(-0.00154554 0.00136307 0)
(-0.00322284 0.00217169 0)
(-0.0052515 0.00271961 0)
(-0.00745762 0.00296619 0)
(-0.00966018 0.00292633 0)
(-0.0116945 0.00264034 0)
(-0.0134233 0.00215791 0)
(-0.0147405 0.00152974 0)
(-0.0155707 0.000804288 0)
(-0.0158678 2.7501e-05 0)
(-0.0156136 -0.000755529 0)
(-0.0148183 -0.00149825 0)
(-0.0135218 -0.0021506 0)
(-0.0117964 -0.00265828 0)
(-0.00974953 -0.0029643 0)
(-0.00752327 -0.00301395 0)
(-0.00528982 -0.00276475 0)
(-0.00323805 -0.00220369 0)
(-0.00154737 -0.00137736 0)
(-0.000347559 -0.00044841 0)
(-0.000622728 0.00106289 0)
(-0.00260691 0.00300236 0)
(-0.00525263 0.00458685 0)
(-0.00835953 0.00562032 0)
(-0.0116793 0.00605594 0)
(-0.0149582 0.00593171 0)
(-0.0179663 0.00532824 0)
(-0.0205118 0.00434244 0)
(-0.0224462 0.00307299 0)
(-0.0236641 0.00161414 0)
(-0.0241008 5.52702e-05 0)
(-0.0237308 -0.00151592 0)
(-0.0225679 -0.0030089 0)
(-0.0206675 -0.00432634 0)
(-0.0181304 -0.00536261 0)
(-0.0151061 -0.0060067 0)
(-0.0117929 -0.00615164 0)
(-0.00843142 -0.00571221 0)
(-0.005287 -0.00465353 0)
(-0.00261672 -0.00303372 0)
(-0.000623423 -0.00106593 0)
(-0.000885117 0.00192212 0)
(-0.00361712 0.00519465 0)
(-0.00716163 0.0077232 0)
(-0.0112439 0.00931199 0)
(-0.015546 0.00993429 0)
(-0.0197538 0.00966855 0)
(-0.0235874 0.00864865 0)
(-0.0268163 0.00702949 0)
(-0.0292635 0.0049667 0)
(-0.0308038 0.00260789 0)
(-0.0313605 9.24806e-05 0)
(-0.0309025 -0.00244304 0)
(-0.0294448 -0.00485775 0)
(-0.027051 -0.00699963 0)
(-0.0238392 -0.00870282 0)
(-0.0199868 -0.00979174 0)
(-0.0157323 -0.0100947 0)
(-0.0113695 -0.00946929 0)
(-0.00722906 -0.0078408 0)
(-0.00364226 -0.00525325 0)
(-0.000889208 -0.00193029 0)
(-0.00113789 0.00301973 0)
(-0.00459646 0.00793467 0)
(-0.00901113 0.0115787 0)
(-0.0140275 0.0137888 0)
(-0.0192552 0.0145867 0)
(-0.0243226 0.0141137 0)
(-0.0289075 0.0125739 0)
(-0.0327503 0.0101928 0)
(-0.035655 0.00719181 0)
(-0.0374848 0.00377806 0)
(-0.0381554 0.000145257 0)
(-0.0376317 -0.00351796 0)
(-0.0359265 -0.00701652 0)
(-0.0331059 -0.0101385 0)
(-0.0292958 -0.01265 0)
(-0.0246908 -0.0142997 0)
(-0.01956 -0.014836 0)
(-0.0142438 -0.0140399 0)
(-0.00913687 -0.0117732 0)
(-0.00465019 -0.00803785 0)
(-0.00114862 -0.00303848 0)
(-0.00139333 0.00435885 0)
(-0.00559218 0.0112345 0)
(-0.0108914 0.0161715 0)
(-0.0168488 0.019067 0)
(-0.0229958 0.0200216 0)
(-0.0289025 0.0192661 0)
(-0.0342087 0.0170959 0)
(-0.0386329 0.013822 0)
(-0.0419683 0.00974117 0)
(-0.0440732 0.00512487 0)
(-0.0448605 0.000222982 0)
(-0.0442911 -0.00472317 0)
(-0.0423738 -0.00946347 0)
(-0.0391696 -0.0137229 0)
(-0.0348039 -0.0171926 0)
(-0.0294793 -0.0195329 0)
(-0.0234874 -0.0203935 0)
(-0.017212 -0.0194542 0)
(-0.0111147 -0.0164835 0)
(-0.00569556 -0.0114111 0)
(-0.00141592 -0.00439841 0)
(-0.00166465 0.00595586 0)
(-0.00665375 0.0151307 0)
(-0.0128894 0.0215447 0)
(-0.0198288 0.0251846 0)
(-0.0269174 0.0262646 0)
(-0.0336662 0.0251375 0)
(-0.0396812 0.0222159 0)
(-0.044667 0.0179136 0)
(-0.0484153 0.0126125 0)
(-0.0507869 0.0066522 0)
(-0.0516969 0.000337821 0)
(-0.0511038 -0.00603941 0)
(-0.0490081 -0.0121767 0)
(-0.0454597 -0.0177355 0)
(-0.0405727 -0.0223257 0)
(-0.0345466 -0.0255057 0)
(-0.0276865 -0.026804 0)
(-0.0204153 -0.0257675 0)
(-0.013265 -0.0220346 0)
(-0.00683683 -0.0154259 0)
(-0.00170664 -0.00603374 0)
(-0.00196231 0.00783984 0)
(-0.00781971 0.0196811 0)
(-0.0150674 0.02776 0)
(-0.0230442 0.0321904 0)
(-0.0311006 0.0333442 0)
(-0.038689 0.0317363 0)
(-0.0453897 0.0279278 0)
(-0.0509051 0.0224558 0)
(-0.0550369 0.0157973 0)
(-0.0576593 0.00836114 0)
(-0.0586958 0.000503786 0)
(-0.0581045 -0.00744075 0)
(-0.0558747 -0.0151238 0)
(-0.0520357 -0.0221462 0)
(-0.0466783 -0.028033 0)
(-0.0399837 -0.0322262 0)
(-0.0322563 -0.0341064 0)
(-0.0239491 -0.0330484 0)
(-0.0156658 -0.0285127 0)
(-0.00812213 -0.0201621 0)
(-0.00203378 -0.00798361 0)
(-0.00229149 0.0100495 0)
(-0.00910812 0.0249566 0)
(-0.0174458 0.0348832 0)
(-0.0265016 0.0401244 0)
(-0.0355232 0.0412677 0)
(-0.0439099 0.0390422 0)
(-0.0512302 0.0341949 0)
(-0.0572017 0.0274091 0)
(-0.0616538 0.0192656 0)
(-0.064488 0.0102413 0)
(-0.0656455 0.000734966 0)
(-0.0650872 -0.0088891 0)
(-0.0627877 -0.0182488 0)
(-0.0587466 -0.0268931 0)
(-0.0530142 -0.0342621 0)
(-0.0457328 -0.0396685 0)
(-0.037184 -0.042315 0)
(-0.0278335 -0.0413561 0)
(-0.0183506 -0.0360109 0)
(-0.00957872 -0.0257167 0)
(-0.0024051 -0.0102998 0)
(-0.00264953 0.012628 0)
(-0.0105066 0.031026 0)
(-0.0199827 0.0429612 0)
(-0.030107 0.0489878 0)
(-0.04002 0.0499893 0)
(-0.0490823 0.0469739 0)
(-0.056874 0.0409199 0)
(-0.0631543 0.0326807 0)
(-0.0678039 0.0229479 0)
(-0.0707704 0.0122598 0)
(-0.0720249 0.00104252 0)
(-0.0715364 -0.0103286 0)
(-0.0692627 -0.021458 0)
(-0.0651622 -0.0318589 0)
(-0.0592257 -0.0408934 0)
(-0.0515282 -0.0477364 0)
(-0.0422958 -0.0513814 0)
(-0.0319759 -0.0507049 0)
(-0.0212852 -0.0446017 0)
(-0.0112013 -0.0321877 0)
(-0.00282021 -0.0130412 0)
(-0.00302253 0.0156162 0)
(-0.0119593 0.0379358 0)
(-0.0225495 0.0519885 0)
(-0.0336272 0.0587024 0)
(-0.044232 0.0593652 0)
(-0.0537137 0.0553469 0)
(-0.0617017 0.0479082 0)
(-0.0680334 0.0380959 0)
(-0.0726713 0.0267136 0)
(-0.0756314 0.0143479 0)
(-0.0769305 0.00143012 0)
(-0.0765527 -0.0116808 0)
(-0.0744384 -0.0246047 0)
(-0.070495 -0.036845 0)
(-0.0646322 -0.0477032 0)
(-0.0568234 -0.0562166 0)
(-0.0471937 -0.0611426 0)
(-0.0361228 -0.0610145 0)
(-0.0243357 -0.0542971 0)
(-0.0129364 -0.039649 0)
(-0.00326657 -0.0162663 0)
(-0.00338013 0.0190432 0)
(-0.0133482 0.0456815 0)
(-0.0248943 0.061863 0)
(-0.036637 0.0690566 0)
(-0.0475397 0.0690994 0)
(-0.0569919 0.0638239 0)
(-0.0647272 0.0548273 0)
(-0.0707077 0.0433664 0)
(-0.0750134 0.0303491 0)
(-0.0777537 0.0163877 0)
(-0.0790063 0.0018879 0)
(-0.0787798 -0.0128429 0)
(-0.0769999 -0.0274773 0)
(-0.0735167 -0.0415467 0)
(-0.0681394 -0.054324 0)
(-0.0607033 -0.0647253 0)
(-0.051175 -0.0712565 0)
(-0.0397942 -0.072043 0)
(-0.027224 -0.0649909 0)
(-0.0146586 -0.0481143 0)
(-0.00371336 -0.0200217 0)
(-0.003667 0.0229137 0)
(-0.0144627 0.0541692 0)
(-0.0265878 0.0723264 0)
(-0.0384437 0.0796369 0)
(-0.0489765 0.0786789 0)
(-0.0576965 0.0718622 0)
(-0.0645144 0.0611677 0)
(-0.0695719 0.048064 0)
(-0.0731011 0.0335403 0)
(-0.0753252 0.0182003 0)
(-0.0763954 0.00238552 0)
(-0.0763541 -0.0136893 0)
(-0.0751188 -0.0297943 0)
(-0.0724848 -0.0455371 0)
(-0.0681512 -0.0602115 0)
(-0.0617842 -0.0726532 0)
(-0.05313 -0.0811278 0)
(-0.0421929 -0.0833031 0)
(-0.0294616 -0.0763826 0)
(-0.0161345 -0.0574868 0)
(-0.00410162 -0.0243258 0)
(-0.00378733 0.0271902 0)
(-0.0149456 0.0631627 0)
(-0.0269324 0.0828848 0)
(-0.0379725 0.0897448 0)
(-0.0471087 0.0873041 0)
(-0.0540904 0.0786655 0)
(-0.0590935 0.0662159 0)
(-0.0624898 0.0516088 0)
(-0.0646859 0.0358686 0)
(-0.0660252 0.0195432 0)
(-0.0667349 0.00286612 0)
(-0.0668969 -0.0140821 0)
(-0.0664326 -0.0312145 0)
(-0.0650978 -0.04827 0)
(-0.062493 -0.0646309 0)
(-0.0581057 -0.0791252 0)
(-0.0514121 -0.0898344 0)
(-0.0420737 -0.0939622 0)
(-0.0302435 -0.0878757 0)
(-0.0169605 -0.0674877 0)
(-0.00432697 -0.0291451 0)
(-0.0035738 0.0317651 0)
(-0.0141883 0.0722046 0)
(-0.0247981 0.0927023 0)
(-0.0335781 0.0982995 0)
(-0.0398608 0.0938263 0)
(-0.0437872 0.0831596 0)
(-0.0458805 0.0690595 0)
(-0.0467665 0.0532888 0)
(-0.0470161 0.0368321 0)
(-0.0470718 0.0201226 0)
(-0.0472198 0.00324452 0)
(-0.0475785 -0.0138891 0)
(-0.0480895 -0.0313697 0)
(-0.0485034 -0.049119 0)
(-0.0483658 -0.0666856 0)
(-0.0470212 -0.0829985 0)
(-0.0436709 -0.0960766 0)
(-0.0375466 -0.102739 0)
(-0.0282697 -0.0984471 0)
(-0.0164472 -0.0775527 0)
(-0.00420674 -0.0343586 0)
(-0.00271941 0.036411 0)
(-0.0111066 0.0804917 0)
(-0.0183044 0.100455 0)
(-0.0227184 0.103738 0)
(-0.0242524 0.0967181 0)
(-0.0235844 0.0840245 0)
(-0.0216112 0.0686534 0)
(-0.019169 0.052335 0)
(-0.0169247 0.0359095 0)
(-0.015355 0.0196339 0)
(-0.01476 0.00341457 0)
(-0.0152784 -0.0130132 0)
(-0.0168889 -0.0299296 0)
(-0.0193898 -0.0474689 0)
(-0.0223582 -0.0654179 0)
(-0.025101 -0.0829398 0)
(-0.0266341 -0.09819 0)
(-0.0257658 -0.107822 0)
(-0.0214184 -0.106487 0)
(-0.0133861 -0.086677 0)
(-0.00341034 -0.0396945 0)
(-0.000606948 0.0406662 0)
(-0.00363274 0.086643 0)
(-0.00418417 0.104125 0)
(-0.00139021 0.103942 0)
(0.00399007 0.0941341 0)
(0.0107289 0.0798354 0)
(0.0176833 0.0639883 0)
(0.0239722 0.0480781 0)
(0.0289842 0.0326825 0)
(0.0323237 0.017837 0)
(0.0337505 0.00327233 0)
(0.0331381 -0.0114268 0)
(0.0304588 -0.0266978 0)
(0.0258045 -0.0428737 0)
(0.0194438 -0.0600139 0)
(0.011918 -0.077639 0)
(0.00415823 -0.0942967 0)
(-0.00243784 -0.106874 0)
(-0.00613187 -0.109621 0)
(-0.00553857 -0.0931566 0)
(-0.00128893 -0.0446019 0)
(0.00418201 0.0435981 0)
(0.0125086 0.0883139 0)
(0.0235033 0.100794 0)
(0.0368172 0.0963133 0)
(0.0509502 0.0841834 0)
(0.064532 0.0694051 0)
(0.0765906 0.0544128 0)
(0.0865285 0.0402089 0)
(0.0940172 0.0270223 0)
(0.098888 0.0146705 0)
(0.101047 0.00275929 0)
(0.100422 -0.00920312 0)
(0.096938 -0.0217288 0)
(0.0905282 -0.0352743 0)
(0.0811842 -0.0501308 0)
(0.0690565 -0.0662236 0)
(0.054623 -0.0827224 0)
(0.0389211 -0.0972801 0)
(0.0237644 -0.104619 0)
(0.0115587 -0.0942085 0)
(0.00361713 -0.0479893 0)
(0.0157795 0.042951 0)
(0.0468966 0.0811617 0)
(0.0758483 0.0864148 0)
(0.102077 0.0781969 0)
(0.124984 0.0655901 0)
(0.144291 0.0524114 0)
(0.159962 0.040125 0)
(0.172106 0.0291235 0)
(0.180895 0.0193145 0)
(0.186493 0.0103845 0)
(0.189006 0.00192145 0)
(0.188445 -0.00652821 0)
(0.184708 -0.0154283 0)
(0.177576 -0.0252254 0)
(0.166716 -0.0363039 0)
(0.151723 -0.0488859 0)
(0.132194 -0.0627937 0)
(0.10791 -0.0768625 0)
(0.0792149 -0.0874983 0)
(0.0475523 -0.0851018 0)
(0.0154918 -0.047381 0)
(0.0495445 0.03482 0)
(0.122635 0.059337 0)
(0.173629 0.0574972 0)
(0.209743 0.0488262 0)
(0.236549 0.03926 0)
(0.256782 0.0304516 0)
(0.272015 0.0228077 0)
(0.28322 0.0162772 0)
(0.291046 0.0106444 0)
(0.295923 0.00563468 0)
(0.298103 0.000955817 0)
(0.297666 -0.00368832 0)
(0.294523 -0.00859304 0)
(0.288392 -0.0140502 0)
(0.278762 -0.020341 0)
(0.264808 -0.0277155 0)
(0.245235 -0.036332 0)
(0.217962 -0.0460592 0)
(0.179706 -0.0557889 0)
(0.12498 -0.0601686 0)
(0.0496566 -0.0384588 0)
(0.18288 0.0046783 0)
(0.296837 0.00833713 0)
(0.350879 0.0118959 0)
(0.37838 0.0116592 0)
(0.395262 0.00984704 0)
(0.40655 0.00776147 0)
(0.414437 0.00582916 0)
(0.419954 0.00414559 0)
(0.423675 0.00268726 0)
(0.425931 0.00139176 0)
(0.426909 0.000185271 0)
(0.426678 -0.00100749 0)
(0.425199 -0.00225861 0)
(0.422314 -0.00363155 0)
(0.417701 -0.00516901 0)
(0.410764 -0.00686314 0)
(0.400338 -0.00858137 0)
(0.383881 -0.00990284 0)
(0.355565 -0.00978853 0)
(0.29845 -0.00710072 0)
(0.181156 -0.00731811 0)
)
;

boundaryField
{
    movingWall
    {
        type            fixedValue;
        value           uniform (0.5 0 0);
    }
    fixedWalls
    {
        type            noSlip;
    }
    frontAndBack
    {
        type            empty;
    }
}


// ************************************************************************* //
