/*--------------------------------*- C++ -*----------------------------------*\
| =========                 |                                                 |
| \\      /  F ield         | OpenFOAM: The Open Source CFD Toolbox           |
|  \\    /   O peration     | Version:  4.1                                   |
|   \\  /    A nd           | Web:      www.OpenFOAM.org                      |
|    \\/     M anipulation  |                                                 |
\*---------------------------------------------------------------------------*/
FoamFile
{
    version     2.0;
    format      ascii;
    class       volScalarField;
    location    "314";
    object      p;
}
// * * * * * * * * * * * * * * * * * * * * * * * * * * * * * * * * * * * * * //

dimensions      [1 -1 -2 0 0 0 0];

internalField   nonuniform List<scalar> 
3264
(
0.712492
0.712491
0.71249
0.712489
0.712489
0.71249
0.712491
0.712492
0.712495
0.712498
0.712503
0.712508
0.712514
0.712521
0.712528
0.712537
0.712547
0.712558
0.71257
0.712583
0.712598
0.712613
0.712631
0.71265
0.71267
0.712693
0.712718
0.712746
0.712776
0.712809
0.712845
0.712885
0.712927
0.712974
0.713024
0.713078
0.713135
0.713196
0.713261
0.713328
0.713398
0.713471
0.713545
0.71362
0.713697
0.713773
0.713849
0.713924
0.713997
0.714067
0.714135
0.714199
0.714259
0.714314
0.714365
0.714411
0.714451
0.714487
0.714517
0.714543
0.714564
0.71458
0.714592
0.714601
0.714607
0.71461
0.714611
0.71461
0.714608
0.714605
0.714601
0.714597
0.714594
0.71459
0.714587
0.714585
0.714584
0.714583
0.714583
0.714584
0.714586
0.714588
0.714591
0.714594
0.714598
0.714601
0.714605
0.714609
0.714613
0.714617
0.714621
0.714624
0.714627
0.71463
0.714633
0.714635
0.714637
0.714639
0.714641
0.714642
0.714644
0.714645
0.714646
0.714647
0.714647
0.714648
0.714649
0.71465
0.71465
0.714651
0.714652
0.714654
0.714655
0.714657
0.714659
0.714662
0.714665
0.714668
0.714672
0.714677
0.714682
0.714687
0.714693
0.714699
0.714705
0.714711
0.714718
0.714724
0.71473
0.714736
0.714742
0.714747
0.714752
0.714756
0.714759
0.714761
0.714763
0.714764
0.714764
0.714762
0.71476
0.714758
0.714754
0.71475
0.714745
0.714739
0.714733
0.714726
0.714719
0.714712
0.714704
0.714696
0.714688
0.714681
0.714673
0.714665
0.714657
0.71465
0.714642
0.714635
0.714627
0.71462
0.714613
0.714606
0.714599
0.714592
0.714586
0.714579
0.714572
0.714565
0.714557
0.71455
0.714543
0.714535
0.714527
0.714519
0.714511
0.714502
0.714493
0.714485
0.714475
0.714466
0.714457
0.714447
0.714438
0.714428
0.714418
0.714408
0.714399
0.714389
0.714379
0.714369
0.714359
0.714349
0.714339
0.71433
0.71432
0.71431
0.7143
0.714291
0.712494
0.712492
0.712492
0.712491
0.712491
0.712492
0.712493
0.712495
0.712497
0.712501
0.712505
0.71251
0.712516
0.712523
0.71253
0.712539
0.712549
0.71256
0.712572
0.712585
0.712599
0.712615
0.712632
0.712651
0.712672
0.712694
0.712719
0.712746
0.712776
0.712808
0.712844
0.712883
0.712925
0.712971
0.71302
0.713073
0.71313
0.713191
0.713254
0.713321
0.713391
0.713463
0.713537
0.713612
0.713688
0.713765
0.71384
0.713915
0.713988
0.714058
0.714126
0.71419
0.71425
0.714306
0.714356
0.714402
0.714443
0.714479
0.71451
0.714535
0.714556
0.714573
0.714586
0.714595
0.714601
0.714605
0.714606
0.714606
0.714604
0.714602
0.714599
0.714596
0.714593
0.71459
0.714588
0.714586
0.714585
0.714585
0.714586
0.714587
0.714589
0.714592
0.714595
0.714598
0.714602
0.714605
0.714609
0.714613
0.714617
0.71462
0.714624
0.714627
0.71463
0.714633
0.714635
0.714637
0.714639
0.714641
0.714642
0.714644
0.714645
0.714646
0.714646
0.714647
0.714648
0.714648
0.714649
0.71465
0.71465
0.714651
0.714652
0.714653
0.714655
0.714656
0.714658
0.714661
0.714664
0.714667
0.714671
0.714675
0.71468
0.714685
0.714691
0.714696
0.714703
0.714709
0.714715
0.714722
0.714728
0.714734
0.71474
0.714745
0.71475
0.714754
0.714757
0.71476
0.714762
0.714762
0.714762
0.714762
0.71476
0.714757
0.714754
0.714749
0.714744
0.714739
0.714733
0.714726
0.714719
0.714712
0.714704
0.714696
0.714689
0.714681
0.714673
0.714665
0.714657
0.71465
0.714642
0.714635
0.714627
0.71462
0.714613
0.714606
0.714599
0.714592
0.714585
0.714579
0.714572
0.714564
0.714557
0.71455
0.714542
0.714535
0.714527
0.714519
0.714511
0.714502
0.714493
0.714485
0.714476
0.714466
0.714457
0.714447
0.714438
0.714428
0.714418
0.714409
0.714399
0.714389
0.714379
0.714369
0.714359
0.714349
0.714339
0.71433
0.71432
0.71431
0.7143
0.714291
0.712495
0.712493
0.712492
0.712492
0.712491
0.712492
0.712492
0.712494
0.712496
0.7125
0.712504
0.712509
0.712515
0.712521
0.712529
0.712538
0.712548
0.712559
0.712571
0.712584
0.712598
0.712614
0.712631
0.712649
0.712669
0.712692
0.712716
0.712743
0.712772
0.712804
0.712839
0.712877
0.712919
0.712965
0.713014
0.713067
0.713123
0.713184
0.713247
0.713314
0.713383
0.713455
0.713529
0.713604
0.71368
0.713756
0.713832
0.713906
0.713979
0.71405
0.714117
0.714181
0.714241
0.714296
0.714347
0.714392
0.714433
0.714469
0.714499
0.714525
0.714546
0.714563
0.714575
0.714585
0.714591
0.714595
0.714596
0.714596
0.714595
0.714593
0.71459
0.714587
0.714585
0.714583
0.714581
0.71458
0.71458
0.71458
0.714582
0.714584
0.714586
0.71459
0.714593
0.714597
0.714601
0.714606
0.71461
0.714614
0.714619
0.714622
0.714626
0.714629
0.714632
0.714635
0.714637
0.714639
0.714641
0.714642
0.714644
0.714645
0.714646
0.714647
0.714648
0.714648
0.714649
0.714649
0.71465
0.71465
0.714651
0.714651
0.714652
0.714653
0.714654
0.714656
0.714658
0.71466
0.714663
0.714666
0.71467
0.714674
0.714679
0.714684
0.714689
0.714695
0.714701
0.714708
0.714714
0.71472
0.714727
0.714733
0.714739
0.714744
0.714749
0.714753
0.714756
0.714759
0.714761
0.714761
0.714761
0.714761
0.714759
0.714756
0.714753
0.714749
0.714744
0.714738
0.714732
0.714726
0.714719
0.714712
0.714704
0.714696
0.714689
0.714681
0.714673
0.714665
0.714657
0.71465
0.714642
0.714635
0.714627
0.71462
0.714613
0.714606
0.714599
0.714592
0.714586
0.714579
0.714572
0.714565
0.714557
0.71455
0.714543
0.714535
0.714527
0.714519
0.714511
0.714502
0.714494
0.714485
0.714476
0.714466
0.714457
0.714447
0.714438
0.714428
0.714418
0.714409
0.714399
0.714389
0.714379
0.714369
0.714359
0.714349
0.714339
0.71433
0.71432
0.71431
0.7143
0.714291
0.71249
0.712489
0.712488
0.712489
0.712488
0.712489
0.71249
0.712492
0.712494
0.712497
0.712501
0.712507
0.712513
0.71252
0.712527
0.712536
0.712546
0.712557
0.712569
0.712582
0.712596
0.712611
0.712628
0.712646
0.712666
0.712688
0.712712
0.712738
0.712767
0.712798
0.712833
0.712871
0.712912
0.712957
0.713006
0.713058
0.713114
0.713174
0.713237
0.713304
0.713373
0.713444
0.713518
0.713592
0.713668
0.713743
0.713818
0.713892
0.713964
0.714033
0.7141
0.714163
0.714222
0.714276
0.714326
0.71437
0.71441
0.714445
0.714474
0.714499
0.71452
0.714536
0.714548
0.714558
0.714564
0.714568
0.71457
0.71457
0.71457
0.714568
0.714567
0.714565
0.714564
0.714563
0.714563
0.714563
0.714564
0.714566
0.714569
0.714572
0.714576
0.714581
0.714586
0.714591
0.714597
0.714602
0.714608
0.714613
0.714618
0.714623
0.714628
0.714632
0.714635
0.714638
0.714641
0.714643
0.714645
0.714647
0.714648
0.714649
0.714649
0.71465
0.714651
0.714651
0.714651
0.714651
0.714652
0.714652
0.714652
0.714653
0.714653
0.714654
0.714655
0.714657
0.714658
0.714661
0.714663
0.714666
0.71467
0.714674
0.714678
0.714683
0.714688
0.714694
0.7147
0.714706
0.714712
0.714718
0.714725
0.714731
0.714736
0.714741
0.714746
0.71475
0.714753
0.714756
0.714758
0.714759
0.714759
0.714758
0.714756
0.714754
0.71475
0.714746
0.714742
0.714736
0.714731
0.714724
0.714718
0.714711
0.714703
0.714696
0.714688
0.71468
0.714673
0.714665
0.714657
0.71465
0.714642
0.714635
0.714628
0.714621
0.714614
0.714607
0.7146
0.714593
0.714586
0.714579
0.714572
0.714565
0.714558
0.71455
0.714543
0.714535
0.714527
0.714519
0.714511
0.714502
0.714493
0.714485
0.714476
0.714466
0.714457
0.714447
0.714438
0.714428
0.714418
0.714408
0.714399
0.714389
0.714379
0.714369
0.714359
0.714349
0.714339
0.714329
0.71432
0.71431
0.7143
0.714291
0.712487
0.712487
0.712484
0.712485
0.712483
0.712484
0.712485
0.712487
0.712489
0.712493
0.712497
0.712503
0.712509
0.712516
0.712524
0.712533
0.712543
0.712554
0.712566
0.712579
0.712593
0.712609
0.712625
0.712643
0.712663
0.712684
0.712708
0.712734
0.712762
0.712794
0.712828
0.712866
0.712907
0.712952
0.713
0.713052
0.713108
0.713168
0.713231
0.713296
0.713365
0.713436
0.713508
0.713582
0.713656
0.71373
0.713804
0.713876
0.713946
0.714014
0.714078
0.714139
0.714195
0.714248
0.714295
0.714337
0.714375
0.714407
0.714435
0.714458
0.714477
0.714492
0.714503
0.714512
0.714518
0.714522
0.714524
0.714525
0.714525
0.714525
0.714525
0.714525
0.714525
0.714526
0.714527
0.71453
0.714533
0.714537
0.714542
0.714547
0.714553
0.71456
0.714567
0.714575
0.714582
0.71459
0.714598
0.714605
0.714613
0.714619
0.714626
0.714631
0.714636
0.714641
0.714645
0.714648
0.714651
0.714653
0.714654
0.714656
0.714656
0.714657
0.714657
0.714658
0.714658
0.714658
0.714657
0.714657
0.714657
0.714658
0.714658
0.714658
0.714659
0.71466
0.714662
0.714664
0.714666
0.714669
0.714672
0.714675
0.714679
0.714684
0.714689
0.714694
0.7147
0.714706
0.714711
0.714717
0.714723
0.714728
0.714734
0.714738
0.714743
0.714746
0.714749
0.714751
0.714753
0.714754
0.714754
0.714753
0.714751
0.714749
0.714745
0.714742
0.714737
0.714732
0.714727
0.714721
0.714714
0.714708
0.714701
0.714694
0.714687
0.71468
0.714672
0.714665
0.714658
0.71465
0.714643
0.714636
0.714629
0.714622
0.714615
0.714608
0.714601
0.714594
0.714587
0.71458
0.714573
0.714566
0.714558
0.714551
0.714543
0.714535
0.714527
0.714519
0.714511
0.714502
0.714493
0.714484
0.714475
0.714466
0.714457
0.714447
0.714437
0.714428
0.714418
0.714408
0.714398
0.714388
0.714379
0.714369
0.714359
0.714349
0.714339
0.714329
0.71432
0.71431
0.7143
0.714291
0.712455
0.71247
0.71247
0.712476
0.712477
0.712479
0.712481
0.712483
0.712487
0.71249
0.712495
0.712501
0.712507
0.712514
0.712523
0.712532
0.712542
0.712553
0.712565
0.712578
0.712592
0.712607
0.712624
0.712642
0.712661
0.712683
0.712707
0.712733
0.712761
0.712792
0.712827
0.712865
0.712906
0.712951
0.712999
0.713051
0.713107
0.713166
0.713228
0.713294
0.713361
0.713431
0.713502
0.713574
0.713646
0.713718
0.713789
0.713859
0.713926
0.71399
0.714051
0.714108
0.714161
0.714209
0.714252
0.714291
0.714325
0.714354
0.714378
0.714398
0.714415
0.714428
0.714438
0.714445
0.714451
0.714455
0.714457
0.714459
0.714461
0.714463
0.714464
0.714466
0.714469
0.714472
0.714477
0.714482
0.714487
0.714494
0.714502
0.71451
0.714519
0.714528
0.714538
0.714548
0.714559
0.714569
0.71458
0.71459
0.7146
0.71461
0.714619
0.714627
0.714635
0.714642
0.714648
0.714653
0.714657
0.714661
0.714664
0.714666
0.714668
0.714669
0.71467
0.71467
0.71467
0.71467
0.71467
0.714669
0.714669
0.714669
0.714668
0.714668
0.714669
0.714669
0.71467
0.714671
0.714673
0.714675
0.714678
0.714681
0.714684
0.714688
0.714693
0.714697
0.714702
0.714707
0.714712
0.714717
0.714722
0.714726
0.714731
0.714735
0.714738
0.714741
0.714743
0.714745
0.714746
0.714746
0.714746
0.714744
0.714743
0.71474
0.714737
0.714734
0.714729
0.714725
0.71472
0.714715
0.714709
0.714703
0.714697
0.714691
0.714685
0.714678
0.714671
0.714665
0.714658
0.714651
0.714644
0.714637
0.714631
0.714624
0.714617
0.71461
0.714603
0.714596
0.714589
0.714582
0.714574
0.714567
0.714559
0.714552
0.714544
0.714536
0.714528
0.714519
0.714511
0.714502
0.714493
0.714484
0.714475
0.714466
0.714456
0.714447
0.714437
0.714427
0.714418
0.714408
0.714398
0.714388
0.714378
0.714369
0.714359
0.714349
0.714339
0.714329
0.71432
0.71431
0.7143
0.714291
0.712454
0.712471
0.712469
0.712473
0.712473
0.712475
0.712478
0.712481
0.712484
0.712489
0.712494
0.7125
0.712506
0.712514
0.712522
0.712532
0.712542
0.712553
0.712565
0.712578
0.712593
0.712608
0.712625
0.712644
0.712664
0.712686
0.71271
0.712736
0.712766
0.712798
0.712833
0.712871
0.712913
0.712958
0.713007
0.713059
0.713115
0.713174
0.713236
0.7133
0.713366
0.713435
0.713504
0.713573
0.713643
0.713712
0.713779
0.713844
0.713907
0.713966
0.714022
0.714074
0.714121
0.714163
0.714201
0.714235
0.714263
0.714288
0.714308
0.714325
0.714338
0.714349
0.714358
0.714364
0.714369
0.714374
0.714378
0.714381
0.714385
0.714388
0.714393
0.714398
0.714403
0.71441
0.714417
0.714425
0.714434
0.714443
0.714454
0.714465
0.714477
0.714489
0.714502
0.714516
0.714529
0.714543
0.714556
0.71457
0.714583
0.714596
0.714608
0.714619
0.71463
0.71464
0.714649
0.714657
0.714665
0.714671
0.714676
0.71468
0.714684
0.714686
0.714688
0.714689
0.71469
0.71469
0.71469
0.714689
0.714689
0.714688
0.714687
0.714687
0.714686
0.714686
0.714686
0.714687
0.714687
0.714689
0.71469
0.714692
0.714695
0.714698
0.714701
0.714704
0.714708
0.714711
0.714715
0.714719
0.714722
0.714726
0.714728
0.714731
0.714733
0.714735
0.714736
0.714737
0.714737
0.714736
0.714735
0.714733
0.714731
0.714729
0.714726
0.714722
0.714719
0.714715
0.714711
0.714706
0.714701
0.714697
0.714692
0.714686
0.714681
0.714675
0.71467
0.714664
0.714658
0.714652
0.714646
0.714639
0.714633
0.714626
0.71462
0.714613
0.714606
0.714599
0.714591
0.714584
0.714577
0.714569
0.714561
0.714553
0.714545
0.714537
0.714528
0.714519
0.714511
0.714502
0.714493
0.714484
0.714474
0.714465
0.714455
0.714446
0.714436
0.714427
0.714417
0.714407
0.714398
0.714388
0.714378
0.714368
0.714359
0.714349
0.714339
0.714329
0.71432
0.71431
0.7143
0.714291
0.712299
0.712438
0.712455
0.712476
0.712479
0.712483
0.712484
0.712487
0.71249
0.712493
0.712498
0.712504
0.71251
0.712518
0.712526
0.712535
0.712546
0.712557
0.71257
0.712584
0.712598
0.712615
0.712632
0.712652
0.712673
0.712696
0.712721
0.712749
0.71278
0.712813
0.71285
0.712889
0.712932
0.712979
0.713028
0.713081
0.713137
0.713196
0.713257
0.71332
0.713385
0.713451
0.713518
0.713584
0.713649
0.713714
0.713776
0.713835
0.713892
0.713945
0.713994
0.714038
0.714079
0.714114
0.714146
0.714173
0.714196
0.714215
0.714231
0.714244
0.714255
0.714264
0.714272
0.714278
0.714284
0.71429
0.714296
0.714301
0.714308
0.714315
0.714322
0.71433
0.714339
0.714349
0.714359
0.71437
0.714382
0.714395
0.714408
0.714422
0.714436
0.714452
0.714467
0.714483
0.714499
0.714516
0.714532
0.714549
0.714565
0.714581
0.714596
0.714611
0.714625
0.714638
0.714651
0.714662
0.714672
0.714681
0.714689
0.714696
0.714702
0.714706
0.71471
0.714713
0.714715
0.714716
0.714716
0.714716
0.714716
0.714715
0.714714
0.714713
0.714712
0.714711
0.71471
0.71471
0.714709
0.714709
0.71471
0.71471
0.714711
0.714713
0.714714
0.714716
0.714718
0.714719
0.714721
0.714723
0.714725
0.714726
0.714727
0.714728
0.714728
0.714728
0.714728
0.714727
0.714726
0.714724
0.714722
0.71472
0.714717
0.714715
0.714712
0.714709
0.714706
0.714702
0.714699
0.714696
0.714692
0.714688
0.714685
0.714681
0.714676
0.714672
0.714668
0.714663
0.714658
0.714653
0.714647
0.714642
0.714636
0.714629
0.714623
0.714616
0.714609
0.714602
0.714595
0.714587
0.714579
0.714571
0.714563
0.714555
0.714546
0.714538
0.714529
0.71452
0.714511
0.714502
0.714492
0.714483
0.714474
0.714464
0.714455
0.714445
0.714435
0.714426
0.714416
0.714407
0.714397
0.714387
0.714378
0.714368
0.714358
0.714349
0.714339
0.714329
0.71432
0.71431
0.7143
0.714291
0.713027
0.712971
0.712909
0.712842
0.712769
0.712691
0.712604
0.712486
0.713034
0.712987
0.712924
0.712855
0.712782
0.712704
0.712614
0.712517
0.713038
0.712999
0.712941
0.712875
0.712806
0.712734
0.712664
0.712594
0.713048
0.713014
0.712961
0.7129
0.712836
0.712771
0.712708
0.71265
0.71306
0.713028
0.712979
0.712922
0.712864
0.712806
0.712753
0.712704
0.713075
0.713042
0.712993
0.71294
0.712886
0.712834
0.712786
0.712744
0.71309
0.713053
0.713003
0.71295
0.712899
0.712851
0.712807
0.712768
0.713098
0.713051
0.713001
0.712951
0.712902
0.712856
0.712814
0.712775
0.712424
0.712444
0.712465
0.712476
0.712481
0.712485
0.712487
0.71249
0.712493
0.712498
0.712503
0.712508
0.712515
0.712523
0.712532
0.712543
0.712554
0.712566
0.71258
0.712595
0.712611
0.712629
0.712648
0.712669
0.712692
0.712718
0.712745
0.712775
0.712808
0.712844
0.712883
0.712924
0.712969
0.713017
0.713068
0.713122
0.713178
0.713237
0.713297
0.713359
0.713421
0.713484
0.713547
0.713609
0.713669
0.713727
0.713782
0.713835
0.713883
0.713928
0.713969
0.714006
0.714038
0.714066
0.71409
0.714111
0.714129
0.714143
0.714156
0.714167
0.714177
0.714185
0.714193
0.714201
0.714209
0.714217
0.714226
0.714235
0.714244
0.714254
0.714265
0.714276
0.714288
0.7143
0.714313
0.714327
0.714341
0.714356
0.714371
0.714387
0.714404
0.714421
0.714439
0.714457
0.714476
0.714494
0.714513
0.714532
0.714551
0.714569
0.714587
0.714605
0.714622
0.714638
0.714653
0.714668
0.714681
0.714693
0.714704
0.714713
0.714721
0.714728
0.714734
0.714739
0.714742
0.714745
0.714746
0.714747
0.714747
0.714747
0.714746
0.714745
0.714743
0.714742
0.71474
0.714738
0.714737
0.714736
0.714735
0.714734
0.714733
0.714732
0.714732
0.714731
0.714731
0.714731
0.71473
0.71473
0.714729
0.714728
0.714727
0.714725
0.714724
0.714722
0.714719
0.714717
0.714714
0.714711
0.714709
0.714706
0.714703
0.7147
0.714697
0.714694
0.714692
0.714689
0.714687
0.714684
0.714682
0.71468
0.714677
0.714675
0.714672
0.714669
0.714666
0.714662
0.714658
0.714654
0.714649
0.714644
0.714639
0.714633
0.714627
0.71462
0.714613
0.714606
0.714598
0.71459
0.714582
0.714574
0.714566
0.714557
0.714548
0.714539
0.71453
0.71452
0.714511
0.714502
0.714492
0.714483
0.714473
0.714463
0.714454
0.714444
0.714435
0.714425
0.714415
0.714406
0.714396
0.714387
0.714377
0.714368
0.714358
0.714348
0.714339
0.714329
0.71432
0.71431
0.7143
0.714291
0.712445
0.712455
0.712468
0.712481
0.712488
0.712494
0.712497
0.7125
0.712504
0.712508
0.712514
0.71252
0.712527
0.712536
0.712546
0.712557
0.712569
0.712583
0.712598
0.712615
0.712634
0.712654
0.712676
0.7127
0.712726
0.712754
0.712785
0.712818
0.712854
0.712893
0.712935
0.712979
0.713026
0.713076
0.713128
0.713183
0.713239
0.713297
0.713356
0.713415
0.713474
0.713533
0.71359
0.713646
0.713699
0.713749
0.713797
0.71384
0.71388
0.713916
0.713948
0.713976
0.714001
0.714022
0.71404
0.714056
0.71407
0.714083
0.714094
0.714105
0.714115
0.714125
0.714135
0.714146
0.714156
0.714167
0.714179
0.71419
0.714202
0.714215
0.714228
0.714241
0.714255
0.714269
0.714284
0.714299
0.714315
0.714331
0.714348
0.714366
0.714384
0.714402
0.714421
0.714441
0.71446
0.714481
0.714501
0.714522
0.714542
0.714563
0.714583
0.714602
0.714622
0.71464
0.714658
0.714675
0.71469
0.714705
0.714718
0.71473
0.714741
0.71475
0.714758
0.714764
0.714769
0.714773
0.714776
0.714778
0.714779
0.714779
0.714778
0.714777
0.714775
0.714773
0.714771
0.714769
0.714766
0.714763
0.714761
0.714758
0.714756
0.714753
0.71475
0.714748
0.714745
0.714742
0.714739
0.714736
0.714733
0.71473
0.714726
0.714723
0.714719
0.714715
0.714711
0.714707
0.714703
0.714699
0.714696
0.714692
0.714689
0.714686
0.714683
0.714681
0.714679
0.714677
0.714676
0.714674
0.714673
0.714672
0.714671
0.714669
0.714668
0.714666
0.714664
0.714661
0.714658
0.714655
0.714651
0.714647
0.714642
0.714636
0.71463
0.714624
0.714617
0.71461
0.714602
0.714594
0.714586
0.714577
0.714568
0.714559
0.71455
0.71454
0.714531
0.714521
0.714511
0.714502
0.714492
0.714482
0.714472
0.714463
0.714453
0.714443
0.714434
0.714424
0.714415
0.714405
0.714396
0.714386
0.714377
0.714367
0.714358
0.714348
0.714339
0.714329
0.71432
0.71431
0.714301
0.714291
0.712541
0.712517
0.712511
0.712511
0.712512
0.712514
0.712516
0.712518
0.712521
0.712525
0.71253
0.712537
0.712545
0.712554
0.712565
0.712578
0.712592
0.712608
0.712625
0.712645
0.712666
0.712689
0.712714
0.712742
0.712771
0.712803
0.712838
0.712875
0.712915
0.712957
0.713002
0.713049
0.713099
0.71315
0.713203
0.713258
0.713313
0.713369
0.713425
0.713481
0.713535
0.713588
0.713639
0.713687
0.713732
0.713773
0.713811
0.713846
0.713876
0.713904
0.713928
0.71395
0.713969
0.713986
0.714001
0.714015
0.714029
0.714042
0.714054
0.714066
0.714078
0.714091
0.714103
0.714116
0.714128
0.714141
0.714154
0.714168
0.714181
0.714195
0.71421
0.714224
0.714239
0.714254
0.71427
0.714286
0.714302
0.714319
0.714337
0.714355
0.714373
0.714392
0.714412
0.714432
0.714453
0.714474
0.714496
0.714517
0.714539
0.714561
0.714582
0.714604
0.714624
0.714645
0.714664
0.714683
0.7147
0.714717
0.714732
0.714746
0.714758
0.714769
0.714778
0.714787
0.714793
0.714798
0.714802
0.714805
0.714807
0.714807
0.714807
0.714806
0.714804
0.714802
0.714799
0.714796
0.714792
0.714788
0.714784
0.71478
0.714776
0.714771
0.714767
0.714762
0.714757
0.714752
0.714747
0.714742
0.714737
0.714731
0.714726
0.71472
0.714715
0.714709
0.714704
0.714699
0.714694
0.714689
0.714685
0.714681
0.714678
0.714675
0.714672
0.71467
0.714669
0.714668
0.714667
0.714667
0.714666
0.714666
0.714666
0.714666
0.714665
0.714664
0.714663
0.714661
0.714659
0.714656
0.714653
0.714649
0.714645
0.714639
0.714634
0.714627
0.71462
0.714613
0.714605
0.714597
0.714588
0.714579
0.71457
0.714561
0.714551
0.714541
0.714531
0.714521
0.714512
0.714502
0.714492
0.714482
0.714472
0.714462
0.714452
0.714443
0.714433
0.714424
0.714414
0.714405
0.714395
0.714386
0.714376
0.714367
0.714358
0.714348
0.714339
0.714329
0.71432
0.71431
0.714301
0.714291
0.712604
0.712576
0.712561
0.712554
0.712549
0.712547
0.712545
0.712545
0.712546
0.712549
0.712554
0.71256
0.712568
0.712578
0.71259
0.712604
0.712619
0.712637
0.712657
0.712679
0.712702
0.712729
0.712757
0.712788
0.712821
0.712857
0.712895
0.712936
0.712979
0.713025
0.713072
0.713122
0.713173
0.713225
0.713278
0.713332
0.713385
0.713438
0.71349
0.71354
0.713588
0.713634
0.713677
0.713717
0.713753
0.713787
0.713817
0.713844
0.713869
0.713891
0.713912
0.71393
0.713947
0.713963
0.713978
0.713993
0.714007
0.714021
0.714035
0.714049
0.714063
0.714077
0.71409
0.714104
0.714118
0.714132
0.714146
0.71416
0.714174
0.714188
0.714203
0.714218
0.714233
0.714248
0.714264
0.714281
0.714297
0.714315
0.714332
0.714351
0.71437
0.714389
0.71441
0.71443
0.714452
0.714473
0.714495
0.714518
0.71454
0.714563
0.714585
0.714607
0.714629
0.714651
0.714671
0.714691
0.71471
0.714727
0.714744
0.714759
0.714773
0.714785
0.714795
0.714805
0.714812
0.714818
0.714823
0.714826
0.714829
0.71483
0.714829
0.714828
0.714826
0.714824
0.71482
0.714816
0.714812
0.714807
0.714802
0.714797
0.714791
0.714785
0.714779
0.714772
0.714766
0.714759
0.714752
0.714745
0.714738
0.714731
0.714724
0.714718
0.714711
0.714704
0.714698
0.714692
0.714687
0.714682
0.714677
0.714673
0.71467
0.714667
0.714665
0.714664
0.714663
0.714662
0.714662
0.714662
0.714663
0.714663
0.714663
0.714664
0.714664
0.714664
0.714663
0.714662
0.71466
0.714658
0.714655
0.714651
0.714647
0.714642
0.714636
0.71463
0.714623
0.714616
0.714608
0.714599
0.71459
0.714581
0.714572
0.714562
0.714552
0.714542
0.714532
0.714522
0.714512
0.714502
0.714492
0.714482
0.714472
0.714462
0.714452
0.714442
0.714433
0.714423
0.714414
0.714404
0.714395
0.714385
0.714376
0.714367
0.714357
0.714348
0.714339
0.714329
0.71432
0.71431
0.714301
0.714291
0.712665
0.712636
0.712616
0.712602
0.712592
0.712584
0.712579
0.712575
0.712574
0.712575
0.712578
0.712583
0.712591
0.712601
0.712614
0.712628
0.712645
0.712664
0.712686
0.71271
0.712736
0.712765
0.712797
0.71283
0.712867
0.712905
0.712947
0.71299
0.713035
0.713083
0.713132
0.713182
0.713233
0.713285
0.713336
0.713387
0.713437
0.713485
0.713532
0.713577
0.713619
0.713659
0.713696
0.71373
0.713761
0.713789
0.713815
0.713838
0.713859
0.713879
0.713898
0.713916
0.713934
0.713951
0.713968
0.713984
0.714
0.714015
0.71403
0.714045
0.714059
0.714073
0.714087
0.714101
0.714115
0.714129
0.714143
0.714158
0.714172
0.714186
0.714201
0.714216
0.714232
0.714247
0.714263
0.71428
0.714297
0.714314
0.714332
0.714351
0.71437
0.71439
0.71441
0.714431
0.714453
0.714475
0.714497
0.71452
0.714543
0.714566
0.714589
0.714612
0.714634
0.714656
0.714677
0.714698
0.714717
0.714736
0.714753
0.714769
0.714783
0.714796
0.714807
0.714817
0.714825
0.714832
0.714837
0.714841
0.714843
0.714844
0.714844
0.714843
0.714841
0.714838
0.714834
0.714829
0.714824
0.714819
0.714813
0.714806
0.7148
0.714793
0.714785
0.714778
0.71477
0.714762
0.714754
0.714746
0.714739
0.714731
0.714723
0.714715
0.714708
0.714701
0.714694
0.714688
0.714682
0.714677
0.714673
0.714669
0.714666
0.714663
0.714662
0.71466
0.71466
0.714659
0.71466
0.71466
0.714661
0.714662
0.714662
0.714663
0.714664
0.714664
0.714663
0.714663
0.714661
0.714659
0.714656
0.714653
0.714649
0.714644
0.714638
0.714632
0.714625
0.714617
0.714609
0.7146
0.714591
0.714582
0.714572
0.714563
0.714553
0.714542
0.714532
0.714522
0.714512
0.714502
0.714491
0.714481
0.714471
0.714461
0.714452
0.714442
0.714432
0.714423
0.714413
0.714404
0.714395
0.714385
0.714376
0.714367
0.714357
0.714348
0.714338
0.714329
0.71432
0.71431
0.714301
0.714291
0.712708
0.712679
0.712656
0.712637
0.712622
0.712611
0.712602
0.712595
0.712592
0.712591
0.712593
0.712598
0.712606
0.712616
0.712629
0.712644
0.712662
0.712683
0.712706
0.712731
0.712759
0.71279
0.712823
0.712858
0.712896
0.712937
0.712979
0.713023
0.71307
0.713117
0.713166
0.713216
0.713266
0.713316
0.713365
0.713414
0.71346
0.713505
0.713548
0.713588
0.713626
0.713661
0.713693
0.713723
0.713751
0.713778
0.713803
0.713827
0.71385
0.713872
0.713893
0.713913
0.713932
0.713949
0.713966
0.713982
0.713998
0.714013
0.714028
0.714043
0.714057
0.714072
0.714086
0.7141
0.714114
0.714129
0.714143
0.714157
0.714172
0.714187
0.714202
0.714217
0.714232
0.714248
0.714264
0.714281
0.714298
0.714316
0.714334
0.714353
0.714372
0.714392
0.714413
0.714434
0.714456
0.714478
0.714501
0.714524
0.714547
0.71457
0.714593
0.714617
0.714639
0.714661
0.714683
0.714704
0.714723
0.714742
0.714759
0.714775
0.71479
0.714803
0.714815
0.714825
0.714833
0.71484
0.714845
0.714849
0.714851
0.714852
0.714852
0.71485
0.714848
0.714845
0.71484
0.714836
0.71483
0.714824
0.714817
0.71481
0.714803
0.714795
0.714787
0.714779
0.714771
0.714763
0.714754
0.714746
0.714738
0.714729
0.714721
0.714714
0.714706
0.714699
0.714693
0.714686
0.714681
0.714676
0.714672
0.714668
0.714665
0.714662
0.714661
0.71466
0.714659
0.714659
0.714659
0.71466
0.714661
0.714662
0.714663
0.714663
0.714664
0.714664
0.714664
0.714663
0.714662
0.71466
0.714657
0.714654
0.714649
0.714644
0.714639
0.714632
0.714625
0.714618
0.71461
0.714601
0.714592
0.714582
0.714573
0.714563
0.714553
0.714542
0.714532
0.714522
0.714512
0.714501
0.714491
0.714481
0.714471
0.714461
0.714452
0.714442
0.714432
0.714423
0.714413
0.714404
0.714395
0.714385
0.714376
0.714367
0.714357
0.714348
0.714338
0.714329
0.71432
0.71431
0.7143
0.714291
0.712733
0.712703
0.712678
0.712657
0.712639
0.712624
0.712613
0.712605
0.7126
0.712599
0.712601
0.712605
0.712613
0.712624
0.712637
0.712653
0.712671
0.712692
0.712716
0.712742
0.712771
0.712802
0.712836
0.712872
0.71291
0.712951
0.712993
0.713038
0.713083
0.71313
0.713178
0.713226
0.713274
0.713322
0.713368
0.713413
0.713457
0.713499
0.71354
0.713579
0.713617
0.713653
0.713687
0.713719
0.713749
0.713777
0.713803
0.713827
0.71385
0.713871
0.713891
0.71391
0.713929
0.713947
0.713964
0.71398
0.713996
0.714012
0.714027
0.714042
0.714057
0.714072
0.714086
0.7141
0.714114
0.714129
0.714143
0.714158
0.714172
0.714187
0.714202
0.714217
0.714233
0.714249
0.714265
0.714282
0.714299
0.714317
0.714335
0.714354
0.714374
0.714394
0.714415
0.714436
0.714458
0.71448
0.714503
0.714526
0.71455
0.714573
0.714596
0.714619
0.714642
0.714664
0.714686
0.714707
0.714727
0.714745
0.714763
0.714779
0.714793
0.714806
0.714818
0.714828
0.714836
0.714843
0.714848
0.714852
0.714854
0.714855
0.714854
0.714853
0.71485
0.714847
0.714842
0.714837
0.714831
0.714825
0.714818
0.714811
0.714803
0.714795
0.714787
0.714779
0.714771
0.714762
0.714754
0.714745
0.714737
0.714729
0.714721
0.714713
0.714706
0.714699
0.714692
0.714686
0.714681
0.714676
0.714672
0.714668
0.714665
0.714663
0.714661
0.71466
0.714659
0.714659
0.71466
0.71466
0.714661
0.714662
0.714663
0.714664
0.714664
0.714665
0.714664
0.714664
0.714662
0.71466
0.714657
0.714654
0.714649
0.714644
0.714639
0.714632
0.714625
0.714618
0.714609
0.714601
0.714592
0.714582
0.714573
0.714563
0.714553
0.714542
0.714532
0.714522
0.714512
0.714501
0.714491
0.714481
0.714471
0.714461
0.714452
0.714442
0.714432
0.714423
0.714413
0.714404
0.714395
0.714385
0.714376
0.714367
0.714357
0.714348
0.714338
0.714329
0.71432
0.71431
0.7143
0.714291
0.712739
0.712708
0.71268
0.712657
0.712637
0.712621
0.712609
0.712601
0.712596
0.712594
0.712596
0.712601
0.712609
0.712619
0.712632
0.712648
0.712667
0.712688
0.712711
0.712738
0.712766
0.712797
0.71283
0.712866
0.712904
0.712943
0.712985
0.713029
0.713074
0.71312
0.713167
0.713215
0.713263
0.713311
0.713358
0.713404
0.713449
0.713492
0.713534
0.713574
0.713613
0.713649
0.713683
0.713714
0.713744
0.713772
0.713798
0.713822
0.713846
0.713868
0.713889
0.713909
0.713928
0.713946
0.713963
0.71398
0.713996
0.714012
0.714027
0.714042
0.714057
0.714071
0.714086
0.7141
0.714114
0.714129
0.714143
0.714158
0.714172
0.714187
0.714202
0.714218
0.714233
0.714249
0.714266
0.714283
0.7143
0.714318
0.714337
0.714356
0.714376
0.714396
0.714417
0.714439
0.714461
0.714484
0.714507
0.71453
0.714553
0.714577
0.7146
0.714623
0.714646
0.714669
0.71469
0.714711
0.714731
0.714749
0.714767
0.714783
0.714797
0.71481
0.714821
0.714831
0.714839
0.714846
0.714851
0.714854
0.714856
0.714856
0.714856
0.714854
0.714851
0.714847
0.714842
0.714837
0.714831
0.714824
0.714817
0.71481
0.714802
0.714794
0.714786
0.714777
0.714769
0.714761
0.714752
0.714744
0.714736
0.714728
0.71472
0.714712
0.714705
0.714698
0.714692
0.714686
0.714681
0.714676
0.714672
0.714668
0.714666
0.714663
0.714662
0.714661
0.714661
0.714661
0.714661
0.714662
0.714663
0.714663
0.714664
0.714665
0.714665
0.714666
0.714665
0.714664
0.714663
0.714661
0.714658
0.714654
0.71465
0.714645
0.714639
0.714632
0.714625
0.714618
0.714609
0.714601
0.714592
0.714582
0.714572
0.714563
0.714552
0.714542
0.714532
0.714522
0.714512
0.714501
0.714491
0.714481
0.714471
0.714461
0.714452
0.714442
0.714432
0.714423
0.714413
0.714404
0.714395
0.714385
0.714376
0.714367
0.714357
0.714348
0.714338
0.714329
0.71432
0.71431
0.7143
0.714291
)
;

boundaryField
{
    inlet
    {
        type            zeroGradient;
    }
    outlet
    {