/*--------------------------------*- C++ -*----------------------------------*\
| =========                 |                                                 |
| \\      /  F ield         | OpenFOAM: The Open Source CFD Toolbox           |
|  \\    /   O peration     | Version:  4.1                                   |
|   \\  /    A nd           | Web:      www.OpenFOAM.org                      |
|    \\/     M anipulation  |                                                 |
\*---------------------------------------------------------------------------*/
FoamFile
{
    version     2.0;
    format      ascii;
    class       volVectorField;
    location    "562";
    object      U;
}
// * * * * * * * * * * * * * * * * * * * * * * * * * * * * * * * * * * * * * //

dimensions      [0 1 -1 0 0 0 0];

internalField   nonuniform List<vector> 
3264
(
(-2.64041e-06 -4.96789e-07 0)
(-0.000133131 3.0549e-05 0)
(-0.000389766 4.86529e-05 0)
(-0.000677092 5.09903e-05 0)
(-0.000979157 5.27162e-05 0)
(-0.00128535 5.21222e-05 0)
(-0.00159035 5.34247e-05 0)
(-0.00189553 5.40716e-05 0)
(-0.00219632 5.51813e-05 0)
(-0.00249344 5.58157e-05 0)
(-0.00278435 5.63859e-05 0)
(-0.00306928 5.66486e-05 0)
(-0.00334719 5.6768e-05 0)
(-0.0036182 5.67081e-05 0)
(-0.00388204 5.6545e-05 0)
(-0.00413888 5.62944e-05 0)
(-0.00438878 5.59993e-05 0)
(-0.00463197 5.56833e-05 0)
(-0.00486864 5.53746e-05 0)
(-0.00509908 5.50944e-05 0)
(-0.00532353 5.48635e-05 0)
(-0.00554226 5.46987e-05 0)
(-0.00575554 5.4615e-05 0)
(-0.00596357 5.46238e-05 0)
(-0.00616654 5.47333e-05 0)
(-0.00636458 5.49471e-05 0)
(-0.00655773 5.52637e-05 0)
(-0.00674594 5.5675e-05 0)
(-0.00692906 5.61656e-05 0)
(-0.00710676 5.67115e-05 0)
(-0.00727861 5.7279e-05 0)
(-0.00744395 5.78243e-05 0)
(-0.00760197 5.82931e-05 0)
(-0.00775164 5.86206e-05 0)
(-0.0078917 5.87324e-05 0)
(-0.00802072 5.85458e-05 0)
(-0.00813701 5.7972e-05 0)
(-0.00823873 5.69186e-05 0)
(-0.00832385 5.52932e-05 0)
(-0.00839018 5.30068e-05 0)
(-0.00843545 4.99779e-05 0)
(-0.00845732 4.61366e-05 0)
(-0.00845342 4.14281e-05 0)
(-0.00842144 3.58162e-05 0)
(-0.00835915 2.92861e-05 0)
(-0.00826448 2.18463e-05 0)
(-0.00813557 1.35297e-05 0)
(-0.0079708 4.39389e-06 0)
(-0.00776889 -5.47943e-06 0)
(-0.0075289 -1.5986e-05 0)
(-0.00725025 -2.70012e-05 0)
(-0.00693281 -3.83826e-05 0)
(-0.00657688 -4.99738e-05 0)
(-0.0061832 -6.16075e-05 0)
(-0.00575295 -7.311e-05 0)
(-0.00528779 -8.43049e-05 0)
(-0.00478978 -9.50175e-05 0)
(-0.00426142 -0.000105079 0)
(-0.00370557 -0.000114329 0)
(-0.00312546 -0.000122623 0)
(-0.00252462 -0.000129831 0)
(-0.00190684 -0.000135843 0)
(-0.00127611 -0.000140573 0)
(-0.000636598 -0.000143957 0)
(7.46268e-06 -0.00014596 0)
(0.00065179 -0.000146572 0)
(0.00129214 -0.000145809 0)
(0.00192435 -0.000143715 0)
(0.00254441 -0.00014036 0)
(0.00314855 -0.000135835 0)
(0.00373321 -0.000130253 0)
(0.00429518 -0.000123743 0)
(0.0048316 -0.000116449 0)
(0.00533996 -0.000108523 0)
(0.00581821 -0.000100123 0)
(0.00626467 -9.14055e-05 0)
(0.00667814 -8.25267e-05 0)
(0.00705782 -7.36329e-05 0)
(0.00740335 -6.48602e-05 0)
(0.00771474 -5.63307e-05 0)
(0.00799239 -4.81502e-05 0)
(0.00823704 -4.04071e-05 0)
(0.00844973 -3.31715e-05 0)
(0.00863176 -2.64948e-05 0)
(0.00878463 -2.0411e-05 0)
(0.00891005 -1.49372e-05 0)
(0.00900982 -1.00757e-05 0)
(0.00908586 -5.81587e-06 0)
(0.00914014 -2.13605e-06 0)
(0.00917462 9.93867e-07 0)
(0.00919126 3.61042e-06 0)
(0.00919199 5.75449e-06 0)
(0.00917867 7.46945e-06 0)
(0.00915305 8.79952e-06 0)
(0.00911682 9.78844e-06 0)
(0.00907155 1.04784e-05 0)
(0.00901869 1.09094e-05 0)
(0.00895959 1.11184e-05 0)
(0.00889547 1.11394e-05 0)
(0.00882743 1.10029e-05 0)
(0.00875649 1.07363e-05 0)
(0.00868351 1.03637e-05 0)
(0.0086093 9.90621e-06 0)
(0.00853455 9.38229e-06 0)
(0.00845986 8.8078e-06 0)
(0.00838574 8.19643e-06 0)
(0.00831266 7.55985e-06 0)
(0.00824098 6.90802e-06 0)
(0.00817102 6.24936e-06 0)
(0.00810305 5.59098e-06 0)
(0.00803728 4.93883e-06 0)
(0.00797387 4.29786e-06 0)
(0.00791296 3.67216e-06 0)
(0.00785463 3.06503e-06 0)
(0.00779897 2.47914e-06 0)
(0.00774601 1.91656e-06 0)
(0.00769577 1.37887e-06 0)
(0.00764825 8.6717e-07 0)
(0.00760344 3.82219e-07 0)
(0.00756131 -7.55856e-08 0)
(0.00752183 -5.06134e-07 0)
(0.00748494 -9.09566e-07 0)
(0.00745061 -1.28624e-06 0)
(0.00741876 -1.6367e-06 0)
(0.00738935 -1.96165e-06 0)
(0.0073623 -2.26191e-06 0)
(0.00733756 -2.53842e-06 0)
(0.00731506 -2.79221e-06 0)
(0.00729473 -3.02436e-06 0)
(0.00727652 -3.23601e-06 0)
(0.00726036 -3.42836e-06 0)
(0.00724618 -3.60261e-06 0)
(0.00723394 -3.75999e-06 0)
(0.00722359 -3.90173e-06 0)
(0.00721505 -4.02905e-06 0)
(0.0072083 -4.14319e-06 0)
(0.00720328 -4.24533e-06 0)
(0.00719994 -4.33666e-06 0)
(0.00719825 -4.41834e-06 0)
(0.00719818 -4.49148e-06 0)
(0.00719968 -4.55719e-06 0)
(0.00720272 -4.6165e-06 0)
(0.00720728 -4.67043e-06 0)
(0.00721333 -4.71995e-06 0)
(0.00722085 -4.76598e-06 0)
(0.00722981 -4.80938e-06 0)
(0.0072402 -4.85098e-06 0)
(0.00725199 -4.89156e-06 0)
(0.00726519 -4.93183e-06 0)
(0.00727976 -4.97245e-06 0)
(0.0072957 -5.01405e-06 0)
(0.007313 -5.05718e-06 0)
(0.00733165 -5.10233e-06 0)
(0.00735164 -5.14996e-06 0)
(0.00737296 -5.20044e-06 0)
(0.0073956 -5.25411e-06 0)
(0.00741956 -5.31122e-06 0)
(0.00744482 -5.37199e-06 0)
(0.00747139 -5.43656e-06 0)
(0.00749924 -5.50501e-06 0)
(0.00752837 -5.57736e-06 0)
(0.00755876 -5.65357e-06 0)
(0.0075904 -5.73351e-06 0)
(0.00762327 -5.817e-06 0)
(0.00765736 -5.90381e-06 0)
(0.00769264 -5.99362e-06 0)
(0.00772908 -6.08604e-06 0)
(0.00776666 -6.18063e-06 0)
(0.00780534 -6.27689e-06 0)
(0.00784509 -6.37425e-06 0)
(0.00788585 -6.47208e-06 0)
(0.00792759 -6.56972e-06 0)
(0.00797025 -6.66646e-06 0)
(0.00801377 -6.76157e-06 0)
(0.00805809 -6.85429e-06 0)
(0.00810314 -6.94387e-06 0)
(0.00814885 -7.02954e-06 0)
(0.00819513 -7.11061e-06 0)
(0.00824191 -7.18639e-06 0)
(0.00828909 -7.2563e-06 0)
(0.00833658 -7.31981e-06 0)
(0.00838428 -7.37653e-06 0)
(0.0084321 -7.42621e-06 0)
(0.00847992 -7.46875e-06 0)
(0.00852766 -7.50424e-06 0)
(0.00857521 -7.53302e-06 0)
(0.00862247 -7.55578e-06 0)
(0.00866933 -7.57337e-06 0)
(0.00871572 -7.58822e-06 0)
(0.00876154 -7.60068e-06 0)
(0.00880672 -7.62302e-06 0)
(0.00885123 -7.63936e-06 0)
(0.00889494 -7.73276e-06 0)
(0.00893818 -7.74168e-06 0)
(0.00898003 -8.17663e-06 0)
(0.00902378 -8.11037e-06 0)
(0.00906114 -9.57794e-06 0)
(0.00911531 -1.05647e-05 0)
(0.00913679 -1.11845e-05 0)
(0.0092302 -2.94074e-05 0)
(-8.33885e-05 0.000136344 0)
(-0.000583152 0.00037924 0)
(-0.00131197 0.000518428 0)
(-0.00208714 0.000562666 0)
(-0.00286763 0.000583826 0)
(-0.00363662 0.000585771 0)
(-0.00438083 0.000585992 0)
(-0.0051032 0.000579631 0)
(-0.0057966 0.000571095 0)
(-0.00646328 0.000559388 0)
(-0.00710062 0.000546312 0)
(-0.00771013 0.000532068 0)
(-0.00829156 0.000517396 0)
(-0.00884612 0.000502549 0)
(-0.00937445 0.000487828 0)
(-0.00987761 0.000473383 0)
(-0.0103564 0.000459338 0)
(-0.0108118 0.00044576 0)
(-0.0112446 0.000432691 0)
(-0.0116553 0.000420141 0)
(-0.0120447 0.000408099 0)
(-0.0124132 0.000396529 0)
(-0.012761 0.000385369 0)
(-0.0130884 0.000374532 0)
(-0.0133952 0.000363898 0)
(-0.0136812 0.000353317 0)
(-0.0139459 0.000342606 0)
(-0.0141885 0.000331545 0)
(-0.0144081 0.000319878 0)
(-0.0146034 0.000307317 0)
(-0.0147728 0.000293543 0)
(-0.0149145 0.00027821 0)
(-0.0150263 0.000260956 0)
(-0.015106 0.00024141 0)
(-0.0151508 0.000219203 0)
(-0.0151581 0.000193979 0)
(-0.0151249 0.000165411 0)
(-0.015048 0.000133213 0)
(-0.0149246 9.71532e-05 0)
(-0.0147515 5.70641e-05 0)
(-0.0145258 1.28564e-05 0)
(-0.0142447 -3.54746e-05 0)
(-0.0139057 -8.78431e-05 0)
(-0.0135065 -0.000144069 0)
(-0.0130451 -0.000203879 0)
(-0.0125202 -0.000266905 0)
(-0.0119307 -0.000332697 0)
(-0.011276 -0.000400719 0)
(-0.0105561 -0.000470371 0)
(-0.00977151 -0.000540987 0)
(-0.00892343 -0.000611858 0)
(-0.00801349 -0.000682236 0)
(-0.00704395 -0.000751353 0)
(-0.0060176 -0.000818432 0)
(-0.00493781 -0.000882701 0)
(-0.00380844 -0.000943405 0)
(-0.00263386 -0.00099982 0)
(-0.00141889 -0.00105127 0)
(-0.000168741 -0.00109712 0)
(0.001111 -0.00113682 0)
(0.00241445 -0.00116987 0)
(0.00373546 -0.00119589 0)
(0.00506771 -0.00121456 0)
(0.00640476 -0.00122567 0)
(0.00774011 -0.00122911 0)
(0.00906727 -0.00122489 0)
(0.0103799 -0.00121309 0)
(0.0116716 -0.00119393 0)
(0.0129365 -0.00116773 0)
(0.0141689 -0.00113488 0)
(0.0153634 -0.00109587 0)
(0.0165149 -0.00105129 0)
(0.017619 -0.00100176 0)
(0.0186718 -0.000947972 0)
(0.0196697 -0.000890661 0)
(0.0206098 -0.000830576 0)
(0.0214899 -0.000768478 0)
(0.0223081 -0.000705119 0)
(0.0230633 -0.000641231 0)
(0.023755 -0.000577511 0)
(0.024383 -0.000514607 0)
(0.0249479 -0.000453114 0)
(0.0254506 -0.000393561 0)
(0.0258925 -0.000336404 0)
(0.0262755 -0.000282031 0)
(0.0266018 -0.00023075 0)
(0.0268737 -0.000182799 0)
(0.027094 -0.000138342 0)
(0.0272656 -9.74765e-05 0)
(0.0273916 -6.02391e-05 0)
(0.0274752 -2.66103e-05 0)
(0.0275196 3.47731e-06 0)
(0.027528 3.01322e-05 0)
(0.0275037 5.34965e-05 0)
(0.0274499 7.37386e-05 0)
(0.0273697 9.10465e-05 0)
(0.027266 0.000105622 0)
(0.0271418 0.000117673 0)
(0.0269996 0.000127413 0)
(0.0268422 0.000135052 0)
(0.0266719 0.000140796 0)
(0.0264909 0.000144845 0)
(0.0263013 0.000147387 0)
(0.026105 0.000148602 0)
(0.0259037 0.000148656 0)
(0.0256989 0.000147703 0)
(0.0254921 0.000145886 0)
(0.0252844 0.000143332 0)
(0.0250771 0.000140159 0)
(0.0248711 0.000136473 0)
(0.0246672 0.000132365 0)
(0.0244662 0.000127921 0)
(0.0242687 0.000123212 0)
(0.0240753 0.000118304 0)
(0.0238864 0.000113253 0)
(0.0237024 0.000108106 0)
(0.0235236 0.000102906 0)
(0.0233503 9.76878e-05 0)
(0.0231827 9.24805e-05 0)
(0.0230209 8.73093e-05 0)
(0.022865 8.21943e-05 0)
(0.0227152 7.71519e-05 0)
(0.0225715 7.21949e-05 0)
(0.0224339 6.73332e-05 0)
(0.0223024 6.25741e-05 0)
(0.022177 5.79224e-05 0)
(0.0220577 5.33812e-05 0)
(0.0219445 4.89517e-05 0)
(0.0218372 4.46338e-05 0)
(0.0217359 4.04263e-05 0)
(0.0216406 3.63269e-05 0)
(0.021551 3.23324e-05 0)
(0.0214673 2.84393e-05 0)
(0.0213893 2.46433e-05 0)
(0.021317 2.09398e-05 0)
(0.0212503 1.7324e-05 0)
(0.0211891 1.37909e-05 0)
(0.0211335 1.03353e-05 0)
(0.0210833 6.95231e-06 0)
(0.0210385 3.63668e-06 0)
(0.020999 3.83481e-07 0)
(0.0209648 -2.81215e-06 0)
(0.0209359 -5.95487e-06 0)
(0.0209122 -9.04914e-06 0)
(0.0208937 -1.20992e-05 0)
(0.0208803 -1.5109e-05 0)
(0.020872 -1.80821e-05 0)
(0.0208687 -2.1022e-05 0)
(0.0208704 -2.39316e-05 0)
(0.0208771 -2.68136e-05 0)
(0.0208887 -2.96702e-05 0)
(0.0209051 -3.25033e-05 0)
(0.0209264 -3.53142e-05 0)
(0.0209525 -3.81041e-05 0)
(0.0209834 -4.08733e-05 0)
(0.021019 -4.36217e-05 0)
(0.0210592 -4.6349e-05 0)
(0.021104 -4.90538e-05 0)
(0.0211534 -5.17346e-05 0)
(0.0212072 -5.4389e-05 0)
(0.0212655 -5.70141e-05 0)
(0.0213281 -5.96062e-05 0)
(0.021395 -6.21612e-05 0)
(0.0214661 -6.46739e-05 0)
(0.0215412 -6.71389e-05 0)
(0.0216204 -6.95498e-05 0)
(0.0217034 -7.18994e-05 0)
(0.0217902 -7.41802e-05 0)
(0.0218806 -7.63838e-05 0)
(0.0219745 -7.85012e-05 0)
(0.0220717 -8.0523e-05 0)
(0.0221721 -8.24394e-05 0)
(0.0222755 -8.42398e-05 0)
(0.0223816 -8.59139e-05 0)
(0.0224904 -8.74509e-05 0)
(0.0226015 -8.884e-05 0)
(0.0227148 -9.00708e-05 0)
(0.0228299 -9.11331e-05 0)
(0.0229467 -9.20173e-05 0)
(0.0230648 -9.27147e-05 0)
(0.0231841 -9.32175e-05 0)
(0.0233041 -9.35192e-05 0)
(0.0234246 -9.3615e-05 0)
(0.0235453 -9.35018e-05 0)
(0.0236659 -9.31785e-05 0)
(0.023786 -9.26467e-05 0)
(0.0239055 -9.19104e-05 0)
(0.0240238 -9.09771e-05 0)
(0.0241409 -8.98579e-05 0)
(0.0242563 -8.85683e-05 0)
(0.0243698 -8.71373e-05 0)
(0.0244812 -8.55686e-05 0)
(0.0245902 -8.40301e-05 0)
(0.0246966 -8.22009e-05 0)
(0.0248005 -8.1401e-05 0)
(0.0249016 -7.87762e-05 0)
(0.024999 -8.14336e-05 0)
(0.0251 -7.89438e-05 0)
(0.0251784 -8.12885e-05 0)
(0.0253108 -0.000112154 0)
(-0.000178953 0.000645252 0)
(-0.0010436 0.00125458 0)
(-0.00216903 0.00153381 0)
(-0.00330713 0.00157561 0)
(-0.00439652 0.00157127 0)
(-0.0054266 0.0015286 0)
(-0.00638172 0.00148572 0)
(-0.00727299 0.00143422 0)
(-0.00809704 0.00138197 0)
(-0.00886205 0.00132733 0)
(-0.00956941 0.00127285 0)
(-0.0102242 0.00121872 0)
(-0.0108291 0.00116578 0)
(-0.0113872 0.00111425 0)
(-0.011901 0.00106435 0)
(-0.0123727 0.00101611 0)
(-0.0128041 0.000969519 0)
(-0.0131967 0.000924472 0)
(-0.0135518 0.000880834 0)
(-0.0138702 0.000838424 0)
(-0.0141527 0.000797026 0)
(-0.0143997 0.000756384 0)
(-0.0146112 0.000716203 0)
(-0.0147872 0.000676144 0)
(-0.0149273 0.000635826 0)
(-0.0150308 0.000594822 0)
(-0.0150968 0.000552664 0)
(-0.0151243 0.000508839 0)
(-0.0151117 0.000462802 0)
(-0.0150575 0.000413982 0)
(-0.0149598 0.000361789 0)
(-0.0148167 0.000305634 0)
(-0.014626 0.000244942 0)
(-0.0143854 0.000179166 0)
(-0.0140926 0.000107811 0)
(-0.0137452 3.04502e-05 0)
(-0.013341 -5.32581e-05 0)
(-0.0128776 -0.000143552 0)
(-0.012353 -0.000240554 0)
(-0.0117653 -0.000344254 0)
(-0.0111127 -0.000454509 0)
(-0.010394 -0.00057103 0)
(-0.009608 -0.000693385 0)
(-0.0087541 -0.000821002 0)
(-0.00783202 -0.000953172 0)
(-0.00684192 -0.00108906 0)
(-0.00578443 -0.00122771 0)
(-0.00466065 -0.00136808 0)
(-0.00347218 -0.00150903 0)
(-0.00222109 -0.00164934 0)
(-0.000909951 -0.00178776 0)
(0.000458176 -0.001923 0)
(0.00187976 -0.00205376 0)
(0.00335083 -0.00217873 0)
(0.00486694 -0.00229664 0)
(0.00642327 -0.00240626 0)
(0.0080146 -0.00250643 0)
(0.00963539 -0.00259604 0)
(0.0112798 -0.0026741 0)
(0.0129416 -0.00273974 0)
(0.0146147 -0.00279221 0)
(0.0162924 -0.00283088 0)
(0.0179682 -0.00285531 0)
(0.0196356 -0.00286518 0)
(0.0212879 -0.00286039 0)
(0.0229188 -0.00284097 0)
(0.0245217 -0.00280715 0)
(0.0260908 -0.00275932 0)
(0.0276201 -0.00269807 0)
(0.0291041 -0.0026241 0)
(0.0305378 -0.00253831 0)
(0.0319166 -0.00244169 0)
(0.0332363 -0.00233538 0)
(0.0344932 -0.00222059 0)
(0.0356842 -0.00209861 0)
(0.0368068 -0.00197076 0)
(0.0378589 -0.00183841 0)
(0.0388392 -0.00170291 0)
(0.0397467 -0.00156558 0)
(0.0405811 -0.0014277 0)
(0.0413425 -0.00129049 0)
(0.0420316 -0.00115507 0)
(0.0426492 -0.00102248 0)
(0.043197 -0.000893645 0)
(0.0436767 -0.000769378 0)
(0.0440904 -0.000650372 0)
(0.0444406 -0.000537205 0)
(0.0447298 -0.000430334 0)
(0.044961 -0.000330103 0)
(0.045137 -0.000236746 0)
(0.0452611 -0.000150399 0)
(0.0453363 -7.11031e-05 0)
(0.045366 1.18299e-06 0)
(0.0453533 6.65742e-05 0)
(0.0453016 0.000125249 0)
(0.045214 0.000177438 0)
(0.0450937 0.000223417 0)
(0.0449437 0.000263495 0)
(0.0447672 0.000298008 0)
(0.0445668 0.000327309 0)
(0.0443455 0.000351761 0)
(0.0441057 0.000371733 0)
(0.04385 0.000387592 0)
(0.0435808 0.000399697 0)
(0.0433002 0.000408401 0)
(0.0430102 0.00041404 0)
(0.0427128 0.000416938 0)
(0.0424097 0.000417397 0)
(0.0421025 0.000415705 0)
(0.0417927 0.000412127 0)
(0.0414816 0.000406909 0)
(0.0411705 0.000400276 0)
(0.0408604 0.000392434 0)
(0.0405522 0.00038357 0)
(0.0402469 0.000373851 0)
(0.0399453 0.000363427 0)
(0.0396479 0.00035243 0)
(0.0393554 0.000340979 0)
(0.0390684 0.000329176 0)
(0.0387872 0.00031711 0)
(0.0385123 0.000304858 0)
(0.038244 0.000292486 0)
(0.0379826 0.000280048 0)
(0.0377283 0.000267591 0)
(0.0374814 0.000255154 0)
(0.037242 0.000242768 0)
(0.0370102 0.000230456 0)
(0.0367863 0.000218239 0)
(0.0365702 0.000206131 0)
(0.0363622 0.000194142 0)
(0.0361622 0.00018228 0)
(0.0359703 0.000170548 0)
(0.0357866 0.000158948 0)
(0.0356111 0.00014748 0)
(0.0354439 0.000136143 0)
(0.035285 0.000124934 0)
(0.0351344 0.000113848 0)
(0.0349921 0.000102883 0)
(0.0348582 9.20323e-05 0)
(0.0347327 8.12921e-05 0)
(0.0346156 7.06573e-05 0)
(0.0345069 6.01233e-05 0)
(0.0344067 4.96856e-05 0)
(0.0343148 3.934e-05 0)
(0.0342313 2.90827e-05 0)
(0.0341563 1.89106e-05 0)
(0.0340896 8.82086e-06 0)
(0.0340314 -1.18863e-06 0)
(0.0339815 -1.11193e-05 0)
(0.0339399 -2.09721e-05 0)
(0.0339067 -3.07469e-05 0)
(0.0338817 -4.04431e-05 0)
(0.0338649 -5.00591e-05 0)
(0.0338564 -5.95925e-05 0)
(0.0338559 -6.90397e-05 0)
(0.0338635 -7.83966e-05 0)
(0.0338791 -8.76576e-05 0)
(0.0339026 -9.68161e-05 0)
(0.0339339 -0.000105864 0)
(0.0339729 -0.000114793 0)
(0.0340195 -0.000123593 0)
(0.0340735 -0.000132251 0)
(0.0341349 -0.000140755 0)
(0.0342035 -0.00014909 0)
(0.0342791 -0.000157241 0)
(0.0343616 -0.000165189 0)
(0.0344508 -0.000172916 0)
(0.0345465 -0.000180401 0)
(0.0346484 -0.000187623 0)
(0.0347563 -0.000194558 0)
(0.0348701 -0.000201182 0)
(0.0349894 -0.00020747 0)
(0.035114 -0.000213396 0)
(0.0352435 -0.000218932 0)
(0.0353778 -0.000224051 0)
(0.0355163 -0.000228726 0)
(0.0356588 -0.00023293 0)
(0.035805 -0.000236637 0)
(0.0359544 -0.000239821 0)
(0.0361067 -0.000242458 0)
(0.0362615 -0.000244528 0)
(0.0364183 -0.000246012 0)
(0.0365767 -0.000246894 0)
(0.0367363 -0.000247163 0)
(0.0368966 -0.000246811 0)
(0.0370572 -0.000245838 0)
(0.0372176 -0.000244246 0)
(0.0373774 -0.000242048 0)
(0.0375362 -0.000239259 0)
(0.0376934 -0.00023591 0)
(0.0378487 -0.000232031 0)
(0.0380017 -0.000227688 0)
(0.0381519 -0.000222941 0)
(0.0382991 -0.000217829 0)
(0.0384428 -0.000212933 0)
(0.0385823 -0.000206852 0)
(0.0387187 -0.00020476 0)
(0.0388493 -0.000196886 0)
(0.0389711 -0.000198111 0)
(0.0391187 -0.000214862 0)
(-0.00030573 0.00126203 0)
(-0.00151712 0.00231598 0)
(-0.00287163 0.00272456 0)
(-0.00413934 0.00273504 0)
(-0.0052389 0.00266355 0)
(-0.00621946 0.00253492 0)
(-0.00706715 0.00240669 0)
(-0.00781557 0.00227243 0)
(-0.00846616 0.00214312 0)
(-0.00903562 0.00201729 0)
(-0.00952912 0.00189725 0)
(-0.00995555 0.00178258 0)
(-0.0103196 0.0016734 0)
(-0.0106265 0.00156925 0)
(-0.0108797 0.00146973 0)
(-0.0110823 0.00137431 0)
(-0.0112366 0.00128249 0)
(-0.0113445 0.00119375 0)
(-0.0114073 0.00110756 0)
(-0.0114259 0.0010234 0)
(-0.011401 0.000940729 0)
(-0.0113328 0.00085899 0)
(-0.0112213 0.000777608 0)
(-0.0110663 0.000695983 0)
(-0.0108672 0.000613486 0)
(-0.0106231 0.00052946 0)
(-0.0103333 0.000443223 0)
(-0.00999654 0.00035407 0)
(-0.00961154 0.000261287 0)
(-0.00917692 0.000164155 0)
(-0.00869119 6.19718e-05 0)
(-0.00815282 -4.59378e-05 0)
(-0.00756024 -0.000160201 0)
(-0.0069119 -0.000281377 0)
(-0.00620632 -0.000409938 0)
(-0.0054421 -0.000546252 0)
(-0.00461799 -0.00069056 0)
(-0.00373288 -0.000842962 0)
(-0.0027859 -0.0010034 0)
(-0.00177641 -0.00117167 0)
(-0.00070405 -0.00134737 0)
(0.000431253 -0.00152994 0)
(0.00162923 -0.00171864 0)
(0.00288926 -0.00191258 0)
(0.00421037 -0.00211069 0)
(0.00559118 -0.00231175 0)
(0.00702993 -0.00251444 0)
(0.00852447 -0.00271728 0)
(0.0100722 -0.00291872 0)
(0.0116702 -0.00311712 0)
(0.013315 -0.0033108 0)
(0.0150028 -0.00349803 0)
(0.0167295 -0.00367707 0)
(0.0184906 -0.0038462 0)
(0.0202811 -0.00400375 0)
(0.0220958 -0.00414808 0)
(0.0239291 -0.00427765 0)
(0.0257754 -0.00439105 0)
(0.0276285 -0.00448697 0)
(0.0294822 -0.00456428 0)
(0.0313303 -0.00462201 0)
(0.0331663 -0.00465939 0)
(0.0349837 -0.00467587 0)
(0.0367763 -0.0046711 0)
(0.0385378 -0.004645 0)
(0.0402621 -0.00459772 0)
(0.0419432 -0.00452965 0)
(0.0435758 -0.00444144 0)
(0.0451546 -0.00433395 0)
(0.0466749 -0.0042083 0)
(0.0481325 -0.00406579 0)
(0.0495234 -0.00390792 0)
(0.0508447 -0.00373632 0)
(0.0520935 -0.00355278 0)
(0.0532678 -0.00335916 0)
(0.0543662 -0.00315737 0)
(0.0553877 -0.00294938 0)
(0.0563318 -0.0027371 0)
(0.0571988 -0.00252242 0)
(0.0579893 -0.00230717 0)
(0.0587042 -0.00209304 0)
(0.0593451 -0.00188164 0)
(0.0599137 -0.00167441 0)
(0.0604123 -0.00147265 0)
(0.060843 -0.00127751 0)
(0.0612086 -0.00108996 0)
(0.0615117 -0.000910813 0)
(0.0617553 -0.000740716 0)
(0.0619423 -0.000580169 0)
(0.0620758 -0.000429524 0)
(0.0621588 -0.000288997 0)
(0.0621944 -0.000158681 0)
(0.0621857 -3.85592e-05 0)
(0.0621356 7.14848e-05 0)
(0.0620471 0.000171651 0)
(0.0619232 0.000262213 0)
(0.0617666 0.000343503 0)
(0.06158 0.000415902 0)
(0.0613662 0.000479832 0)
(0.0611276 0.000535739 0)
(0.0608667 0.000584091 0)
(0.0605858 0.000625368 0)
(0.0602872 0.000660054 0)
(0.0599728 0.00068863 0)
(0.0596448 0.000711573 0)
(0.0593049 0.000729348 0)
(0.058955 0.000742405 0)
(0.0585968 0.000751177 0)
(0.0582316 0.000756076 0)
(0.0578611 0.000757494 0)
(0.0574865 0.000755798 0)
(0.0571091 0.000751333 0)
(0.0567299 0.000744419 0)
(0.0563502 0.000735352 0)
(0.0559708 0.000724402 0)
(0.0555926 0.000711818 0)
(0.0552164 0.000697826 0)
(0.054843 0.000682627 0)
(0.0544729 0.000666403 0)
(0.054107 0.000649317 0)
(0.0537455 0.000631512 0)
(0.0533892 0.000613113 0)
(0.0530384 0.000594229 0)
(0.0526935 0.000574956 0)
(0.0523549 0.000555375 0)
(0.0520229 0.000535554 0)
(0.0516978 0.000515551 0)
(0.05138 0.000495415 0)
(0.0510697 0.000475184 0)
(0.050767 0.000454891 0)
(0.0504723 0.000434561 0)
(0.0501858 0.000414215 0)
(0.0499075 0.000393867 0)
(0.0496378 0.00037353 0)
(0.0493768 0.000353212 0)
(0.0491247 0.000332918 0)
(0.0488816 0.000312654 0)
(0.0486476 0.000292422 0)
(0.048423 0.000272225 0)
(0.0482079 0.000252064 0)
(0.0480023 0.000231942 0)
(0.0478065 0.000211859 0)
(0.0476205 0.000191819 0)
(0.0474444 0.000171823 0)
(0.0472784 0.000151876 0)
(0.0471225 0.000131982 0)
(0.0469768 0.000112146 0)
(0.0468415 9.23738e-05 0)
(0.0467165 7.26732e-05 0)
(0.0466019 5.30523e-05 0)
(0.0464977 3.35207e-05 0)
(0.0464041 1.40888e-05 0)
(0.0463209 -5.23147e-06 0)
(0.0462482 -2.44271e-05 0)
(0.046186 -4.34837e-05 0)
(0.0461342 -6.23856e-05 0)
(0.0460928 -8.11158e-05 0)
(0.0460617 -9.96557e-05 0)
(0.0460409 -0.000117985 0)
(0.0460302 -0.000136083 0)
(0.0460296 -0.000153925 0)
(0.0460389 -0.000171487 0)
(0.046058 -0.000188742 0)
(0.0460867 -0.000205661 0)
(0.0461248 -0.000222213 0)
(0.0461722 -0.000238366 0)
(0.0462285 -0.000254086 0)
(0.0462937 -0.000269336 0)
(0.0463674 -0.000284079 0)
(0.0464494 -0.000298274 0)
(0.0465393 -0.000311881 0)
(0.0466369 -0.000324856 0)
(0.0467418 -0.000337156 0)
(0.0468537 -0.000348737 0)
(0.0469723 -0.000359553 0)
(0.0470971 -0.00036956 0)
(0.0472277 -0.000378713 0)
(0.0473638 -0.000386968 0)
(0.0475048 -0.000394286 0)
(0.0476504 -0.000400625 0)
(0.0478001 -0.00040595 0)
(0.0479534 -0.00041023 0)
(0.0481098 -0.000413436 0)
(0.0482689 -0.000415548 0)
(0.04843 -0.00041655 0)
(0.0485928 -0.000416435 0)
(0.0487567 -0.000415203 0)
(0.0489211 -0.000412864 0)
(0.0490857 -0.00040944 0)
(0.0492498 -0.000404959 0)
(0.0494131 -0.00039947 0)
(0.0495749 -0.000393023 0)
(0.0497348 -0.000385708 0)
(0.0498923 -0.000377599 0)
(0.050047 -0.000368917 0)
(0.0501983 -0.000359452 0)
(0.0503457 -0.000351176 0)
(0.0504873 -0.000339039 0)
(0.0506241 -0.000335916 0)
(0.0507696 -0.000331232 0)
(-0.000405156 0.00247011 0)
(-0.0017194 0.00379721 0)
(-0.00298767 0.00414234 0)
(-0.00405057 0.0038913 0)
(-0.0048272 0.00361851 0)
(-0.00542839 0.00331637 0)
(-0.00585101 0.00305282 0)
(-0.00615454 0.00280675 0)
(-0.00634811 0.00258321 0)
(-0.00645775 0.00237592 0)
(-0.00649181 0.0021837 0)
(-0.00646207 0.00200404 0)
(-0.00637416 0.00183528 0)
(-0.00623392 0.00167581 0)
(-0.0060448 0.00152424 0)
(-0.00580986 0.00137931 0)
(-0.00553108 0.00123989 0)
(-0.00520999 0.00110496 0)
(-0.00484757 0.000973561 0)
(-0.00444442 0.000844793 0)
(-0.00400077 0.000717796 0)
(-0.00351658 0.000591736 0)
(-0.00299156 0.000465789 0)
(-0.0024252 0.000339141 0)
(-0.00181681 0.000210975 0)
(-0.00116554 8.04738e-05 0)
(-0.000470448 -5.31767e-05 0)
(0.000269528 -0.000190785 0)
(0.0010555 -0.000333145 0)
(0.0018886 -0.000481022 0)
(0.00276998 -0.000635142 0)
(0.00370075 -0.00079617 0)
(0.00468195 -0.000964699 0)
(0.00571455 -0.00114122 0)
(0.00679937 -0.00132612 0)
(0.00793709 -0.00151965 0)
(0.00912822 -0.0017219 0)
(0.0103731 -0.00193281 0)
(0.0116717 -0.00215213 0)
(0.0130239 -0.00237944 0)
(0.0144292 -0.00261411 0)
(0.0158869 -0.00285533 0)
(0.0173959 -0.00310209 0)
(0.0189549 -0.00335321 0)
(0.0205622 -0.00360731 0)
(0.0222156 -0.00386288 0)
(0.0239128 -0.00411823 0)
(0.0256511 -0.00437157 0)
(0.0274273 -0.00462097 0)
(0.0292379 -0.00486443 0)
(0.0310791 -0.00509991 0)
(0.0329467 -0.00532528 0)
(0.0348361 -0.00553845 0)
(0.0367425 -0.00573731 0)
(0.0386608 -0.00591983 0)
(0.0405854 -0.00608404 0)
(0.0425107 -0.00622806 0)
(0.0444308 -0.0063502 0)
(0.0463396 -0.00644887 0)
(0.0482309 -0.00652274 0)
(0.0500985 -0.00657068 0)
(0.0519362 -0.00659179 0)
(0.0537377 -0.00658549 0)
(0.0554972 -0.00655145 0)
(0.0572088 -0.00648969 0)
(0.0588671 -0.00640051 0)
(0.0604668 -0.00628457 0)
(0.0620033 -0.00614281 0)
(0.0634724 -0.0059765 0)
(0.0648705 -0.0057872 0)
(0.0661943 -0.00557671 0)
(0.0674415 -0.00534709 0)
(0.0686102 -0.00510057 0)
(0.069699 -0.00483953 0)
(0.0707075 -0.00456647 0)
(0.0716355 -0.00428393 0)
(0.0724836 -0.00399446 0)
(0.0732529 -0.00370057 0)
(0.0739447 -0.0034047 0)
(0.0745611 -0.00310917 0)
(0.0751043 -0.00281615 0)
(0.0755769 -0.00252764 0)
(0.0759816 -0.00224546 0)
(0.0763214 -0.00197119 0)
(0.0765994 -0.00170622 0)
(0.0768188 -0.00145172 0)
(0.0769828 -0.00120866 0)
(0.0770947 -0.000977785 0)
(0.0771576 -0.000759659 0)
(0.0771746 -0.000554664 0)
(0.0771489 -0.000363013 0)
(0.0770834 -0.000184774 0)
(0.076981 -1.98809e-05 0)
(0.0768444 0.000131849 0)
(0.0766764 0.000270697 0)
(0.0764794 0.000397028 0)
(0.0762559 0.000511274 0)
(0.0760081 0.000613925 0)
(0.0757382 0.00070551 0)
(0.0754484 0.000786593 0)
(0.0751405 0.000857754 0)
(0.0748163 0.00091959 0)
(0.0744777 0.000972698 0)
(0.0741262 0.00101767 0)
(0.0737633 0.00105511 0)
(0.0733906 0.00108557 0)
(0.0730093 0.00110962 0)
(0.0726208 0.00112779 0)
(0.0722261 0.00114061 0)
(0.0718264 0.00114854 0)
(0.0714228 0.00115207 0)
(0.0710162 0.00115162 0)
(0.0706074 0.00114759 0)
(0.0701973 0.00114037 0)
(0.0697867 0.00113031 0)
(0.0693763 0.00111772 0)
(0.0689667 0.0011029 0)
(0.0685585 0.00108613 0)
(0.0681523 0.00106763 0)
(0.0677487 0.00104764 0)
(0.0673481 0.00102633 0)
(0.0669509 0.0010039 0)
(0.0665576 0.000980486 0)
(0.0661685 0.000956226 0)
(0.0657841 0.000931235 0)
(0.0654046 0.000905615 0)
(0.0650304 0.000879451 0)
(0.0646618 0.000852814 0)
(0.0642991 0.000825766 0)
(0.0639425 0.000798357 0)
(0.0635923 0.000770629 0)
(0.0632488 0.000742615 0)
(0.0629123 0.000714342 0)
(0.0625829 0.000685832 0)
(0.0622609 0.000657103 0)
(0.0619466 0.000628168 0)
(0.0616402 0.000599039 0)
(0.0613419 0.000569727 0)
(0.0610519 0.000540239 0)
(0.0607706 0.000510584 0)
(0.060498 0.000480771 0)
(0.0602345 0.000450809 0)
(0.0599802 0.000420708 0)
(0.0597353 0.000390479 0)
(0.0595001 0.000360135 0)
(0.0592747 0.00032969 0)
(0.0590593 0.000299162 0)
(0.0588542 0.000268567 0)
(0.0586593 0.000237927 0)
(0.058475 0.000207263 0)
(0.0583014 0.0001766 0)
(0.0581385 0.000145964 0)
(0.0579864 0.000115384 0)
(0.0578453 8.48882e-05 0)
(0.0577153 5.45101e-05 0)
(0.0575963 2.42834e-05 0)
(0.0574884 -5.7562e-06 0)
(0.0573916 -3.55708e-05 0)
(0.057306 -6.51208e-05 0)
(0.0572314 -9.43646e-05 0)
(0.0571678 -0.000123259 0)
(0.0571152 -0.000151758 0)
(0.0570734 -0.000179815 0)
(0.0570424 -0.00020738 0)
(0.0570219 -0.000234402 0)
(0.0570118 -0.000260827 0)
(0.057012 -0.000286602 0)
(0.0570222 -0.000311668 0)
(0.0570421 -0.000335967 0)
(0.0570716 -0.000359439 0)
(0.0571103 -0.000382021 0)
(0.0571579 -0.000403652 0)
(0.0572141 -0.000424268 0)
(0.0572786 -0.000443803 0)
(0.057351 -0.000462195 0)
(0.0574309 -0.00047938 0)
(0.0575179 -0.000495296 0)
(0.0576117 -0.000509881 0)
(0.0577117 -0.000523077 0)
(0.0578175 -0.000534831 0)
(0.0579286 -0.000545091 0)
(0.0580447 -0.000553814 0)
(0.0581651 -0.00056096 0)
(0.0582895 -0.000566498 0)
(0.0584173 -0.000570406 0)
(0.0585479 -0.00057267 0)
(0.058681 -0.000573289 0)
(0.058816 -0.000572271 0)
(0.0589523 -0.000569637 0)
(0.0590895 -0.000565423 0)
(0.0592272 -0.000559676 0)
(0.0593648 -0.000552454 0)
(0.0595018 -0.000543842 0)
(0.0596377 -0.000533893 0)
(0.0597722 -0.000522777 0)
(0.0599045 -0.000510435 0)
(0.0600341 -0.000497488 0)
(0.0601597 -0.000481707 0)
(0.0602822 -0.000472185 0)
(0.0604047 -0.000446235 0)
(-0.00069377 0.00309452 0)
(-0.00209201 0.00472305 0)
(-0.00255455 0.00495224 0)
(-0.00279203 0.00450522 0)
(-0.00262616 0.00403281 0)
(-0.00237611 0.00356605 0)
(-0.00197993 0.00316193 0)
(-0.00152192 0.0028037 0)
(-0.000993156 0.00248688 0)
(-0.000418995 0.00220284 0)
(0.000198856 0.00194498 0)
(0.000851352 0.00170847 0)
(0.00153619 0.00148896 0)
(0.00224982 0.00128337 0)
(0.00299088 0.00108895 0)
(0.00375805 0.000903582 0)
(0.00455088 0.000725397 0)
(0.00536912 0.000552828 0)
(0.00621293 0.000384469 0)
(0.00708269 0.000219074 0)
(0.007979 5.54879e-05 0)
(0.00890262 -0.000107359 0)
(0.00985444 -0.000270484 0)
(0.0108355 -0.000434859 0)
(0.0118468 -0.000601424 0)
(0.0128895 -0.000771085 0)
(0.0139648 -0.00094472 0)
(0.0150739 -0.00112317 0)
(0.016218 -0.00130725 0)
(0.017398 -0.00149769 0)
(0.0186152 -0.00169519 0)
(0.0198703 -0.00190034 0)
(0.0211644 -0.00211367 0)
(0.0224979 -0.00233557 0)
(0.0238716 -0.00256629 0)
(0.0252856 -0.00280596 0)
(0.0267401 -0.00305452 0)
(0.028235 -0.00331174 0)
(0.02977 -0.0035772 0)
(0.0313443 -0.00385027 0)
(0.0329572 -0.00413014 0)
(0.0346074 -0.00441576 0)
(0.0362934 -0.00470589 0)
(0.0380134 -0.0049991 0)
(0.0397653 -0.00529376 0)
(0.0415465 -0.00558804 0)
(0.0433543 -0.00587998 0)
(0.0451854 -0.00616747 0)
(0.0470364 -0.00644825 0)
(0.0489034 -0.00671999 0)
(0.0507821 -0.00698029 0)
(0.0526681 -0.00722668 0)
(0.0545566 -0.0074567 0)
(0.0564422 -0.0076679 0)
(0.0583198 -0.00785792 0)
(0.0601836 -0.00802444 0)
(0.0620277 -0.00816533 0)
(0.0638464 -0.00827859 0)
(0.0656334 -0.00836247 0)
(0.0673829 -0.00841543 0)
(0.0690888 -0.00843627 0)
(0.0707452 -0.00842405 0)
(0.0723467 -0.00837824 0)
(0.0738879 -0.00829865 0)
(0.0753639 -0.0081855 0)
(0.0767703 -0.00803939 0)
(0.0781033 -0.00786135 0)
(0.0793597 -0.0076528 0)
(0.0805367 -0.00741553 0)
(0.0816327 -0.00715168 0)
(0.0826464 -0.00686369 0)
(0.0835773 -0.00655428 0)
(0.0844257 -0.00622637 0)
(0.0851924 -0.00588301 0)
(0.0858791 -0.00552736 0)
(0.0864878 -0.0051626 0)
(0.0870209 -0.00479186 0)
(0.0874814 -0.00441819 0)
(0.0878727 -0.0040445 0)
(0.0881981 -0.00367352 0)
(0.0884613 -0.00330775 0)
(0.088666 -0.00294946 0)
(0.0888159 -0.00260065 0)
(0.0889149 -0.00226308 0)
(0.0889665 -0.0019382 0)
(0.0889743 -0.00162723 0)
(0.0889415 -0.00133112 0)
(0.0888715 -0.00105057 0)
(0.0887673 -0.000786074 0)
(0.0886317 -0.00053792 0)
(0.0884674 -0.000306209 0)
(0.0882769 -9.08792e-05 0)