/*--------------------------------*- C++ -*----------------------------------*\
| =========                 |                                                 |
| \\      /  F ield         | OpenFOAM: The Open Source CFD Toolbox           |
|  \\    /   O peration     | Version:  4.1                                   |
|   \\  /    A nd           | Web:      www.OpenFOAM.org                      |
|    \\/     M anipulation  |                                                 |
\*---------------------------------------------------------------------------*/
FoamFile
{
    version     2.0;
    format      ascii;
    class       volScalarField;
    location    "5010";
    object      p;
}
// * * * * * * * * * * * * * * * * * * * * * * * * * * * * * * * * * * * * * //

dimensions      [1 -1 -2 0 0 0 0];

internalField   nonuniform List<scalar> 
1275
(
0.711993
0.711993
0.711992
0.711993
0.711992
0.711992
0.711991
0.711991
0.71199
0.711991
0.71199
0.711991
0.71199
0.711991
0.711991
0.711991
0.711992
0.711992
0.711993
0.711994
0.711995
0.711996
0.711997
0.711999
0.712
0.712002
0.712004
0.712006
0.712008
0.71201
0.712013
0.712015
0.712018
0.712021
0.712024
0.712028
0.712031
0.712035
0.712038
0.712042
0.712046
0.712051
0.712055
0.71206
0.712064
0.712069
0.712074
0.71208
0.712085
0.712091
0.712097
0.712103
0.712109
0.712115
0.712122
0.712129
0.712136
0.712143
0.71215
0.712158
0.712166
0.712174
0.712183
0.712192
0.712201
0.71221
0.71222
0.71223
0.712241
0.712252
0.712264
0.712277
0.71229
0.712304
0.712318
0.712334
0.712351
0.712369
0.712388
0.712409
0.712431
0.712456
0.712482
0.71251
0.712541
0.712574
0.71261
0.712649
0.71269
0.712735
0.712781
0.712831
0.712883
0.712937
0.712993
0.71305
0.713108
0.713167
0.713225
0.713282
0.713339
0.713393
0.713444
0.713492
0.713537
0.713578
0.713614
0.713646
0.713674
0.713697
0.713715
0.71373
0.71374
0.713746
0.713748
0.713748
0.713744
0.713739
0.713731
0.713721
0.71371
0.713698
0.711992
0.711992
0.711992
0.711992
0.711991
0.711992
0.711991
0.711992
0.711991
0.711991
0.711991
0.711991
0.711991
0.711992
0.711992
0.711992
0.711993
0.711993
0.711994
0.711995
0.711996
0.711997
0.711998
0.712
0.712001
0.712003
0.712005
0.712007
0.712009
0.712011
0.712013
0.712016
0.712019
0.712022
0.712025
0.712028
0.712031
0.712035
0.712039
0.712043
0.712047
0.712051
0.712055
0.71206
0.712065
0.71207
0.712075
0.71208
0.712086
0.712091
0.712097
0.712103
0.712109
0.712116
0.712122
0.712129
0.712136
0.712144
0.712151
0.712159
0.712167
0.712175
0.712184
0.712192
0.712202
0.712211
0.712221
0.712231
0.712242
0.712254
0.712265
0.712278
0.712291
0.712305
0.712319
0.712335
0.712352
0.712369
0.712389
0.712409
0.712431
0.712455
0.712481
0.712509
0.71254
0.712572
0.712608
0.712646
0.712687
0.71273
0.712777
0.712826
0.712877
0.712931
0.712987
0.713044
0.713102
0.713161
0.713219
0.713277
0.713333
0.713387
0.713438
0.713487
0.713532
0.713572
0.713609
0.713641
0.713669
0.713692
0.713711
0.713725
0.713735
0.713741
0.713744
0.713743
0.71374
0.713734
0.713727
0.713717
0.713706
0.713694
0.711995
0.711995
0.711994
0.711994
0.711993
0.711993
0.711992
0.711992
0.711991
0.711991
0.711991
0.711991
0.711991
0.711991
0.711991
0.711992
0.711992
0.711993
0.711993
0.711994
0.711995
0.711997
0.711998
0.711999
0.712001
0.712002
0.712004
0.712006
0.712008
0.712011
0.712013
0.712016
0.712019
0.712022
0.712025
0.712028
0.712031
0.712035
0.712039
0.712043
0.712047
0.712051
0.712055
0.71206
0.712065
0.71207
0.712075
0.71208
0.712085
0.712091
0.712097
0.712103
0.712109
0.712116
0.712122
0.712129
0.712136
0.712143
0.712151
0.712159
0.712167
0.712175
0.712183
0.712192
0.712201
0.712211
0.712221
0.712231
0.712242
0.712253
0.712265
0.712277
0.71229
0.712304
0.712318
0.712334
0.71235
0.712368
0.712386
0.712407
0.712429
0.712452
0.712478
0.712506
0.712536
0.712568
0.712603
0.712641
0.712682
0.712725
0.712771
0.71282
0.712872
0.712926
0.712981
0.713039
0.713097
0.713155
0.713214
0.713271
0.713327
0.713382
0.713433
0.713482
0.713526
0.713567
0.713604
0.713636
0.713663
0.713686
0.713705
0.713719
0.713729
0.713735
0.713737
0.713737
0.713734
0.713728
0.71372
0.713711
0.7137
0.713688
0.711991
0.711991
0.71199
0.711992
0.71199
0.711992
0.711991
0.711992
0.711991
0.711992
0.711991
0.711992
0.711991
0.711992
0.711992
0.711992
0.711992
0.711993
0.711994
0.711995
0.711996
0.711997
0.711998
0.711999
0.712001
0.712002
0.712004
0.712006
0.712008
0.712011
0.712013
0.712016
0.712018
0.712021
0.712024
0.712028
0.712031
0.712035
0.712038
0.712042
0.712046
0.712051
0.712055
0.71206
0.712064
0.712069
0.712075
0.71208
0.712085
0.712091
0.712097
0.712103
0.712109
0.712116
0.712122
0.712129
0.712136
0.712143
0.712151
0.712159
0.712167
0.712175
0.712183
0.712192
0.712201
0.712211
0.712221
0.712231
0.712241
0.712253
0.712264
0.712276
0.712289
0.712303
0.712317
0.712332
0.712348
0.712366
0.712384
0.712404
0.712425
0.712449
0.712474
0.712501
0.71253
0.712562
0.712597
0.712635
0.712675
0.712718
0.712764
0.712813
0.712864
0.712918
0.712973
0.71303
0.713088
0.713146
0.713204
0.713262
0.713317
0.713371
0.713422
0.71347
0.713514
0.713554
0.71359
0.713621
0.713648
0.71367
0.713688
0.713702
0.713711
0.713717
0.713719
0.713719
0.713716
0.71371
0.713702
0.713693
0.713683
0.713672
0.711997
0.711996
0.711995
0.711995
0.711993
0.711993
0.711991
0.711992
0.71199
0.711991
0.71199
0.71199
0.71199
0.71199
0.71199
0.711991
0.711991
0.711992
0.711992
0.711993
0.711994
0.711996
0.711997
0.711998
0.712
0.712002
0.712003
0.712005
0.712008
0.71201
0.712012
0.712015
0.712018
0.712021
0.712024
0.712027
0.71203
0.712034
0.712038
0.712042
0.712046
0.71205
0.712055
0.712059
0.712064
0.712069
0.712074
0.712079
0.712085
0.71209
0.712096
0.712102
0.712108
0.712115
0.712122
0.712128
0.712135
0.712143
0.71215
0.712158
0.712166
0.712174
0.712182
0.712191
0.7122
0.71221
0.712219
0.71223
0.71224
0.712251
0.712263
0.712275
0.712287
0.712301
0.712315
0.71233
0.712346
0.712363
0.712381
0.712401
0.712422
0.712445
0.71247
0.712497
0.712527
0.712559
0.712594
0.712631
0.712671
0.712714
0.71276
0.712809
0.71286
0.712913
0.712968
0.713025
0.713082
0.713139
0.713196
0.713252
0.713307
0.713359
0.713408
0.713454
0.713497
0.713535
0.713569
0.713599
0.713625
0.713646
0.713662
0.713675
0.713683
0.713689
0.71369
0.713689
0.713686
0.713681
0.713673
0.713665
0.713655
0.713644
0.711985
0.711988
0.711985
0.711989
0.711987
0.71199
0.711988
0.71199
0.711989
0.71199
0.711989
0.71199
0.71199
0.71199
0.71199
0.711991
0.711991
0.711992
0.711992
0.711993
0.711994
0.711995
0.711996
0.711998
0.711999
0.712001
0.712003
0.712005
0.712007
0.712009
0.712012
0.712014
0.712017
0.71202
0.712023
0.712027
0.71203
0.712034
0.712037
0.712041
0.712045
0.71205
0.712054
0.712059
0.712063
0.712068
0.712073
0.712079
0.712084
0.71209
0.712096
0.712102
0.712108
0.712114
0.712121
0.712128
0.712135
0.712142
0.712149
0.712157
0.712165
0.712173
0.712182
0.71219
0.712199
0.712209
0.712219
0.712229
0.712239
0.71225
0.712261
0.712273
0.712286
0.712299
0.712313
0.712328
0.712344
0.712361
0.712379
0.712399
0.712421
0.712444
0.712469
0.712496
0.712526
0.712558
0.712592
0.71263
0.71267
0.712713
0.712759
0.712807
0.712857
0.71291
0.712964
0.713019
0.713074
0.71313
0.713185
0.713239
0.713291
0.71334
0.713387
0.71343
0.71347
0.713506
0.713537
0.713564
0.713587
0.713606
0.713621
0.713632
0.713639
0.713643
0.713644
0.713643
0.71364
0.713634
0.713627
0.713619
0.713611
0.713601
0.711996
0.711996
0.711993
0.711993
0.71199
0.71199
0.711988
0.711988
0.711987
0.711987
0.711987
0.711987
0.711987
0.711987
0.711988
0.711988
0.711989
0.71199
0.71199
0.711991
0.711992
0.711994
0.711995
0.711997
0.711998
0.712
0.712002
0.712004
0.712006
0.712008
0.712011
0.712014
0.712016
0.712019
0.712023
0.712026
0.712029
0.712033
0.712037
0.712041
0.712045
0.712049
0.712053
0.712058
0.712063
0.712068
0.712073
0.712078
0.712084
0.712089
0.712095
0.712101
0.712107
0.712114
0.71212
0.712127
0.712134
0.712141
0.712149
0.712157
0.712164
0.712173
0.712181
0.71219
0.712199
0.712208
0.712218
0.712228
0.712238
0.712249
0.712261
0.712273
0.712286
0.712299
0.712313
0.712328
0.712345
0.712362
0.712381
0.712401
0.712422
0.712446
0.712472
0.712499
0.712529
0.712562
0.712597
0.712634
0.712675
0.712717
0.712763
0.71281
0.712859
0.71291
0.712963
0.713016
0.713069
0.713121
0.713173
0.713224
0.713272
0.713317
0.71336
0.713399
0.713435
0.713466
0.713494
0.713518
0.713537
0.713553
0.713565
0.713574
0.71358
0.713583
0.713583
0.713581
0.713578
0.713573
0.713567
0.71356
0.713553
0.713545
0.711965
0.711979
0.711974
0.711984
0.711981
0.711987
0.711985
0.711988
0.711986
0.711988
0.711987
0.711988
0.711988
0.711988
0.711988
0.711989
0.711989
0.71199
0.711991
0.711992
0.711993
0.711994
0.711995
0.711997
0.711998
0.712
0.712002
0.712004
0.712006
0.712008
0.712011
0.712014
0.712016
0.712019
0.712022
0.712026
0.712029
0.712033
0.712036
0.712041
0.712044
0.712049
0.712053
0.712058
0.712063
0.712068
0.712073
0.712078
0.712083
0.712089
0.712095
0.712101
0.712107
0.712114
0.71212
0.712127
0.712134
0.712141
0.712149
0.712157
0.712165
0.712173
0.712181
0.71219
0.712199
0.712209
0.712219
0.712229
0.71224
0.712251
0.712263
0.712275
0.712288
0.712302
0.712317
0.712333
0.712349
0.712367
0.712387
0.712407
0.71243
0.712454
0.712481
0.712509
0.712539
0.712572
0.712608
0.712645
0.712685
0.712727
0.712772
0.712818
0.712865
0.712914
0.712964
0.713013
0.713063
0.713111
0.713159
0.713204
0.713247
0.713287
0.713324
0.713358
0.713389
0.713415
0.713438
0.713457
0.713473
0.713486
0.713495
0.713502
0.713506
0.713507
0.713507
0.713506
0.713503
0.713499
0.713494
0.713489
0.713483
0.713477
0.711989
0.711996
0.711988
0.71199
0.711985
0.711987
0.711984
0.711985
0.711984
0.711985
0.711984
0.711985
0.711985
0.711986
0.711986
0.711987
0.711988
0.711989
0.71199
0.711991
0.711992
0.711993
0.711995
0.711996
0.711998
0.712
0.712002
0.712004
0.712006
0.712008
0.712011
0.712014
0.712016
0.712019
0.712023
0.712026
0.712029
0.712033
0.712037
0.712041
0.712045
0.712049
0.712054
0.712058
0.712063
0.712068
0.712073
0.712079
0.712084
0.71209
0.712096
0.712102
0.712108
0.712115
0.712121
0.712128
0.712136
0.712143
0.712151
0.712159
0.712167
0.712175
0.712184
0.712193
0.712203
0.712213
0.712223
0.712234
0.712245
0.712257
0.712269
0.712283
0.712297
0.712311
0.712327
0.712344
0.712362
0.712381
0.712401
0.712423
0.712447
0.712472
0.7125
0.712529
0.71256
0.712593
0.712629
0.712666
0.712706
0.712747
0.71279
0.712834
0.712878
0.712924
0.712969
0.713014
0.713059
0.713102
0.713143
0.713182
0.713219
0.713253
0.713284
0.713311
0.713336
0.713357
0.713374
0.713389
0.713401
0.71341
0.713417
0.713421
0.713424
0.713425
0.713425
0.713423
0.713421
0.713419
0.713416
0.713413
0.71341
0.713406
0.711886
0.711968
0.711962
0.711987
0.711981
0.71199
0.711987
0.711991
0.711989
0.71199
0.711989
0.71199
0.711989
0.71199
0.71199
0.711991
0.711991
0.711991
0.711992
0.711993
0.711994
0.711995
0.711996
0.711998
0.711999
0.712001
0.712003
0.712005
0.712007
0.712009
0.712012
0.712014
0.712017
0.71202
0.712023
0.712027
0.71203
0.712034
0.712038
0.712042
0.712046
0.71205
0.712055
0.71206
0.712064
0.71207
0.712075
0.71208
0.712086
0.712092
0.712098
0.712104
0.712111
0.712118
0.712125
0.712132
0.712139
0.712147
0.712155
0.712164
0.712172
0.712182
0.712191
0.712201
0.712211
0.712222
0.712233
0.712245
0.712257
0.71227
0.712284
0.712298
0.712313
0.71233
0.712347
0.712365
0.712384
0.712405
0.712427
0.712451
0.712476
0.712502
0.712531
0.712561
0.712592
0.712626
0.712661
0.712698
0.712736
0.712775
0.712815
0.712856
0.712897
0.712938
0.712978
0.713017
0.713055
0.713092
0.713126
0.713158
0.713188
0.713215
0.713239
0.71326
0.713278
0.713294
0.713307
0.713318
0.713326
0.713332
0.713337
0.71334
0.713343
0.713344
0.713344
0.713344
0.713343
0.713343
0.713342
0.713341
0.71334
0.71334
0.712244
0.712202
0.712195
0.712154
0.712141
0.712098
0.712083
0.712032
0.712022
0.711949
0.711966
0.711993
0.711987
0.711992
0.711987
0.711989
0.711986
0.711988
0.711986
0.711987
0.711987
0.711988
0.711987
0.711988
0.711988
0.711989
0.71199
0.711991
0.711991
0.711993
0.711994
0.711995
0.711996
0.711998
0.712
0.712001
0.712003
0.712005
0.712008
0.71201
0.712013
0.712016
0.712018
0.712022
0.712025
0.712028
0.712032
0.712036
0.71204
0.712044
0.712048
0.712053
0.712057
0.712062
0.712068
)
;

boundaryField
{
    inlet
    {
        type            zeroGradient;
    }
    outlet
    {
        type            fixedValue;
        value           nonuniform 0();
    }
    walls
    {
        type            zeroGradient;
    }
    symwall
    {
        type            empty;
    }
    procBoundary0to1
    {
        type            processor;
        value           nonuniform List<scalar> 10(0.713685 0.713682 0.713676 0.71366 0.713633 0.713592 0.713537 0.713472 0.713404 0.71334);
    }
    procBoundary0to2
    {
        type            processor;
        value           nonuniform List<scalar> 
133
(
0.712073
0.712078
0.712084
0.71209
0.712097
0.712103
0.71211
0.712117
0.712124
0.712132
0.71214
0.712148
0.712157
0.712166
0.712175
0.712185
0.712195
0.712205
0.712216
0.712228
0.71224
0.712252
0.712266
0.71228
0.712294
0.71231
0.712326
0.712343
0.712361
0.71238
0.7124
0.712422
0.712444
0.712468
0.712493
0.712519
0.712547
0.712576
0.712607
0.712639
0.712672
0.712706
0.712741
0.712777
0.712813
0.712849
0.712885
0.712921
0.712957
0.712991
0.713024
0.713055
0.713084
0.713111
0.713136
0.713159
0.713179
0.713197
0.713212
0.713225
0.713236
0.713245
0.713253
0.713259
0.713264
0.713268
0.713271
0.713273
0.713275
0.713276
0.713278
0.713279
0.713281
0.713282
0.713284
0.713285
0.713288
0.712253
0.712205
0.712199
0.712156
0.712143
0.7121
0.712084
0.712033
0.712018
0.711949
0.711926
0.711977
0.71197
0.711992
0.711987
0.711995
0.711992
0.711995
0.711993
0.711994
0.711992
0.711993
0.711992
0.711993
0.711992
0.711993
0.711993
0.711993
0.711994
0.711995
0.711996
0.711997
0.711998
0.711999
0.712001
0.712003
0.712005
0.712007
0.712009
0.712012
0.712015
0.712017
0.71202
0.712024
0.712027
0.712031
0.712035
0.712039
0.712043
0.712048
0.712052
0.712057
0.712062
0.712068
0.712073
0.712073
)
;
    }
}


// ************************************************************************* //
