/*--------------------------------*- C++ -*----------------------------------*\
| =========                 |                                                 |
| \\      /  F ield         | OpenFOAM: The Open Source CFD Toolbox           |
|  \\    /   O peration     | Version:  4.1                                   |
|   \\  /    A nd           | Web:      www.OpenFOAM.org                      |
|    \\/     M anipulation  |                                                 |
\*---------------------------------------------------------------------------*/
FoamFile
{
    version     2.0;
    format      ascii;
    class       volVectorField;
    location    "3330";
    object      U;
}
// * * * * * * * * * * * * * * * * * * * * * * * * * * * * * * * * * * * * * //

dimensions      [0 1 -1 0 0 0 0];

internalField   nonuniform List<vector> 
1275
(
(0.07641 -5.70493e-05 0)
(0.0766115 -0.000118236 0)
(0.0764736 -0.000216778 0)
(0.0767149 -0.000275418 0)
(0.0767027 -0.000328671 0)
(0.0770172 -0.000420953 0)
(0.0771244 -0.000440871 0)
(0.0775477 -0.000604102 0)
(0.0777902 -0.00062832 0)
(0.0784353 -0.000856408 0)
(0.112436 -3.97938e-05 0)
(0.112616 -0.000130177 0)
(0.112484 -0.000259043 0)
(0.112671 -0.000342372 0)
(0.112622 -0.000452763 0)
(0.112853 -0.000553212 0)
(0.112875 -0.000666913 0)
(0.11317 -0.000803055 0)
(0.113244 -0.000982446 0)
(0.113589 -0.00113131 0)
(0.136447 -3.24308e-05 0)
(0.136616 -0.000149724 0)
(0.136478 -0.000282201 0)
(0.13663 -0.000401733 0)
(0.136549 -0.000520585 0)
(0.136712 -0.000663524 0)
(0.136681 -0.00077867 0)
(0.136871 -0.000964514 0)
(0.136876 -0.00110132 0)
(0.137075 -0.00131811 0)
(0.148452 -2.81265e-05 0)
(0.148612 -0.00015066 0)
(0.14846 -0.000281919 0)
(0.148579 -0.000407074 0)
(0.14846 -0.000539222 0)
(0.148557 -0.000678956 0)
(0.14846 -0.000823479 0)
(0.148547 -0.000986669 0)
(0.148447 -0.00116707 0)
(0.14851 -0.00134151 0)
(0.148453 -2.2989e-05 0)
(0.148607 -0.000147432 0)
(0.148438 -0.000259342 0)
(0.148526 -0.000393122 0)
(0.148369 -0.000508447 0)
(0.14841 -0.000658094 0)
(0.148255 -0.000780444 0)
(0.148255 -0.000950418 0)
(0.148086 -0.00108787 0)
(0.148034 -0.00126286 0)
(0.136449 -1.57501e-05 0)
(0.136598 -0.000124567 0)
(0.136407 -0.000209115 0)
(0.136467 -0.000329485 0)
(0.13627 -0.000427142 0)
(0.136259 -0.000558146 0)
(0.136045 -0.000668964 0)
(0.135968 -0.00081048 0)
(0.135716 -0.000937274 0)
(0.135568 -0.00107963 0)
(0.112439 -3.39382e-06 0)
(0.112585 -9.53228e-05 0)
(0.112369 -0.000141616 0)
(0.112403 -0.000248509 0)
(0.11217 -0.000312479 0)
(0.112114 -0.000426742 0)
(0.111848 -0.000500464 0)
(0.111707 -0.000618857 0)
(0.11139 -0.000700075 0)
(0.11116 -0.000811845 0)
(0.0764173 2.71513e-05 0)
(0.076563 -3.49452e-05 0)
(0.076316 -3.76509e-05 0)
(0.0763443 -0.000115213 0)
(0.0760812 -0.000146031 0)
(0.0760097 -0.000225108 0)
(0.0757045 -0.000266571 0)
(0.0755336 -0.000343646 0)
(0.0751653 -0.000390496 0)
(0.0748936 -0.000460742 0)
(0.0284323 6.12523e-05 0)
(0.0286344 3.06832e-05 0)
(0.0284829 4.73398e-05 0)
(0.028601 2.84044e-06 0)
(0.0284143 -1.2926e-07 0)
(0.0284229 -3.76282e-05 0)
(0.0281857 -4.11953e-05 0)
(0.028092 -7.11679e-05 0)
(0.0277974 -7.26095e-05 0)
(0.0276131 -9.38477e-05 0)
(0.0762783 -0.00243073 0)
(0.0770579 -0.00252633 0)
(0.0778492 -0.00263213 0)
(0.0786549 -0.00274322 0)
(0.0794739 -0.00286384 0)
(0.0803101 -0.00299208 0)
(0.0811627 -0.00313039 0)
(0.082035 -0.00327813 0)
(0.082927 -0.00343697 0)
(0.0838412 -0.00360694 0)
(0.0847781 -0.00378934 0)
(0.0857397 -0.00398457 0)
(0.0867268 -0.00419378 0)
(0.0877411 -0.00441755 0)
(0.0887833 -0.00465696 0)
(0.0898546 -0.00491273 0)
(0.0909556 -0.00518585 0)
(0.0920872 -0.0054771 0)
(0.0932496 -0.00578738 0)
(0.0944429 -0.00611744 0)
(0.095667 -0.00646806 0)
(0.0969212 -0.00683986 0)
(0.0982045 -0.0072334 0)
(0.0995154 -0.00764906 0)
(0.100852 -0.00808709 0)
(0.102211 -0.00854746 0)
(0.10359 -0.00902995 0)
(0.104984 -0.00953397 0)
(0.106389 -0.0100586 0)
(0.107798 -0.0106025 0)
(0.109206 -0.0111639 0)
(0.110606 -0.0117405 0)
(0.111987 -0.0123294 0)
(0.113343 -0.0129271 0)
(0.114662 -0.0135296 0)
(0.115935 -0.014132 0)
(0.117149 -0.014729 0)
(0.118294 -0.0153146 0)
(0.119357 -0.0158822 0)
(0.120326 -0.0164249 0)
(0.121189 -0.0169353 0)
(0.121934 -0.0174058 0)
(0.12255 -0.0178289 0)
(0.123026 -0.018197 0)
(0.123355 -0.0185031 0)
(0.123526 -0.0187407 0)
(0.123536 -0.0189039 0)
(0.123378 -0.0189879 0)
(0.123052 -0.0189892 0)
(0.122556 -0.0189053 0)
(0.121895 -0.0187354 0)
(0.121071 -0.0184801 0)
(0.120093 -0.0181417 0)
(0.118969 -0.0177239 0)
(0.117712 -0.0172318 0)
(0.116334 -0.0166717 0)
(0.114849 -0.0160513 0)
(0.113276 -0.0153785 0)
(0.111629 -0.0146623 0)
(0.109927 -0.0139115 0)
(0.108189 -0.0131352 0)
(0.10643 -0.0123422 0)
(0.104669 -0.0115408 0)
(0.102923 -0.0107387 0)
(0.101207 -0.00994307 0)
(0.0995342 -0.00916005 0)
(0.0979185 -0.00839503 0)
(0.0963704 -0.00765244 0)
(0.0948998 -0.00693576 0)
(0.0935132 -0.00624778 0)
(0.0922184 -0.00558999 0)
(0.0910167 -0.00496418 0)
(0.0899154 -0.00436945 0)
(0.0889089 -0.00380814 0)
(0.0880075 -0.00327536 0)
(0.087196 -0.00277771 0)
(0.0864904 -0.00230129 0)
(0.0858687 -0.00186607 0)
(0.0789191 -0.00117773 0)
(0.0787316 -0.00130368 0)
(0.0792102 -0.00139282 0)
(0.0794504 -0.00149531 0)
(0.0800042 -0.00156148 0)
(0.0804513 -0.00164125 0)
(0.081044 -0.00169454 0)
(0.0815845 -0.0017515 0)
(0.0821964 -0.00179161 0)
(0.0827788 -0.00183093 0)
(0.0833971 -0.00186009 0)
(0.0839958 -0.00188728 0)
(0.0846117 -0.0019085 0)
(0.0852126 -0.00192791 0)
(0.0858202 -0.00194399 0)
(0.0864152 -0.00195884 0)
(0.087011 -0.00197205 0)
(0.0875958 -0.0019847 0)
(0.088178 -0.00199685 0)
(0.0887503 -0.00200908 0)
(0.0893185 -0.00202161 0)
(0.0898778 -0.00203479 0)
(0.0904322 -0.00204889 0)
(0.090979 -0.00206411 0)
(0.0915209 -0.00208077 0)
(0.0920563 -0.00209897 0)
(0.0925872 -0.00211905 0)
(0.0931128 -0.00214106 0)
(0.0936347 -0.00216538 0)
(0.0941525 -0.00219198 0)
(0.0946675 -0.00222133 0)
(0.0951799 -0.00225331 0)
(0.0956902 -0.00228851 0)
(0.0961998 -0.0023267 0)
(0.0967077 -0.00236862 0)
(0.0972176 -0.00241396 0)
(0.0977248 -0.00246353 0)
(0.0982395 -0.00251712 0)
(0.0987462 -0.00257529 0)
(0.0992725 -0.00263855 0)
(0.0997754 -0.00270615 0)
(0.100326 -0.00278107 0)
(0.100813 -0.0028584 0)
(0.101417 -0.0029484 0)
(0.10185 -0.00303353 0)
(0.102459 -0.00314011 0)
(0.103026 -0.0032465 0)
(0.103589 -0.00336247 0)
(0.104169 -0.00348612 0)
(0.104756 -0.00361997 0)
(0.105357 -0.00376303 0)
(0.105968 -0.00391712 0)
(0.106594 -0.00408195 0)
(0.107233 -0.0042589 0)
(0.107887 -0.00444812 0)
(0.108555 -0.00465071 0)
(0.10924 -0.00486708 0)
(0.109939 -0.00509819 0)
(0.110654 -0.00534458 0)
(0.111385 -0.00560709 0)
(0.112131 -0.0058863 0)
(0.112893 -0.00618294 0)
(0.113669 -0.00649755 0)
(0.114457 -0.00683072 0)
(0.115258 -0.00718284 0)
(0.116069 -0.00755428 0)
(0.116888 -0.00794521 0)
(0.117712 -0.00835569 0)
(0.118537 -0.00878553 0)
(0.119361 -0.00923434 0)
(0.120179 -0.00970145 0)
(0.120985 -0.0101859 0)
(0.121774 -0.0106863 0)
(0.122539 -0.0112011 0)
(0.123273 -0.0117279 0)
(0.123968 -0.0122644 0)
(0.124616 -0.0128073 0)
(0.125207 -0.013353 0)
(0.125732 -0.0138973 0)
(0.12618 -0.0144357 0)
(0.12654 -0.0149628 0)
(0.126802 -0.0154729 0)
(0.126954 -0.0159599 0)
(0.126986 -0.0164172 0)
(0.126886 -0.016838 0)
(0.126646 -0.0172155 0)
(0.126256 -0.0175429 0)
(0.125708 -0.0178134 0)
(0.124996 -0.0180208 0)
(0.124115 -0.0181596 0)
(0.123062 -0.0182251 0)
(0.121836 -0.0182134 0)
(0.120439 -0.0181222 0)
(0.118874 -0.0179502 0)
(0.117147 -0.0176976 0)
(0.115268 -0.0173662 0)
(0.113247 -0.0169591 0)
(0.111096 -0.0164806 0)
(0.108833 -0.0159366 0)
(0.106472 -0.0153336 0)
(0.104034 -0.0146795 0)
(0.101537 -0.0139827 0)
(0.099003 -0.013252 0)
(0.0964521 -0.0124966 0)
(0.0939057 -0.0117259 0)
(0.0913841 -0.0109485 0)
(0.088907 -0.010173 0)
(0.0864926 -0.00940689 0)
(0.0841574 -0.00865678 0)
(0.0819164 -0.00792833 0)
(0.079782 -0.00722598 0)
(0.0777651 -0.0065532 0)
(0.0758736 -0.00591236 0)
(0.0741144 -0.00530491 0)
(0.0724907 -0.00473161 0)
(0.0710061 -0.00419209 0)
(0.069659 -0.00368638 0)
(0.0684511 -0.00321214 0)
(0.067376 -0.00277012 0)
(0.0664348 -0.00235505 0)
(0.0656173 -0.0019705 0)
(0.0649238 -0.00160707 0)
(0.0643449 -0.00127027 0)
(0.113677 -0.00165285 0)
(0.113783 -0.00175733 0)
(0.114013 -0.0019468 0)
(0.114172 -0.0019958 0)
(0.114443 -0.00207611 0)
(0.114653 -0.00211196 0)
(0.114933 -0.00215771 0)
(0.115173 -0.00218686 0)
(0.115455 -0.00221794 0)
(0.115713 -0.00224082 0)
(0.115995 -0.00226314 0)
(0.11626 -0.00228041 0)
(0.116539 -0.00229669 0)
(0.116807 -0.00230963 0)
(0.117081 -0.00232188 0)
(0.117346 -0.00233202 0)
(0.117615 -0.00234199 0)
(0.117876 -0.00235088 0)
(0.118137 -0.00236015 0)
(0.118392 -0.00236923 0)
(0.118647 -0.00237921 0)
(0.118896 -0.00238973 0)
(0.119143 -0.00240164 0)
(0.119386 -0.00241471 0)
(0.119627 -0.00242963 0)
(0.119865 -0.00244624 0)
(0.1201 -0.00246513 0)
(0.120333 -0.00248617 0)
(0.120564 -0.00250993 0)
(0.120793 -0.00253624 0)
(0.121021 -0.00256577 0)
(0.121247 -0.00259817 0)
(0.121474 -0.00263438 0)
(0.121698 -0.00267374 0)
(0.121925 -0.00271763 0)
(0.122149 -0.00276481 0)
(0.122377 -0.00281755 0)
(0.122601 -0.00287343 0)
(0.122833 -0.00293644 0)
(0.123058 -0.00300184 0)
(0.123296 -0.00307692 0)
(0.123522 -0.00315248 0)
(0.123768 -0.00324198 0)
(0.123999 -0.00332833 0)
(0.124246 -0.0034337 0)
(0.124493 -0.0035357 0)
(0.124743 -0.00365251 0)
(0.124995 -0.00377519 0)
(0.125254 -0.00390831 0)
(0.125515 -0.0040506 0)
(0.125783 -0.00420328 0)
(0.126053 -0.00436674 0)
(0.126329 -0.00454151 0)
(0.126607 -0.00472832 0)
(0.12689 -0.00492758 0)
(0.127176 -0.00514005 0)
(0.127465 -0.00536616 0)
(0.127755 -0.00560659 0)
(0.128047 -0.00586177 0)
(0.128338 -0.00613228 0)
(0.128628 -0.0064185 0)
(0.128915 -0.00672083 0)
(0.129196 -0.00703955 0)
(0.12947 -0.00737484 0)
(0.129733 -0.00772676 0)
(0.129983 -0.00809522 0)
(0.130216 -0.00847995 0)
(0.130428 -0.00888048 0)
(0.130614 -0.0092961 0)
(0.130769 -0.00972584 0)
(0.130889 -0.0101684 0)
(0.130965 -0.0106223 0)
(0.130993 -0.0110854 0)
(0.130964 -0.0115555 0)
(0.13087 -0.0120297 0)
(0.130704 -0.0125049 0)
(0.130456 -0.0129774 0)
(0.130117 -0.0134431 0)
(0.129678 -0.0138975 0)
(0.129129 -0.0143354 0)
(0.128461 -0.0147517 0)
(0.127665 -0.0151406 0)
(0.126731 -0.0154961 0)
(0.125651 -0.0158123 0)
(0.124418 -0.0160832 0)
(0.123025 -0.0163028 0)
(0.121468 -0.0164658 0)
(0.119743 -0.016567 0)
(0.117848 -0.0166021 0)
(0.115783 -0.0165676 0)
(0.113552 -0.0164607 0)
(0.111159 -0.0162801 0)
(0.108611 -0.0160254 0)
(0.105919 -0.0156977 0)
(0.103094 -0.0152993 0)
(0.100153 -0.0148342 0)
(0.0971112 -0.0143077 0)
(0.0939894 -0.0137263 0)
(0.0908086 -0.0130977 0)
(0.0875913 -0.0124307 0)
(0.0843612 -0.0117345 0)
(0.0811419 -0.0110184 0)
(0.0779575 -0.0102919 0)
(0.0748309 -0.00956401 0)
(0.0717844 -0.00884299 0)
(0.0688387 -0.00813634 0)
(0.0660125 -0.00745051 0)
(0.0633224 -0.00679095 0)
(0.0607823 -0.00616191 0)
(0.0584034 -0.00556664 0)
(0.0561935 -0.00500722 0)
(0.0541581 -0.0044848 0)
(0.0522989 -0.0039995 0)
(0.050616 -0.00355064 0)
(0.0491056 -0.00313692 0)
(0.0477643 -0.00275618 0)
(0.0465835 -0.00240662 0)
(0.0455586 -0.00208472 0)
(0.0446778 -0.00178949 0)
(0.0439362 -0.00151555 0)
(0.0433209 -0.00126462 0)
(0.0428265 -0.00102798 0)
(0.0424429 -0.000812112 0)
(0.13712 -0.00155146 0)
(0.137108 -0.00168102 0)
(0.137154 -0.00184505 0)
(0.13714 -0.00194037 0)
(0.137205 -0.00205435 0)
(0.137225 -0.00212871 0)
(0.137299 -0.00220869 0)
(0.137343 -0.00226417 0)
(0.137419 -0.00231925 0)
(0.137474 -0.00235817 0)
(0.137546 -0.00239486 0)
(0.137603 -0.00242063 0)
(0.137668 -0.0024442 0)
(0.137723 -0.00246051 0)
(0.13778 -0.00247529 0)
(0.137828 -0.00248551 0)
(0.137876 -0.00249504 0)
(0.137916 -0.00250201 0)
(0.137954 -0.00250909 0)
(0.137986 -0.00251513 0)
(0.138015 -0.002522 0)
(0.138039 -0.00252899 0)
(0.138059 -0.00253741 0)
(0.138074 -0.00254684 0)
(0.138086 -0.00255825 0)
(0.138094 -0.00257137 0)
(0.138097 -0.00258694 0)
(0.138098 -0.00260482 0)
(0.138094 -0.00262557 0)
(0.138088 -0.00264917 0)
(0.138078 -0.00267606 0)
(0.138065 -0.00270629 0)
(0.138049 -0.00274021 0)
(0.13803 -0.00277802 0)
(0.138008 -0.0028199 0)
(0.137984 -0.00286631 0)
(0.137957 -0.00291707 0)
(0.137927 -0.00297323 0)
(0.137895 -0.00303383 0)
(0.13786 -0.0031011 0)
(0.137822 -0.00317254 0)
(0.137781 -0.00325241 0)
(0.137738 -0.00333587 0)
(0.13769 -0.00342968 0)
(0.137642 -0.00352711 0)
(0.137586 -0.00363498 0)
(0.13753 -0.00375052 0)
(0.137467 -0.00387402 0)
(0.137402 -0.00400693 0)
(0.137329 -0.00414888 0)
(0.137252 -0.004301 0)
(0.137168 -0.00446333 0)
(0.137076 -0.00463662 0)
(0.136976 -0.00482116 0)
(0.136866 -0.00501749 0)
(0.136745 -0.005226 0)
(0.136612 -0.0054471 0)
(0.136464 -0.00568114 0)
(0.136301 -0.00592842 0)
(0.136119 -0.00618918 0)
(0.135917 -0.00646359 0)
(0.135691 -0.00675172 0)
(0.13544 -0.0070535 0)
(0.135158 -0.00736875 0)
(0.134843 -0.00769715 0)
(0.13449 -0.00803816 0)
(0.134096 -0.00839107 0)
(0.133655 -0.00875493 0)
(0.133161 -0.00912854 0)
(0.13261 -0.0095104 0)
(0.131995 -0.00989874 0)
(0.131309 -0.0102915 0)
(0.130546 -0.0106861 0)
(0.129697 -0.0110798 0)
(0.128757 -0.0114695 0)
(0.127716 -0.0118515 0)
(0.126567 -0.0122221 0)
(0.125302 -0.012577 0)
(0.123912 -0.0129116 0)
(0.122392 -0.0132212 0)
(0.120732 -0.0135007 0)
(0.118928 -0.0137451 0)
(0.116972 -0.0139491 0)
(0.114861 -0.0141077 0)
(0.112592 -0.014216 0)
(0.110161 -0.0142694 0)
(0.10757 -0.014264 0)
(0.10482 -0.0141964 0)
(0.101916 -0.0140642 0)
(0.0988646 -0.0138662 0)
(0.0956753 -0.0136023 0)
(0.0923602 -0.0132735 0)
(0.0889342 -0.0128827 0)
(0.0854145 -0.0124338 0)
(0.0818209 -0.0119321 0)
(0.0781752 -0.0113842 0)
(0.0745011 -0.0107975 0)
(0.0708237 -0.0101802 0)
(0.0671696 -0.00954087 0)
(0.0635655 -0.00888844 0)
(0.0600387 -0.00823179 0)
(0.0566154 -0.00757971 0)
(0.0533208 -0.00694057 0)
(0.0501777 -0.00632217 0)
(0.0472057 -0.00573134 0)
(0.0444208 -0.00517379 0)
(0.0418345 -0.00465374 0)
(0.0394539 -0.00417392 0)
(0.0372812 -0.00373539 0)
(0.0353149 -0.00333783 0)
(0.0335491 -0.00297961 0)
(0.031976 -0.00265813 0)
(0.0305848 -0.00237017 0)
(0.0293648 -0.00211203 0)
(0.0283025 -0.00188022 0)
(0.0273875 -0.00167078 0)
(0.0266057 -0.00148105 0)
(0.0259487 -0.00130703 0)
(0.0254029 -0.00114765 0)
(0.0249626 -0.000998574 0)
(0.0246151 -0.000860631 0)
(0.0243565 -0.000729144 0)
(0.0241772 -0.000605678 0)
(0.148385 -0.00159758 0)
(0.14833 -0.00174393 0)
(0.14823 -0.00192786 0)
(0.148137 -0.00202438 0)
(0.148048 -0.00213958 0)
(0.147943 -0.00220117 0)
(0.14785 -0.00227155 0)
(0.147738 -0.00231005 0)
(0.147634 -0.00235217 0)
(0.147515 -0.00237484 0)
(0.1474 -0.00239876 0)
(0.147272 -0.00241057 0)
(0.147144 -0.00242278 0)
(0.147007 -0.00242749 0)
(0.146868 -0.00243255 0)
(0.146721 -0.00243319 0)
(0.146571 -0.00243447 0)
(0.146414 -0.00243347 0)
(0.146254 -0.00243354 0)
(0.146087 -0.00243286 0)
(0.145917 -0.0024337 0)
(0.145741 -0.00243493 0)
(0.145561 -0.0024381 0)
(0.145375 -0.00244249 0)
(0.145185 -0.00244922 0)
(0.144991 -0.00245783 0)
(0.144791 -0.00246914 0)
(0.144587 -0.00248284 0)
(0.144378 -0.00249963 0)
(0.144164 -0.00251922 0)
(0.143945 -0.00254231 0)
(0.143721 -0.00256855 0)
(0.143492 -0.00259876 0)
(0.143257 -0.0026324 0)
(0.143016 -0.0026706 0)
(0.142769 -0.00271241 0)
(0.142517 -0.00275956 0)
(0.142257 -0.00281036 0)
(0.14199 -0.00286752 0)
(0.141716 -0.00292817 0)
(0.141434 -0.00299657 0)
(0.141144 -0.00306802 0)
(0.140845 -0.00314888 0)
(0.140536 -0.00323246 0)
(0.140217 -0.00332651 0)
(0.139887 -0.00342458 0)
(0.139545 -0.00353213 0)
(0.139189 -0.00364604 0)
(0.13882 -0.00376914 0)
(0.138435 -0.00390001 0)
(0.138035 -0.00404026 0)
(0.137616 -0.00418933 0)
(0.137178 -0.00434818 0)
(0.136718 -0.00451665 0)
(0.136236 -0.00469536 0)
(0.135728 -0.0048843 0)
(0.135193 -0.00508385 0)
(0.134628 -0.00529401 0)
(0.13403 -0.00551494 0)
(0.133397 -0.00574656 0)
(0.132726 -0.00598882 0)
(0.132012 -0.00624144 0)
(0.131252 -0.0065041 0)
(0.130443 -0.00677628 0)
(0.129579 -0.00705732 0)
(0.128657 -0.00734634 0)
(0.127671 -0.00764229 0)
(0.126616 -0.00794386 0)
(0.125487 -0.00824952 0)
(0.124277 -0.00855743 0)
(0.122982 -0.0088655 0)
(0.121595 -0.00917135 0)
(0.120109 -0.00947227 0)
(0.118519 -0.00976528 0)
(0.116817 -0.0100471 0)
(0.114997 -0.0103141 0)
(0.113054 -0.0105625 0)
(0.110982 -0.0107882 0)
(0.108776 -0.0109871 0)
(0.106431 -0.0111548 0)
(0.103944 -0.011287 0)
(0.101313 -0.0113795 0)
(0.0985363 -0.0114284 0)
(0.0956157 -0.0114299 0)
(0.0925536 -0.0113811 0)
(0.0893546 -0.0112794 0)
(0.0860258 -0.0111234 0)
(0.0825767 -0.0109122 0)
(0.0790193 -0.0106464 0)
(0.0753684 -0.0103273 0)
(0.0716414 -0.00995752 0)
(0.0678585 -0.00954062 0)
(0.0640424 -0.00908138 0)
(0.0602187 -0.00858565 0)
(0.0564147 -0.00806038 0)
(0.05266 -0.00751357 0)
(0.0489849 -0.00695412 0)
(0.04542 -0.00639155 0)
(0.0419945 -0.00583563 0)
(0.0387353 -0.00529585 0)
(0.0356653 -0.00478092 0)
(0.0328019 -0.00429816 0)
(0.0301568 -0.0038531 0)
(0.0277353 -0.00344916 0)
(0.0255365 -0.0030875 0)
(0.0235545 -0.00276729 0)
(0.0217788 -0.00248594 0)
(0.0201965 -0.00223975 0)
(0.0187924 -0.00202434 0)
(0.0175512 -0.00183529 0)
(0.0164576 -0.00166841 0)
(0.0154975 -0.00152 0)
(0.0146572 -0.00138707 0)
(0.0139259 -0.00126698 0)
(0.0132921 -0.00115798 0)
(0.012748 -0.00105803 0)
(0.0122842 -0.000966439 0)
(0.0118956 -0.000881101 0)
(0.0115742 -0.000802367 0)
(0.0113168 -0.000727473 0)
(0.011117 -0.000657982 0)
(0.0109721 -0.000590162 0)
(0.010878 -0.000526736 0)
(0.147834 -0.00142861 0)
(0.147684 -0.00155552 0)
(0.147457 -0.0016923 0)
(0.147244 -0.00178058 0)
(0.146999 -0.00188077 0)
(0.146753 -0.00194216 0)
(0.146493 -0.00201115 0)
(0.146226 -0.00205232 0)
(0.145951 -0.00209695 0)
(0.145668 -0.00212238 0)
(0.145378 -0.00214885 0)
(0.14508 -0.00216236 0)
(0.144777 -0.00217592 0)
(0.144466 -0.002181 0)
(0.144149 -0.00218601 0)
(0.143827 -0.00218575 0)
(0.143498 -0.00218572 0)
(0.143164 -0.00218275 0)
(0.142825 -0.00218046 0)
(0.14248 -0.00217694 0)
(0.14213 -0.00217458 0)
(0.141775 -0.00217222 0)
(0.141415 -0.00217148 0)
(0.14105 -0.00217167 0)
(0.14068 -0.00217388 0)
(0.140304 -0.0021777 0)
(0.139923 -0.00218392 0)
(0.139536 -0.0021923 0)
(0.139143 -0.0022034 0)
(0.138744 -0.00221712 0)
(0.138338 -0.00223388 0)
(0.137926 -0.00225368 0)
(0.137507 -0.0022768 0)
(0.137079 -0.00230339 0)
(0.136644 -0.00233358 0)
(0.1362 -0.0023677 0)
(0.135746 -0.00240567 0)
(0.135283 -0.00244811 0)
(0.134808 -0.00249461 0)
(0.134323 -0.00254622 0)
(0.133825 -0.00260206 0)
(0.133314 -0.00266369 0)
(0.132789 -0.00272988 0)
(0.132247 -0.00280225 0)
(0.131691 -0.00288005 0)
(0.131116 -0.00296379 0)
(0.130523 -0.00305446 0)
(0.129908 -0.00315089 0)
(0.129272 -0.00325479 0)
(0.128612 -0.00336504 0)
(0.127926 -0.003483 0)
(0.127213 -0.00360794 0)
(0.12647 -0.00374077 0)
(0.125695 -0.00388107 0)
(0.124886 -0.00402936 0)
(0.12404 -0.00418538 0)
(0.123154 -0.00434936 0)
(0.122225 -0.00452105 0)
(0.121251 -0.00470042 0)
(0.120226 -0.00488713 0)
(0.119149 -0.0050809 0)
(0.118016 -0.00528119 0)
(0.116821 -0.00548743 0)
(0.115562 -0.00569883 0)
(0.114233 -0.00591447 0)
(0.112831 -0.00613321 0)
(0.11135 -0.00635376 0)
(0.109786 -0.00657457 0)
(0.108134 -0.00679389 0)
(0.106389 -0.00700974 0)
(0.104546 -0.00721989 0)
(0.102601 -0.00742189 0)
(0.100548 -0.00761309 0)
(0.0983847 -0.0077906 0)
(0.0961061 -0.00795141 0)
(0.0937092 -0.00809233 0)
(0.0911914 -0.00821014 0)
(0.0885513 -0.00830158 0)
(0.0857883 -0.00836342 0)
(0.0829031 -0.00839259 0)
(0.079898 -0.0083862 0)
(0.0767771 -0.00834166 0)
(0.0735463 -0.00825678 0)
(0.0702136 -0.00812987 0)
(0.0667895 -0.00795988 0)
(0.0632872 -0.00774652 0)
(0.0597225 -0.00749045 0)
(0.0561142 -0.00719337 0)
(0.0524842 -0.00685822 0)
(0.0488572 -0.00648923 0)
(0.0452606 -0.00609197 0)
(0.0417236 -0.00567333 0)
(0.0382765 -0.00524132 0)
(0.0349493 -0.00480484 0)
(0.0317701 -0.00437321 0)
(0.0287637 -0.00395559 0)
(0.0259499 -0.00356029 0)
(0.0233424 -0.00319401 0)
(0.0209483 -0.0028613 0)
(0.0187682 -0.00256429 0)
(0.0167964 -0.00230265 0)
(0.0150223 -0.00207411 0)
(0.0134319 -0.00187501 0)
(0.0120098 -0.00170114 0)
(0.0107398 -0.0015483 0)
(0.00960655 -0.00141293 0)
(0.00859557 -0.0012922 0)
(0.00769381 -0.00118414 0)
(0.00688927 -0.00108743 0)
(0.00617177 -0.00100123 0)
(0.00553187 -0.000924912 0)
(0.00496222 -0.00085781 0)
(0.00445558 -0.000799269 0)
(0.00400698 -0.000748215 0)
(0.00361063 -0.000703878 0)
(0.0032633 -0.000664746 0)
(0.00296003 -0.000630317 0)
(0.00269886 -0.000598777 0)
(0.0024754 -0.000570263 0)
(0.00228857 -0.000542751 0)
(0.00213473 -0.000517024 0)
(0.00201307 -0.00049112 0)
(0.00192128 -0.00046589 0)
(0.135262 -0.00122306 0)
(0.135021 -0.00134213 0)
(0.134677 -0.00146369 0)
(0.134365 -0.00154668 0)
(0.133991 -0.00163213 0)
(0.133629 -0.00168294 0)
(0.133228 -0.0017355 0)
(0.132828 -0.00176221 0)
(0.132403 -0.00178987 0)
(0.131975 -0.00179981 0)
(0.131529 -0.00181024 0)
(0.13108 -0.00180917 0)
(0.130617 -0.00180852 0)
(0.13015 -0.00180078 0)
(0.129672 -0.00179368 0)
(0.129191 -0.00178255 0)
(0.128703 -0.00177237 0)
(0.12821 -0.00176027 0)
(0.127712 -0.00174946 0)
(0.12721 -0.00173819 0)
(0.126702 -0.00172852 0)
(0.12619 -0.00171937 0)
(0.125674 -0.00171211 0)
(0.125154 -0.00170605 0)
(0.124628 -0.00170211 0)
(0.124098 -0.00169985 0)
(0.123563 -0.00169992 0)
(0.123022 -0.00170202 0)
(0.122476 -0.00170666 0)
(0.121923 -0.00171359 0)
(0.121364 -0.00172328 0)
(0.120798 -0.00173545 0)
(0.120223 -0.00175064 0)
(0.11964 -0.00176847 0)
(0.119048 -0.00178962 0)
(0.118446 -0.00181351 0)
(0.117833 -0.00184113 0)
(0.117208 -0.00187152 0)
(0.116571 -0.00190616 0)
(0.11592 -0.00194351 0)
(0.115254 -0.00198573 0)
(0.114572 -0.00203061 0)
(0.113872 -0.00208092 0)
(0.113154 -0.002134 0)
(0.112415 -0.0021928 0)
(0.111655 -0.0022549 0)
(0.110871 -0.00232259 0)
(0.110062 -0.00239416 0)
(0.109227 -0.00247132 0)
(0.108361 -0.00255283 0)
(0.107465 -0.00263988 0)
(0.106534 -0.00273162 0)
(0.105569 -0.0028288 0)
(0.104564 -0.00293081 0)
(0.103518 -0.00303806 0)
(0.102429 -0.00315007 0)
(0.101292 -0.00326695 0)
(0.100106 -0.00338823 0)
(0.0988661 -0.00351376 0)
(0.0975699 -0.00364299 0)
(0.0962141 -0.00377552 0)
(0.0947949 -0.00391063 0)
(0.0933088 -0.00404766 0)
(0.0917523 -0.00418568 0)
(0.0901218 -0.00432371 0)
(0.0884138 -0.00446055 0)
(0.0866248 -0.00459493 0)
(0.0847516 -0.00472533 0)
(0.0827912 -0.00485013 0)
(0.0807407 -0.00496753 0)
(0.0785978 -0.00507557 0)
(0.0763608 -0.00517217 0)
(0.0740283 -0.00525513 0)
(0.0716 -0.00532216 0)
(0.0690762 -0.00537093 0)
(0.0664586 -0.00539912 0)
(0.0637499 -0.0054045 0)
(0.0609545 -0.00538496 0)
(0.0580784 -0.00533865 0)
(0.0551296 -0.00526404 0)
(0.0521182 -0.00516006 0)
(0.0490567 -0.00502619 0)
(0.0459601 -0.00486265 0)
(0.0428458 -0.00467047 0)
(0.0397336 -0.00445167 0)
(0.0366456 -0.00420938 0)
(0.0336053 -0.00394784 0)
(0.0306373 -0.00367239 0)
(0.027766 -0.00338922 0)
(0.0250146 -0.00310506 0)
(0.0224037 -0.00282668 0)
(0.0199502 -0.00256032 0)
(0.017666 -0.0023111 0)
(0.0155575 -0.00208261 0)
(0.0136254 -0.00187657 0)
(0.0118657 -0.0016929 0)
(0.0102706 -0.00152998 0)
(0.00883027 -0.00138509 0)
(0.00753328 -0.00125507 0)
(0.00636749 -0.00113688 0)
(0.00532027 -0.00102829 0)
(0.00437906 -0.000928266 0)
(0.00353184 -0.00083695 0)
(0.00276788 -0.000755304 0)
(0.00207785 -0.000684341 0)
(0.00145408 -0.000624551 0)
(0.000889921 -0.000575537 0)
(0.000379809 -0.000536173 0)
(-8.16647e-05 -0.000504901 0)
(-0.000499126 -0.000480116 0)
(-0.000877498 -0.000460447 0)
(-0.00122067 -0.000444713 0)
(-0.001533 -0.00043216 0)
(-0.00181737 -0.000421934 0)
(-0.00207737 -0.000413749 0)
(-0.00231473 -0.000406758 0)
(-0.00253226 -0.000401087 0)
(-0.00273076 -0.000395693 0)
(-0.00291227 -0.000391173 0)
(-0.00307711 -0.000386177 0)
(-0.0032265 -0.000381761 0)
(-0.00336078 -0.000376313 0)
(-0.00348022 -0.00037111 0)
(0.110778 -0.000898788 0)
(0.110451 -0.000982178 0)
(0.110008 -0.00105407 0)
(0.109599 -0.00110775 0)
(0.109107 -0.0011582 0)
(0.108634 -0.00118907 0)
(0.108106 -0.00121983 0)
(0.107587 -0.00123451 0)
(0.107031 -0.00124964 0)
(0.106479 -0.00125302 0)
(0.105902 -0.00125668 0)
(0.105328 -0.00125233 0)
(0.104737 -0.00124817 0)
(0.104147 -0.00123887 0)
(0.103546 -0.00122986 0)
(0.102945 -0.00121785 0)
(0.102338 -0.00120636 0)
(0.101731 -0.00119339 0)
(0.101119 -0.00118123 0)
(0.100508 -0.00116868 0)
(0.0998936 -0.00115722 0)
(0.0992791 -0.00114614 0)
(0.0986622 -0.00113639 0)
(0.0980447 -0.00112754 0)
(0.0974249 -0.00112023 0)
(0.0968037 -0.00111421 0)
(0.0961799 -0.00110988 0)
(0.0955537 -0.00110711 0)
(0.0949241 -0.00110618 0)
(0.094291 -0.00110701 0)
(0.0936533 -0.00110978 0)
(0.0930108 -0.00111451 0)
(0.0923622 -0.00112127 0)
(0.0917071 -0.00113014 0)
(0.0910444 -0.00114113 0)
(0.0903732 -0.00115442 0)
(0.0896925 -0.00116988 0)
(0.0890012 -0.00118783 0)
(0.0882981 -0.00120801 0)
(0.0875821 -0.00123088 0)
(0.0868518 -0.00125603 0)
(0.0861059 -0.00128402 0)
(0.085343 -0.00131448 0)
(0.0845614 -0.00134772 0)
(0.0837597 -0.00138382 0)
(0.082936 -0.00142244 0)
(0.0820888 -0.00146434 0)
(0.0812159 -0.00150862 0)
(0.0803158 -0.00155624 0)
(0.079386 -0.00160626 0)
(0.0784249 -0.00165947 0)
(0.0774298 -0.00171509 0)
(0.0763989 -0.00177364 0)
(0.0753294 -0.00183448 0)
(0.0742193 -0.00189786 0)
(0.0730659 -0.00196324 0)
(0.071867 -0.00203059 0)
(0.0706198 -0.00209939 0)
(0.0693221 -0.00216942 0)
(0.0679711 -0.00224007 0)
(0.0665647 -0.0023109 0)
(0.0651005 -0.00238121 0)
(0.0635764 -0.00245036 0)
(0.0619904 -0.00251749 0)
(0.0603409 -0.00258175 0)
(0.0586264 -0.00264211 0)
(0.0568462 -0.00269753 0)
(0.0549996 -0.00274683 0)
(0.053087 -0.00278878 0)
(0.051109 -0.00282209 0)
(0.0490676 -0.00284544 0)
(0.0469653 -0.00285752 0)
(0.0448058 -0.00285706 0)
(0.0425941 -0.00284289 0)
(0.0403366 -0.00281402 0)
(0.0380409 -0.00276969 0)
(0.0357164 -0.0027095 0)
(0.0333739 -0.00263343 0)
(0.0310259 -0.00254197 0)
(0.0286862 -0.00243615 0)
(0.0263699 -0.00231757 0)
(0.024093 -0.0021884 0)
(0.0218718 -0.00205133 0)
(0.0197221 -0.00190943 0)
(0.0176585 -0.00176598 0)
(0.0156939 -0.00162427 0)
(0.0138382 -0.00148734 0)
(0.0120987 -0.00135769 0)
(0.0104796 -0.00123705 0)
(0.00898241 -0.00112612 0)
(0.00760647 -0.00102452 0)
(0.0063489 -0.000930771 0)
(0.0052049 -0.000842708 0)
(0.00416794 -0.000758264 0)
(0.00323004 -0.000676366 0)
(0.00238245 -0.000597566 0)
(0.00161642 -0.000523893 0)
(0.000923895 -0.000457943 0)
(0.000297832 -0.000401666 0)
(-0.000267712 -0.000355619 0)
(-0.000777947 -0.000318962 0)
(-0.00123762 -0.000290096 0)
(-0.00165153 -0.000267368 0)
(-0.00202452 -0.000249516 0)
(-0.00236176 -0.000235653 0)
(-0.00266816 -0.000225113 0)
(-0.00294861 -0.000217257 0)
(-0.00320713 -0.000211482 0)
(-0.00344746 -0.000207296 0)
(-0.00367224 -0.00020437 0)
(-0.00388409 -0.000202615 0)
(-0.00408458 -0.000201973 0)
(-0.00427569 -0.00020257 0)
(-0.00445826 -0.000204248 0)
(-0.00463391 -0.00020711 0)
(-0.00480296 -0.0002107 0)
(-0.00496672 -0.000215145 0)
(-0.00512511 -0.000219739 0)
(-0.00527909 -0.000224771 0)
(-0.00542842 -0.000229411 0)
(-0.00557356 -0.000234109 0)
(-0.00571438 -0.000238111 0)
(-0.0058507 -0.000241789 0)
(0.0744513 -0.000509471 0)
(0.0740778 -0.000563427 0)
(0.0735707 -0.000603001 0)
(0.0731114 -0.000635834 0)
(0.0725557 -0.000659596 0)
(0.0720327 -0.000673113 0)
(0.0714442 -0.00068123 0)
(0.0708785 -0.000680286 0)
(0.0702706 -0.000676384 0)
(0.0696796 -0.000666078 0)
(0.0690632 -0.000654445 0)
(0.0684604 -0.000638975 0)
(0.0678438 -0.00062328 0)
(0.0672389 -0.000605727 0)
(0.066628 -0.000588686 0)
(0.0660277 -0.000571145 0)
(0.0654263 -0.000554584 0)
(0.0648345 -0.000538385 0)
(0.0642446 -0.000523436 0)
(0.0636633 -0.000509355 0)
(0.0630853 -0.000496657 0)
(0.0625147 -0.000485092 0)
(0.0619479 -0.000474952 0)
(0.0613872 -0.000466062 0)
(0.0608298 -0.000458583 0)
(0.060277 -0.000452382 0)
(0.0597266 -0.000447552 0)
(0.0591791 -0.000443977 0)
(0.0586327 -0.00044173 0)
(0.0580874 -0.000440689 0)
(0.0575415 -0.000440941 0)
(0.0569948 -0.000442336 0)
(0.0564457 -0.000445014 0)
(0.0558937 -0.000448753 0)
(0.0553373 -0.000453802 0)
(0.0547758 -0.00045981 0)
(0.0542077 -0.000467196 0)
(0.0536322 -0.000475411 0)
(0.0530477 -0.000485114 0)
(0.0524535 -0.000495491 0)
(0.0518477 -0.000507482 0)
(0.0512297 -0.00052 0)
(0.0505974 -0.000534205 0)
(0.0499502 -0.000548876 0)
(0.0492861 -0.000565157 0)
(0.0486041 -0.000581967 0)
(0.0479024 -0.000600183 0)
(0.0471797 -0.000618949 0)
(0.0464346 -0.000638941 0)
(0.0456653 -0.000659447 0)
(0.0448706 -0.000680947 0)
(0.0440487 -0.000702855 0)
(0.0431985 -0.000725456 0)
(0.0423181 -0.000748263 0)
(0.0414066 -0.000771386 0)
(0.0404623 -0.000794397 0)
(0.0394844 -0.000817258 0)
(0.0384714 -0.000839563 0)
(0.0374228 -0.00086115 0)
(0.0363376 -0.000881606 0)
(0.0352157 -0.000900671 0)
(0.0340567 -0.000917911 0)
(0.032861 -0.000932992 0)
(0.0316292 -0.000945466 0)
(0.0303625 -0.000954955 0)
(0.0290623 -0.000961019 0)
(0.0277311 -0.000963286 0)
(0.0263716 -0.000961369 0)
(0.0249875 -0.000954961 0)
(0.0235829 -0.000943795 0)
(0.0221631 -0.000927715 0)
(0.0207336 -0.000906655 0)
(0.0193009 -0.000880706 0)
(0.0178719 -0.000850103 0)
(0.016454 -0.000815274 0)
(0.0150549 -0.000776832 0)
(0.0136824 -0.000735589 0)
(0.0123441 -0.000692521 0)
(0.0110471 -0.000648727 0)
(0.00979827 -0.000605321 0)
(0.00860356 -0.000563304 0)
(0.00746807 -0.000523379 0)
(0.00639596 -0.000485781 0)
(0.00539027 -0.000450148 0)
(0.00445292 -0.00041555 0)
(0.00358461 -0.000380728 0)
(0.00278482 -0.000344555 0)
(0.00205187 -0.000306562 0)
(0.00138299 -0.000267303 0)
(0.000774613 -0.000228318 0)
(0.000222649 -0.000191662 0)
(-0.000277029 -0.000159211 0)
(-0.000728184 -0.000132078 0)
(-0.00113396 -0.000110432 0)
(-0.00149696 -9.37526e-05 0)
(-0.00181972 -8.12668e-05 0)
(-0.00210523 -7.22444e-05 0)
(-0.0023573 -6.60079e-05 0)
(-0.00258045 -6.17688e-05 0)
(-0.00277935 -5.85743e-05 0)
(-0.00295827 -5.54773e-05 0)
(-0.00312067 -5.18662e-05 0)
(-0.00326933 -4.76815e-05 0)
(-0.00340638 -4.34001e-05 0)
(-0.00353385 -3.97606e-05 0)
(-0.00365346 -3.74378e-05 0)
(-0.00376704 -3.68073e-05 0)
(-0.00387592 -3.7886e-05 0)
(-0.00398154 -4.04428e-05 0)
(-0.00408472 -4.40945e-05 0)
(-0.00418656 -4.85063e-05 0)