/*--------------------------------*- C++ -*----------------------------------*\
| =========                 |                                                 |
| \\      /  F ield         | OpenFOAM: The Open Source CFD Toolbox           |
|  \\    /   O peration     | Version:  4.1                                   |
|   \\  /    A nd           | Web:      www.OpenFOAM.org                      |
|    \\/     M anipulation  |                                                 |
\*---------------------------------------------------------------------------*/
FoamFile
{
    version     2.0;
    format      ascii;
    class       volScalarField;
    location    "71";
    object      p;
}
// * * * * * * * * * * * * * * * * * * * * * * * * * * * * * * * * * * * * * //

dimensions      [1 -1 -2 0 0 0 0];

internalField   nonuniform List<scalar> 
3264
(
0.713193
0.713185
0.71317
0.713149
0.713125
0.713098
0.713073
0.713049
0.71303
0.713018
0.713014
0.71302
0.713038
0.713068
0.713112
0.713171
0.713243
0.713331
0.713432
0.713547
0.713675
0.713815
0.713964
0.714122
0.714287
0.714456
0.714628
0.7148
0.71497
0.715136
0.715296
0.715448
0.715591
0.715723
0.715843
0.71595
0.716044
0.716124
0.716191
0.716244
0.716285
0.716315
0.716335
0.716346
0.71635
0.716349
0.716344
0.716336
0.716326
0.716314
0.716302
0.71629
0.716278
0.716265
0.716253
0.716241
0.716229
0.716217
0.716205
0.716193
0.71618
0.716168
0.716155
0.716142
0.716129
0.716116
0.716103
0.71609
0.716076
0.716063
0.716049
0.716036
0.716022
0.716009
0.715995
0.715982
0.715968
0.715955
0.715941
0.715927
0.715914
0.7159
0.715887
0.715873
0.715859
0.715846
0.715832
0.715819
0.715805
0.715791
0.715778
0.715764
0.71575
0.715737
0.715723
0.71571
0.715696
0.715682
0.715669
0.715655
0.715641
0.715628
0.715614
0.715601
0.715587
0.715573
0.71556
0.715546
0.715532
0.715519
0.715505
0.715492
0.715478
0.715464
0.715451
0.715437
0.715423
0.71541
0.715396
0.715383
0.715369
0.715355
0.715342
0.715328
0.715315
0.715301
0.715287
0.715274
0.71526
0.715246
0.715233
0.715219
0.715206
0.715192
0.715178
0.715165
0.715151
0.715137
0.715124
0.71511
0.715097
0.715083
0.715069
0.715056
0.715042
0.715028
0.715015
0.715001
0.714988
0.714974
0.71496
0.714947
0.714933
0.714919
0.714906
0.714892
0.714879
0.714865
0.714851
0.714838
0.714824
0.71481
0.714797
0.714783
0.71477
0.714756
0.714742
0.714729
0.714715
0.714701
0.714688
0.714674
0.714661
0.714647
0.714633
0.71462
0.714606
0.714593
0.714579
0.714565
0.714552
0.714538
0.714524
0.714511
0.714497
0.714484
0.71447
0.714456
0.714443
0.714429
0.714415
0.714402
0.714388
0.714375
0.714361
0.714347
0.714334
0.71432
0.714306
0.714293
0.713205
0.713196
0.713184
0.713165
0.71314
0.713112
0.713083
0.713055
0.713032
0.713016
0.713009
0.713013
0.713028
0.713056
0.713099
0.713155
0.713226
0.713312
0.713413
0.713527
0.713654
0.713793
0.713942
0.7141
0.714264
0.714433
0.714605
0.714777
0.714947
0.715114
0.715275
0.715428
0.715573
0.715706
0.715828
0.715938
0.716034
0.716117
0.716186
0.716242
0.716285
0.716316
0.716337
0.716349
0.716354
0.716352
0.716347
0.716338
0.716327
0.716316
0.716303
0.716291
0.716278
0.716266
0.716254
0.716241
0.716229
0.716217
0.716205
0.716193
0.71618
0.716168
0.716155
0.716142
0.716129
0.716116
0.716103
0.71609
0.716076
0.716063
0.716049
0.716036
0.716022
0.716009
0.715995
0.715982
0.715968
0.715955
0.715941
0.715927
0.715914
0.7159
0.715887
0.715873
0.715859
0.715846
0.715832
0.715819
0.715805
0.715791
0.715778
0.715764
0.71575
0.715737
0.715723
0.71571
0.715696
0.715682
0.715669
0.715655
0.715641
0.715628
0.715614
0.715601
0.715587
0.715573
0.71556
0.715546
0.715532
0.715519
0.715505
0.715492
0.715478
0.715464
0.715451
0.715437
0.715423
0.71541
0.715396
0.715383
0.715369
0.715355
0.715342
0.715328
0.715315
0.715301
0.715287
0.715274
0.71526
0.715246
0.715233
0.715219
0.715206
0.715192
0.715178
0.715165
0.715151
0.715137
0.715124
0.71511
0.715097
0.715083
0.715069
0.715056
0.715042
0.715028
0.715015
0.715001
0.714988
0.714974
0.71496
0.714947
0.714933
0.714919
0.714906
0.714892
0.714879
0.714865
0.714851
0.714838
0.714824
0.71481
0.714797
0.714783
0.71477
0.714756
0.714742
0.714729
0.714715
0.714701
0.714688
0.714674
0.714661
0.714647
0.714633
0.71462
0.714606
0.714593
0.714579
0.714565
0.714552
0.714538
0.714524
0.714511
0.714497
0.714484
0.71447
0.714456
0.714443
0.714429
0.714415
0.714402
0.714388
0.714375
0.714361
0.714347
0.714334
0.71432
0.714306
0.714293
0.713216
0.713206
0.713192
0.713169
0.713139
0.713106
0.713073
0.713042
0.713017
0.712999
0.71299
0.712992
0.713006
0.713033
0.713074
0.713129
0.7132
0.713285
0.713384
0.713498
0.713624
0.713762
0.713911
0.714068
0.714232
0.714401
0.714572
0.714745
0.714915
0.715082
0.715244
0.715398
0.715544
0.71568
0.715804
0.715916
0.716015
0.716101
0.716173
0.716232
0.716278
0.716312
0.716335
0.716349
0.716354
0.716354
0.716349
0.71634
0.716329
0.716317
0.716304
0.716292
0.716279
0.716267
0.716254
0.716242
0.71623
0.716218
0.716205
0.716193
0.716181
0.716168
0.716155
0.716142
0.716129
0.716116
0.716103
0.71609
0.716076
0.716063
0.71605
0.716036
0.716023
0.716009
0.715995
0.715982
0.715968
0.715955
0.715941
0.715927
0.715914
0.7159
0.715887
0.715873
0.715859
0.715846
0.715832
0.715819
0.715805
0.715791
0.715778
0.715764
0.71575
0.715737
0.715723
0.71571
0.715696
0.715682
0.715669
0.715655
0.715641
0.715628
0.715614
0.715601
0.715587
0.715573
0.71556
0.715546
0.715532
0.715519
0.715505
0.715492
0.715478
0.715464
0.715451
0.715437
0.715423
0.71541
0.715396
0.715383
0.715369
0.715355
0.715342
0.715328
0.715315
0.715301
0.715287
0.715274
0.71526
0.715246
0.715233
0.715219
0.715206
0.715192
0.715178
0.715165
0.715151
0.715137
0.715124
0.71511
0.715097
0.715083
0.715069
0.715056
0.715042
0.715028
0.715015
0.715001
0.714988
0.714974
0.71496
0.714947
0.714933
0.714919
0.714906
0.714892
0.714879
0.714865
0.714851
0.714838
0.714824
0.71481
0.714797
0.714783
0.71477
0.714756
0.714742
0.714729
0.714715
0.714701
0.714688
0.714674
0.714661
0.714647
0.714633
0.71462
0.714606
0.714593
0.714579
0.714565
0.714552
0.714538
0.714524
0.714511
0.714497
0.714484
0.71447
0.714456
0.714443
0.714429
0.714415
0.714402
0.714388
0.714375
0.714361
0.714347
0.714334
0.71432
0.714306
0.714293
0.713215
0.713208
0.713191
0.713166
0.713132
0.713096
0.713059
0.713025
0.712997
0.712977
0.712967
0.712967
0.712979
0.713004
0.713044
0.713097
0.713166
0.71325
0.713348
0.71346
0.713585
0.713722
0.713869
0.714025
0.714188
0.714356
0.714527
0.714698
0.714868
0.715034
0.715196
0.715351
0.715498
0.715636
0.715762
0.715878
0.71598
0.71607
0.716147
0.71621
0.716261
0.716299
0.716325
0.716342
0.71635
0.716352
0.716348
0.71634
0.71633
0.716318
0.716306
0.716294
0.716281
0.716268
0.716256
0.716244
0.716231
0.716219
0.716206
0.716194
0.716181
0.716168
0.716156
0.716143
0.71613
0.716116
0.716103
0.71609
0.716076
0.716063
0.71605
0.716036
0.716023
0.716009
0.715995
0.715982
0.715968
0.715955
0.715941
0.715927
0.715914
0.7159
0.715887
0.715873
0.715859
0.715846
0.715832
0.715819
0.715805
0.715791
0.715778
0.715764
0.71575
0.715737
0.715723
0.71571
0.715696
0.715682
0.715669
0.715655
0.715641
0.715628
0.715614
0.715601
0.715587
0.715573
0.71556
0.715546
0.715532
0.715519
0.715505
0.715492
0.715478
0.715464
0.715451
0.715437
0.715423
0.71541
0.715396
0.715383
0.715369
0.715355
0.715342
0.715328
0.715315
0.715301
0.715287
0.715274
0.71526
0.715246
0.715233
0.715219
0.715206
0.715192
0.715178
0.715165
0.715151
0.715137
0.715124
0.71511
0.715097
0.715083
0.715069
0.715056
0.715042
0.715028
0.715015
0.715001
0.714988
0.714974
0.71496
0.714947
0.714933
0.714919
0.714906
0.714892
0.714879
0.714865
0.714851
0.714838
0.714824
0.71481
0.714797
0.714783
0.71477
0.714756
0.714742
0.714729
0.714715
0.714701
0.714688
0.714674
0.714661
0.714647
0.714633
0.71462
0.714606
0.714593
0.714579
0.714565
0.714552
0.714538
0.714524
0.714511
0.714497
0.714484
0.71447
0.714456
0.714443
0.714429
0.714415
0.714402
0.714388
0.714375
0.714361
0.714347
0.714334
0.71432
0.714306
0.714293
0.71321
0.713207
0.71319
0.713163
0.713127
0.713088
0.713049
0.713013
0.712984
0.712962
0.71295
0.712948
0.712959
0.712982
0.71302
0.713072
0.713139
0.713221
0.713317
0.713428
0.713551
0.713686
0.713832
0.713985
0.714146
0.714311
0.714479
0.714647
0.714815
0.714979
0.715138
0.715291
0.715438
0.715575
0.715704
0.715823
0.71593
0.716026
0.716109
0.716178
0.716235
0.716278
0.71631
0.716331
0.716343
0.716347
0.716345
0.716339
0.71633
0.716319
0.716308
0.716295
0.716283
0.71627
0.716258
0.716245
0.716233
0.71622
0.716208
0.716195
0.716182
0.716169
0.716156
0.716143
0.71613
0.716117
0.716103
0.71609
0.716077
0.716063
0.71605
0.716036
0.716023
0.716009
0.715995
0.715982
0.715968
0.715955
0.715941
0.715927
0.715914
0.7159
0.715887
0.715873
0.715859
0.715846
0.715832
0.715819
0.715805
0.715791
0.715778
0.715764
0.71575
0.715737
0.715723
0.71571
0.715696
0.715682
0.715669
0.715655
0.715641
0.715628
0.715614
0.715601
0.715587
0.715573
0.71556
0.715546
0.715532
0.715519
0.715505
0.715492
0.715478
0.715464
0.715451
0.715437
0.715423
0.71541
0.715396
0.715383
0.715369
0.715355
0.715342
0.715328
0.715315
0.715301
0.715287
0.715274
0.71526
0.715246
0.715233
0.715219
0.715206
0.715192
0.715178
0.715165
0.715151
0.715137
0.715124
0.71511
0.715097
0.715083
0.715069
0.715056
0.715042
0.715028
0.715015
0.715001
0.714988
0.714974
0.71496
0.714947
0.714933
0.714919
0.714906
0.714892
0.714879
0.714865
0.714851
0.714838
0.714824
0.71481
0.714797
0.714783
0.71477
0.714756
0.714742
0.714729
0.714715
0.714701
0.714688
0.714674
0.714661
0.714647
0.714633
0.71462
0.714606
0.714593
0.714579
0.714565
0.714552
0.714538
0.714524
0.714511
0.714497
0.714484
0.71447
0.714456
0.714443
0.714429
0.714415
0.714402
0.714388
0.714375
0.714361
0.714347
0.714334
0.71432
0.714306
0.714293
0.713177
0.713196
0.713184
0.713164
0.71313
0.713092
0.713052
0.713015
0.712983
0.712959
0.712945
0.712941
0.71295
0.712971
0.713007
0.713058
0.713123
0.713203
0.713297
0.713405
0.713526
0.713658
0.7138
0.71395
0.714106
0.714266
0.714429
0.714591
0.714752
0.71491
0.715063
0.715211
0.715352
0.715486
0.715613
0.715732
0.715843
0.715946
0.716039
0.716121
0.71619
0.716246
0.716288
0.716317
0.716334
0.716342
0.716343
0.716338
0.71633
0.71632
0.716309
0.716298
0.716285
0.716273
0.71626
0.716248
0.716235
0.716222
0.716209
0.716196
0.716183
0.71617
0.716157
0.716144
0.71613
0.716117
0.716104
0.71609
0.716077
0.716063
0.71605
0.716036
0.716023
0.716009
0.715996
0.715982
0.715968
0.715955
0.715941
0.715927
0.715914
0.7159
0.715887
0.715873
0.715859
0.715846
0.715832
0.715819
0.715805
0.715791
0.715778
0.715764
0.71575
0.715737
0.715723
0.71571
0.715696
0.715682
0.715669
0.715655
0.715641
0.715628
0.715614
0.715601
0.715587
0.715573
0.71556
0.715546
0.715532
0.715519
0.715505
0.715492
0.715478
0.715464
0.715451
0.715437
0.715423
0.71541
0.715396
0.715383
0.715369
0.715355
0.715342
0.715328
0.715315
0.715301
0.715287
0.715274
0.71526
0.715246
0.715233
0.715219
0.715206
0.715192
0.715178
0.715165
0.715151
0.715137
0.715124
0.71511
0.715097
0.715083
0.715069
0.715056
0.715042
0.715028
0.715015
0.715001
0.714988
0.714974
0.71496
0.714947
0.714933
0.714919
0.714906
0.714892
0.714879
0.714865
0.714851
0.714838
0.714824
0.71481
0.714797
0.714783
0.71477
0.714756
0.714742
0.714729
0.714715
0.714701
0.714688
0.714674
0.714661
0.714647
0.714633
0.71462
0.714606
0.714593
0.714579
0.714565
0.714552
0.714538
0.714524
0.714511
0.714497
0.714484
0.71447
0.714456
0.714443
0.714429
0.714415
0.714402
0.714388
0.714375
0.714361
0.714347
0.714334
0.71432
0.714306
0.714293
0.713193
0.713217
0.713207
0.713187
0.71315
0.71311
0.713067
0.713028
0.712994
0.712969
0.712952
0.712947
0.712955
0.712975
0.71301
0.713059
0.713123
0.713201
0.713294
0.713399
0.713517
0.713645
0.713782
0.713925
0.714074
0.714226
0.714378
0.71453
0.71468
0.714826
0.714967
0.715103
0.715234
0.71536
0.715481
0.715597
0.715709
0.715817
0.71592
0.716017
0.716104
0.71618
0.716242
0.716288
0.716318
0.716334
0.716339
0.716338
0.716331
0.716322
0.716312
0.7163
0.716288
0.716275
0.716263
0.71625
0.716237
0.716224
0.716211
0.716198
0.716184
0.716171
0.716158
0.716144
0.716131
0.716118
0.716104
0.716091
0.716077
0.716063
0.71605
0.716036
0.716023
0.716009
0.715996
0.715982
0.715968
0.715955
0.715941
0.715928
0.715914
0.7159
0.715887
0.715873
0.715859
0.715846
0.715832
0.715819
0.715805
0.715791
0.715778
0.715764
0.71575
0.715737
0.715723
0.71571
0.715696
0.715682
0.715669
0.715655
0.715641
0.715628
0.715614
0.715601
0.715587
0.715573
0.71556
0.715546
0.715532
0.715519
0.715505
0.715492
0.715478
0.715464
0.715451
0.715437
0.715423
0.71541
0.715396
0.715383
0.715369
0.715355
0.715342
0.715328
0.715315
0.715301
0.715287
0.715274
0.71526
0.715246
0.715233
0.715219
0.715206
0.715192
0.715178
0.715165
0.715151
0.715137
0.715124
0.71511
0.715097
0.715083
0.715069
0.715056
0.715042
0.715028
0.715015
0.715001
0.714988
0.714974
0.71496
0.714947
0.714933
0.714919
0.714906
0.714892
0.714879
0.714865
0.714851
0.714838
0.714824
0.71481
0.714797
0.714783
0.71477
0.714756
0.714742
0.714729
0.714715
0.714701
0.714688
0.714674
0.714661
0.714647
0.714633
0.71462
0.714606
0.714593
0.714579
0.714565
0.714552
0.714538
0.714524
0.714511
0.714497
0.714484
0.71447
0.714456
0.714443
0.714429
0.714415
0.714402
0.714388
0.714375
0.714361
0.714347
0.714334
0.71432
0.714306
0.714293
0.713039
0.713197
0.713211
0.713211
0.713178
0.713137
0.713094
0.713053
0.713018
0.712991
0.712975
0.71297
0.712977
0.712998
0.713033
0.713083
0.713147
0.713224
0.713315
0.713418
0.713531
0.713654
0.713783
0.713918
0.714056
0.714195
0.714333
0.714468
0.7146
0.714728
0.714851
0.714969
0.715084
0.715196
0.715307
0.715418
0.71553
0.715643
0.715757
0.71587
0.715979
0.71608
0.716167
0.716236
0.716286
0.716316
0.716331
0.716335
0.716332
0.716324
0.716314
0.716303
0.716291
0.716278
0.716266
0.716252
0.716239
0.716226
0.716213
0.716199
0.716186
0.716172
0.716159
0.716145
0.716132
0.716118
0.716104
0.716091
0.716077
0.716064
0.71605
0.716036
0.716023
0.716009
0.715996
0.715982
0.715968
0.715955
0.715941
0.715928
0.715914
0.7159
0.715887
0.715873
0.715859
0.715846
0.715832
0.715819
0.715805
0.715791
0.715778
0.715764
0.71575
0.715737
0.715723
0.71571
0.715696
0.715682
0.715669
0.715655
0.715641
0.715628
0.715614
0.715601
0.715587
0.715573
0.71556
0.715546
0.715532
0.715519
0.715505
0.715492
0.715478
0.715464
0.715451
0.715437
0.715423
0.71541
0.715396
0.715383
0.715369
0.715355
0.715342
0.715328
0.715315
0.715301
0.715287
0.715274
0.71526
0.715246
0.715233
0.715219
0.715206
0.715192
0.715178
0.715165
0.715151
0.715137
0.715124
0.71511
0.715097
0.715083
0.715069
0.715056
0.715042
0.715028
0.715015
0.715001
0.714988
0.714974
0.71496
0.714947
0.714933
0.714919
0.714906
0.714892
0.714879
0.714865
0.714851
0.714838
0.714824
0.71481
0.714797
0.714783
0.71477
0.714756
0.714742
0.714729
0.714715
0.714701
0.714688
0.714674
0.714661
0.714647
0.714633
0.71462
0.714606
0.714593
0.714579
0.714565
0.714552
0.714538
0.714524
0.714511
0.714497
0.714484
0.71447
0.714456
0.714443
0.714429
0.714415
0.714402
0.714388
0.714375
0.714361
0.714347
0.714334
0.71432
0.714306
0.714293
0.713827
0.71377
0.713705
0.713636
0.71356
0.713477
0.713385
0.713254
0.713835
0.713788
0.713723
0.713652
0.713575
0.713493
0.713397
0.713292
0.713842
0.713802
0.713743
0.713676
0.713604
0.71353
0.713456
0.713381
0.713856
0.713822
0.713768
0.713707
0.713642
0.713576
0.713512
0.713452
0.713872
0.713841
0.713792
0.713736
0.713678
0.713621
0.713569
0.713523
0.71389
0.713858
0.713811
0.713759
0.713707
0.713658
0.713614
0.713576
0.713908
0.713872
0.713824
0.713774
0.713726
0.713682
0.713642
0.713609
0.713918
0.713872
0.713824
0.713776
0.713731
0.71369
0.713652
0.71362
0.713175
0.713205
0.713225
0.713219
0.713193
0.713157
0.713118
0.713081
0.713049
0.713026
0.713014
0.713013
0.713024
0.713049
0.713088
0.71314
0.713206
0.713284
0.713374
0.713474
0.713582
0.713697
0.713817
0.713939
0.714061
0.714182
0.714299
0.714411
0.714519
0.714622
0.71472
0.714816
0.714911
0.715008
0.715108
0.715215
0.715328
0.715448
0.715575
0.715706
0.715837
0.715963
0.716077
0.716171
0.716243
0.71629
0.716317
0.716329
0.71633
0.716325
0.716316
0.716306
0.716294
0.716281
0.716268
0.716255
0.716242
0.716228
0.716214
0.716201
0.716187
0.716173
0.71616
0.716146
0.716132
0.716118
0.716105
0.716091
0.716077
0.716064
0.71605
0.716037
0.716023
0.716009
0.715996
0.715982
0.715968
0.715955
0.715941
0.715928
0.715914
0.7159
0.715887
0.715873
0.715859
0.715846
0.715832
0.715819
0.715805
0.715791
0.715778
0.715764
0.71575
0.715737
0.715723
0.71571
0.715696
0.715682
0.715669
0.715655
0.715641
0.715628
0.715614
0.715601
0.715587
0.715573
0.71556
0.715546
0.715532
0.715519
0.715505
0.715492
0.715478
0.715464
0.715451
0.715437
0.715423
0.71541
0.715396
0.715383
0.715369
0.715355
0.715342
0.715328
0.715315
0.715301
0.715287
0.715274
0.71526
0.715246
0.715233
0.715219
0.715206
0.715192
0.715178
0.715165
0.715151
0.715137
0.715124
0.71511
0.715097
0.715083
0.715069
0.715056
0.715042
0.715028
0.715015
0.715001
0.714988
0.714974
0.71496
0.714947
0.714933
0.714919
0.714906
0.714892
0.714879
0.714865
0.714851
0.714838
0.714824
0.71481
0.714797
0.714783
0.71477
0.714756
0.714742
0.714729
0.714715
0.714701
0.714688
0.714674
0.714661
0.714647
0.714633
0.71462
0.714606
0.714593
0.714579
0.714565
0.714552
0.714538
0.714524
0.714511
0.714497
0.714484
0.71447
0.714456
0.714443
0.714429
0.714415
0.714402
0.714388
0.714375
0.714361
0.714347
0.714334
0.71432
0.714306
0.714293
0.713208
0.713216
0.713226
0.713227
0.713213
0.71319
0.713162
0.713135
0.713113
0.713099
0.713095
0.713102
0.713121
0.713153
0.713197
0.713254
0.713322
0.7134
0.713487
0.713582
0.713683
0.713787
0.713892
0.713995
0.714096
0.714191
0.71428
0.714363
0.71444
0.714513
0.714585
0.714658
0.714735
0.714821
0.714917
0.715025
0.715145
0.715276
0.715418
0.715567
0.715717
0.715864
0.715998
0.716113
0.716201
0.716263
0.716301
0.716321
0.716327
0.716325
0.716319
0.716309
0.716297
0.716285
0.716272
0.716258
0.716244
0.71623
0.716216
0.716202
0.716188
0.716174
0.71616
0.716147
0.716133
0.716119
0.716105
0.716091
0.716078
0.716064
0.71605
0.716037
0.716023
0.716009
0.715996
0.715982
0.715968
0.715955
0.715941
0.715928
0.715914
0.7159
0.715887
0.715873
0.715859
0.715846
0.715832
0.715819
0.715805
0.715791
0.715778
0.715764
0.71575
0.715737
0.715723
0.71571
0.715696
0.715682
0.715669
0.715655
0.715641
0.715628
0.715614
0.715601
0.715587
0.715573
0.71556
0.715546
0.715532
0.715519
0.715505
0.715492
0.715478
0.715464
0.715451
0.715437
0.715423
0.71541
0.715396
0.715383
0.715369
0.715355
0.715342
0.715328
0.715315
0.715301
0.715287
0.715274
0.71526
0.715246
0.715233
0.715219
0.715206
0.715192
0.715178
0.715165
0.715151
0.715137
0.715124
0.71511
0.715097
0.715083
0.715069
0.715056
0.715042
0.715028
0.715015
0.715001
0.714988
0.714974
0.71496
0.714947
0.714933
0.714919
0.714906
0.714892
0.714879
0.714865
0.714851
0.714838
0.714824
0.71481
0.714797
0.714783
0.71477
0.714756
0.714742
0.714729
0.714715
0.714701
0.714688
0.714674
0.714661
0.714647
0.714633
0.71462
0.714606
0.714593
0.714579
0.714565
0.714552
0.714538
0.714524
0.714511
0.714497
0.714484
0.71447
0.714456
0.714443
0.714429
0.714415
0.714402
0.714388
0.714375
0.714361
0.714347
0.714334
0.71432
0.714306
0.714293
0.713323
0.713297
0.713288
0.713281
0.713269
0.713254
0.713238
0.713224
0.713215
0.713213
0.71322
0.713239
0.713268
0.713309
0.713361
0.713422
0.713492
0.713568
0.713651
0.713738
0.713826
0.713914
0.713998
0.714076
0.714148
0.714211
0.714267
0.714317
0.714363
0.714409
0.71446
0.714521
0.714593
0.714678
0.714779
0.714895
0.715025
0.715169
0.715323
0.715485
0.715648
0.715806
0.715951
0.716075
0.716173
0.716243
0.716289
0.716314
0.716325
0.716326
0.716321
0.716312
0.716301
0.716288
0.716275
0.716261
0.716247
0.716232
0.716218
0.716204
0.71619
0.716175
0.716161
0.716147
0.716133
0.716119
0.716106
0.716092
0.716078
0.716064
0.71605
0.716037
0.716023
0.716009
0.715996
0.715982
0.715968
0.715955
0.715941
0.715928
0.715914
0.7159
0.715887
0.715873
0.715859
0.715846
0.715832
0.715819
0.715805
0.715791
0.715778
0.715764
0.71575
0.715737
0.715723
0.71571
0.715696
0.715682
0.715669
0.715655
0.715641
0.715628
0.715614
0.715601
0.715587
0.715573
0.71556
0.715546
0.715532
0.715519
0.715505
0.715492
0.715478
0.715464
0.715451
0.715437
0.715423
0.71541
0.715396
0.715383
0.715369
0.715355
0.715342
0.715328
0.715315
0.715301
0.715287
0.715274
0.71526
0.715246
0.715233
0.715219
0.715206
0.715192
0.715178
0.715165
0.715151
0.715137
0.715124
0.71511
0.715097
0.715083
0.715069
0.715056
0.715042
0.715028
0.715015
0.715001
0.714988
0.714974
0.71496
0.714947
0.714933
0.714919
0.714906
0.714892
0.714879
0.714865
0.714851
0.714838
0.714824
0.71481
0.714797
0.714783
0.71477
0.714756
0.714742
0.714729
0.714715
0.714701
0.714688
0.714674
0.714661
0.714647
0.714633
0.71462
0.714606
0.714593
0.714579
0.714565
0.714552
0.714538
0.714524
0.714511
0.714497
0.714484
0.71447
0.714456
0.714443
0.714429
0.714415
0.714402
0.714388
0.714375
0.714361
0.714347
0.714334
0.71432
0.714306
0.714293
0.713405
0.713377
0.713362
0.713353
0.713345
0.713338
0.713332
0.713331
0.713335
0.713346
0.713367
0.713398
0.713439
0.71349
0.713549
0.713615
0.713686
0.713758
0.713832
0.713906
0.713976
0.714041
0.714098
0.714147
0.714187
0.71422
0.714247
0.714273
0.714301
0.714336
0.714381
0.714441
0.714518
0.714612
0.714723
0.714849
0.714989
0.71514
0.715301
0.715466
0.715632
0.715792
0.715937
0.716061
0.71616
0.716233
0.716281
0.71631
0.716324
0.716327
0.716324
0.716315
0.716305
0.716292
0.716278
0.716264
0.716249
0.716234
0.71622
0.716205
0.716191
0.716176
0.716162
0.716148
0.716134
0.71612
0.716106
0.716092
0.716078
0.716064
0.716051
0.716037
0.716023
0.716009
0.715996
0.715982
0.715968
0.715955
0.715941
0.715928
0.715914
0.7159
0.715887
0.715873
0.715859
0.715846
0.715832
0.715819
0.715805
0.715791
0.715778
0.715764
0.71575
0.715737
0.715723
0.71571
0.715696
0.715682
0.715669
0.715655
0.715641
0.715628
0.715614
0.715601
0.715587
0.715573
0.71556
0.715546
0.715532
0.715519
0.715505
0.715492
0.715478
0.715464
0.715451
0.715437
0.715423
0.71541
0.715396
0.715383
0.715369
0.715355
0.715342
0.715328
0.715315
0.715301
0.715287
0.715274
0.71526
0.715246
0.715233
0.715219
0.715206
0.715192
0.715178
0.715165
0.715151
0.715137
0.715124
0.71511
0.715097
0.715083
0.715069
0.715056
0.715042
0.715028
0.715015
0.715001
0.714988
0.714974
0.71496
0.714947
0.714933
0.714919
0.714906
0.714892
0.714879
0.714865
0.714851
0.714838
0.714824
0.71481
0.714797
0.714783
0.71477
0.714756
0.714742
0.714729
0.714715
0.714701
0.714688
0.714674
0.714661
0.714647
0.714633
0.71462
0.714606
0.714593
0.714579
0.714565
0.714552
0.714538
0.714524
0.714511
0.714497
0.714484
0.71447
0.714456
0.714443
0.714429
0.714415
0.714402
0.714388
0.714375
0.714361
0.714347
0.714334
0.71432
0.714306
0.714293
0.713486
0.713461
0.713445
0.713436
0.713431
0.71343
0.713433
0.713441
0.713456
0.713479
0.713511
0.713553
0.713604
0.713663
0.713727
0.713793
0.713857
0.713917
0.713976
0.714033
0.714086
0.714131
0.714168
0.714194
0.714209
0.714215
0.714219
0.714231
0.714258
0.714301
0.714359
0.714431
0.714518
0.714619
0.714733
0.714862
0.715003
0.715156
0.715316
0.715481
0.715644
0.715799
0.715939
0.716059
0.716156
0.716228
0.716277
0.716308
0.716324
0.716329
0.716326
0.716319
0.716308
0.716295
0.716281
0.716266
0.716251
0.716236
0.716221
0.716206
0.716192
0.716177
0.716163
0.716148
0.716134
0.71612
0.716106
0.716092
0.716078
0.716064
0.716051
0.716037
0.716023
0.716009
0.715996
0.715982
0.715968
0.715955
0.715941
0.715928
0.715914
0.7159
0.715887
0.715873
0.715859
0.715846
0.715832
0.715819
0.715805
0.715791
0.715778
0.715764
0.71575
0.715737
0.715723
0.71571
0.715696
0.715682
0.715669
0.715655
0.715641
0.715628
0.715614
0.715601
0.715587
0.715573
0.71556
0.715546
0.715532
0.715519
0.715505
0.715492
0.715478
0.715464
0.715451
0.715437
0.715423
0.71541
0.715396
0.715383
0.715369
0.715355
0.715342
0.715328
0.715315
0.715301
0.715287
0.715274
0.71526
0.715246
0.715233
0.715219
0.715206
0.715192
0.715178
0.715165
0.715151
0.715137
0.715124
0.71511
0.715097
0.715083
0.715069
0.715056
0.715042
0.715028
0.715015
0.715001
0.714988
0.714974
0.71496
0.714947
0.714933
0.714919
0.714906
0.714892
0.714879
0.714865
0.714851
0.714838
0.714824
0.71481
0.714797
0.714783
0.71477
0.714756
0.714742
0.714729
0.714715
0.714701
0.714688
0.714674
0.714661
0.714647
0.714633
0.71462
0.714606
0.714593
0.714579
0.714565
0.714552
0.714538
0.714524
0.714511
0.714497
0.714484
0.71447
0.714456
0.714443
0.714429
0.714415
0.714402
0.714388
0.714375
0.714361
0.714347
0.714334
0.71432
0.714306
0.714293
0.713546
0.713524
0.71351
0.713502
0.713499
0.713502
0.713511
0.713526
0.713548
0.713578
0.713615
0.713661
0.713715
0.713776
0.713842
0.713907
0.713967
0.714022
0.714073
0.714117
0.714146
0.714156
0.714154
0.714154
0.714164
0.714182
0.714209
0.714241
0.71428
0.714326
0.714384
0.714455
0.71454
0.714642
0.714758
0.714889
0.715032
0.715185
0.715344
0.715505
0.715663
0.715812
0.715946
0.716061
0.716154
0.716225
0.716274
0.716306
0.716323
0.716329
0.716327
0.71632
0.71631
0.716297
0.716283
0.716268
0.716253
0.716237
0.716222
0.716207
0.716192
0.716178
0.716163
0.716149
0.716134
0.71612
0.716106
0.716092
0.716078
0.716065
0.716051
0.716037
0.716023
0.71601
0.715996
0.715982
0.715968
0.715955
0.715941
0.715928
0.715914
0.7159
0.715887
0.715873
0.715859
0.715846
0.715832
0.715819
0.715805
0.715791
0.715778
0.715764
0.71575
0.715737
0.715723
0.71571
0.715696
0.715682
0.715669
0.715655
0.715641
0.715628
0.715614
0.715601
0.715587
0.715573
0.71556
0.715546
0.715532
0.715519
0.715505
0.715492
0.715478
0.715464
0.715451
0.715437
0.715423
0.71541
0.715396
0.715383
0.715369
0.715355
0.715342
0.715328
0.715315
0.715301
0.715287
0.715274
0.71526
0.715246
0.715233
0.715219
0.715206
0.715192
0.715178
0.715165
0.715151
0.715137
0.715124
0.71511
0.715097
0.715083
0.715069
0.715056
0.715042
0.715028
0.715015
0.715001
0.714988
0.714974
0.71496
0.714947
0.714933
0.714919
0.714906
0.714892
0.714879
0.714865
0.714851
0.714838
0.714824
0.71481
0.714797
0.714783
0.71477
0.714756
0.714742
0.714729
0.714715
0.714701
0.714688
0.714674
0.714661
0.714647
0.714633
0.71462
0.714606
0.714593
0.714579
0.714565
0.714552
0.714538
0.714524
0.714511
0.714497
0.714484
0.71447
0.714456
0.714443
0.714429
0.714415
0.714402
0.714388
0.714375
0.714361
0.714347
0.714334
0.71432
0.714306
0.714293
0.713582
0.713562
0.713549
0.713541
0.71354
0.713546
0.713558
0.713577
0.713602
0.713635
0.713676
0.713726
0.713785
0.71385
0.713915
0.713967
0.713999
0.714017
0.714035
0.71406
0.71409
0.71412
0.714148
0.714172
0.714191
0.714207
0.714226
0.714252
0.714287
0.714335
0.714396
0.714471
0.714561
0.714665
0.714784
0.714915
0.715058
0.715209
0.715366
0.715523
0.715677
0.71582
0.715949
0.71606
0.71615
0.716219
0.716268
0.7163
0.716319
0.716326
0.716325
0.716319
0.716309
0.716297
0.716283
0.716268
0.716253
0.716238
0.716223
0.716208
0.716193
0.716178
0.716163
0.716149
0.716135
0.71612
0.716106
0.716092
0.716078
0.716065
0.716051
0.716037
0.716023
0.71601
0.715996
0.715982
0.715969
0.715955
0.715941
0.715928
0.715914
0.7159
0.715887
0.715873
0.715859
0.715846
0.715832
0.715819
0.715805
0.715791
0.715778
0.715764
0.71575
0.715737
0.715723
0.71571
0.715696
0.715682
0.715669
0.715655
0.715641
0.715628
0.715614
0.715601
0.715587
0.715573
0.71556
0.715546
0.715532
0.715519
0.715505
0.715492
0.715478
0.715464
0.715451
0.715437
0.715423
0.71541
0.715396
0.715383
0.715369
0.715355
0.715342
0.715328
0.715315
0.715301
0.715287
0.715274
0.71526
0.715246
0.715233
0.715219
0.715206
0.715192
0.715178
0.715165
0.715151
0.715137
0.715124
0.71511
0.715097
0.715083
0.715069
0.715056
0.715042
0.715028
0.715015
0.715001
0.714988
0.714974
0.71496
0.714947
0.714933
0.714919
0.714906
0.714892
0.714879
0.714865
0.714851
0.714838
0.714824
0.71481
0.714797
0.714783
0.71477
0.714756
0.714742
0.714729
0.714715
0.714701
0.714688
0.714674
0.714661
0.714647
0.714633
0.71462
0.714606
0.714593
0.714579
0.714565
0.714552
0.714538
0.714524
0.714511
0.714497
0.714484
0.71447
0.714456
0.714443
0.714429
0.714415
0.714402
0.714388
0.714375
0.714361
0.714347
0.714334
0.71432
0.714306
0.714293
0.713593
0.713572
0.713557
0.713549
0.713547
0.713552
0.713563
0.713581
0.713603
0.713631
0.713665
0.713705
0.713753
0.713807
0.713863
0.713916
0.713962
0.714003
0.714042
0.714078
0.714107
0.714128
0.714144
0.71416
0.714177
0.714198
0.714224
0.714256
0.714297
0.714348
0.714412
0.714488
0.714579
0.714684
0.714804
0.714936
0.715078
0.715229
0.715383
0.715538
0.715688
0.715827
0.715952
0.71606
0.716147
0.716215
0.716263
0.716296
0.716315
0.716323
0.716323
0.716318
0.716308
0.716296
0.716283
0.716268
0.716253
0.716238
0.716223
0.716208
0.716193
0.716178
0.716163
0.716149
0.716135
0.716121
0.716106
0.716092
0.716078
0.716065
0.716051
0.716037
0.716023
0.71601
0.715996
0.715982
0.715969
0.715955
0.715941
0.715928
0.715914
0.7159
0.715887
0.715873
0.715859
0.715846
0.715832
0.715819
0.715805
0.715791
0.715778
0.715764
0.71575
0.715737
0.715723
0.71571
0.715696
0.715682
0.715669
0.715655
0.715641
0.715628
0.715614
0.715601
0.715587
0.715573
0.71556
0.715546
0.715532
0.715519
0.715505
0.715492
0.715478
0.715464
0.715451
0.715437
0.715423
0.71541
0.715396
0.715383
0.715369
0.715355
0.715342
0.715328
0.715315
0.715301
0.715287
0.715274
0.71526
0.715246
0.715233
0.715219
0.715206
0.715192
0.715178
0.715165
0.715151
0.715137
0.715124
0.71511
0.715097
0.715083
0.715069
0.715056
0.715042
0.715028
0.715015
0.715001
0.714988
0.714974
0.71496
0.714947
0.714933
0.714919
0.714906
0.714892
0.714879
0.714865
0.714851
0.714838
0.714824
0.71481
0.714797
0.714783
0.71477
0.714756
0.714742
0.714729
0.714715
0.714701
0.714688
0.714674
0.714661
0.714647
0.714633
0.71462
0.714606
0.714593
0.714579
0.714565
0.714552
0.714538
0.714524
0.714511
0.714497
0.714484
0.71447
0.714456
0.714443
0.714429
0.714415
0.714402
0.714388
0.714375
0.714361
0.714347
0.714334
0.71432
0.714306
0.714293
)
;

boundaryField
{
    inlet
    {
        type            zeroGradient;
    }
    outlet
    {