/*--------------------------------*- C++ -*----------------------------------*\
| =========                 |                                                 |
| \\      /  F ield         | OpenFOAM: The Open Source CFD Toolbox           |
|  \\    /   O peration     | Version:  4.1                                   |
|   \\  /    A nd           | Web:      www.OpenFOAM.org                      |
|    \\/     M anipulation  |                                                 |
\*---------------------------------------------------------------------------*/
FoamFile
{
    version     2.0;
    format      ascii;
    class       volVectorField;
    location    "0.0342";
    object      U;
}
// * * * * * * * * * * * * * * * * * * * * * * * * * * * * * * * * * * * * * //

dimensions      [0 1 -1 0 0 0 0];

internalField   nonuniform List<vector> 
441
(
(-9.72225e-05 7.69596e-05 0)
(-0.00048924 0.00028445 0)
(-0.00109929 0.0004994 0)
(-0.00187967 0.000653375 0)
(-0.00275601 0.000729923 0)
(-0.00364847 0.000731083 0)
(-0.00448365 0.000666469 0)
(-0.00519988 0.000548622 0)
(-0.00574903 0.000390788 0)
(-0.00609666 0.00020599 0)
(-0.0062215 6.89613e-06 0)
(-0.00611513 -0.000193885 0)
(-0.00578219 -0.000383332 0)
(-0.00524109 -0.000547629 0)
(-0.00452506 -0.000672124 0)
(-0.00368299 -0.000741858 0)
(-0.00277915 -0.000742963 0)
(-0.00189065 -0.000665333 0)
(-0.00110102 -0.000507558 0)
(-0.000486885 -0.000287818 0)
(-9.58947e-05 -7.67732e-05 0)
(-0.000351962 0.000442141 0)
(-0.00156389 0.00137348 0)
(-0.00327732 0.00221401 0)
(-0.00536642 0.00279677 0)
(-0.00765436 0.00307193 0)
(-0.00995257 0.00304852 0)
(-0.0120863 0.00276399 0)
(-0.0139073 0.00226766 0)
(-0.0152993 0.00161202 0)
(-0.0161786 0.000848899 0)
(-0.0164935 2.87583e-05 0)
(-0.0162237 -0.000798132 0)
(-0.0153808 -0.00157987 0)
(-0.0140098 -0.00226142 0)
(-0.0121914 -0.0027845 0)
(-0.0100434 -0.00308978 0)
(-0.00771947 -0.00312264 0)
(-0.00540264 -0.0028436 0)
(-0.00328991 -0.00224604 0)
(-0.00156375 -0.00138663 0)
(-0.000350519 -0.000441878 0)
(-0.000636358 0.00106379 0)
(-0.00266665 0.00304637 0)
(-0.00539133 0.00469818 0)
(-0.00861151 0.00580087 0)
(-0.012073 0.00629115 0)
(-0.0155105 0.00619638 0)
(-0.018679 0.00559191 0)
(-0.0213709 0.00457429 0)
(-0.023423 0.00324585 0)
(-0.0247176 0.00170764 0)
(-0.0251823 5.8082e-05 0)
(-0.0247884 -0.00160482 0)
(-0.0235518 -0.0031799 0)
(-0.0215351 -0.0045599 0)
(-0.018851 -0.00563117 0)
(-0.0156639 -0.00627796 0)
(-0.012189 -0.00639306 0)
(-0.00868302 -0.00589667 0)
(-0.00542377 -0.00476557 0)
(-0.00267459 -0.00307595 0)
(-0.000636478 -0.00106505 0)
(-0.000911787 0.00194232 0)
(-0.0037295 0.00530398 0)
(-0.00740406 0.0079477 0)
(-0.0116588 0.00964745 0)
(-0.016166 0.0103534 0)
(-0.0205957 0.0101289 0)
(-0.0246491 0.00910053 0)
(-0.0280758 0.0074232 0)
(-0.0306805 0.00525868 0)
(-0.0323234 0.0027656 0)
(-0.0329179 9.77906e-05 0)
(-0.0324291 -0.00259185 0)
(-0.0308743 -0.00514546 0)
(-0.028326 -0.00739517 0)
(-0.0249164 -0.00916221 0)
(-0.0208415 -0.010263 0)
(-0.0163607 -0.0105248 0)
(-0.0117882 -0.00981249 0)
(-0.00747202 -0.00806799 0)
(-0.00375382 -0.00536091 0)
(-0.000915521 -0.00194808 0)
(-0.00117879 0.00307398 0)
(-0.00476602 0.00814545 0)
(-0.00936505 0.0119659 0)
(-0.014615 0.0143357 0)
(-0.0201115 0.0152481 0)
(-0.0254629 0.0148255 0)
(-0.0303244 0.0132635 0)
(-0.0344132 0.0107887 0)
(-0.0375126 0.00763171 0)
(-0.039469 0.00401561 0)
(-0.0401871 0.000154583 0)
(-0.039627 -0.00373952 0)
(-0.0378045 -0.00744764 0)
(-0.0347948 -0.0107353 0)
(-0.0307398 -0.0133499 0)
(-0.0258553 -0.015028 0)
(-0.0204345 -0.0155151 0)
(-0.0148425 -0.0146008 0)
(-0.00949593 -0.0121672 0)
(-0.00482114 -0.00824842 0)
(-0.00118968 -0.0030901 0)
(-0.00144809 0.00446223 0)
(-0.00581733 0.0115836 0)
(-0.0113531 0.0167715 0)
(-0.017602 0.0198818 0)
(-0.024077 0.0209825 0)
(-0.0303244 0.0202832 0)
(-0.0359582 0.0180706 0)
(-0.0406713 0.0146584 0)
(-0.0442343 0.0103564 0)
(-0.0464874 0.00545751 0)
(-0.0473313 0.000238555 0)
(-0.0467222 -0.00502859 0)
(-0.0446709 -0.0100622 0)
(-0.0412484 -0.0145575 0)
(-0.0365968 -0.0181803 0)
(-0.0309415 -0.0205737 0)
(-0.0246011 -0.0213818 0)
(-0.0179875 -0.0202925 0)
(-0.0115889 -0.0170976 0)
(-0.00592579 -0.0117636 0)
(-0.00147173 -0.00449963 0)
(-0.00173131 0.00612227 0)
(-0.00692657 0.0156517 0)
(-0.013443 0.0224029 0)
(-0.0207223 0.0263179 0)
(-0.0281875 0.0275759 0)
(-0.0353227 0.0265075 0)
(-0.0417057 0.0235168 0)
(-0.0470141 0.0190236 0)
(-0.0510158 0.013427 0)
(-0.0535529 0.00709361 0)
(-0.0545278 0.000362602 0)
(-0.0538936 -0.00643683 0)
(-0.0516529 -0.0129625 0)
(-0.0478649 -0.0188382 0)
(-0.042661 -0.0236416 0)
(-0.0362641 -0.0269077 0)
(-0.0290079 -0.0281555 0)
(-0.0213461 -0.0269381 0)
(-0.0138414 -0.0229183 0)
(-0.00712019 -0.0159571 0)
(-0.00177573 -0.00619957 0)
(-0.00203722 0.00808031 0)
(-0.00812551 0.0204007 0)
(-0.0156839 0.0289115 0)
(-0.0240322 0.0336806 0)
(-0.0324959 0.0350435 0)
(-0.0404985 0.0334933 0)
(-0.0475911 0.0295844 0)
(-0.0534485 0.0238629 0)
(-0.0578485 0.0168281 0)
(-0.0606469 0.00892183 0)
(-0.0617546 0.000541317 0)
(-0.0611237 -0.00793399 0)
(-0.0587451 -0.0161082 0)
(-0.0546572 -0.0235369 0)
(-0.0489669 -0.0297049 0)
(-0.0418785 -0.0340247 0)
(-0.0337256 -0.0358617 0)
(-0.0249933 -0.0345942 0)
(-0.0163184 -0.029706 0)
(-0.00844576 -0.0209024 0)
(-0.00211301 -0.0082267 0)
(-0.00236923 0.0103704 0)
(-0.00942509 0.0258894 0)
(-0.0180823 0.0363465 0)
(-0.0275171 0.0419902 0)
(-0.0369511 0.0433723 0)
(-0.0457546 0.0412008 0)
(-0.0534673 0.0362188 0)
(-0.0597803 0.0291223 0)
(-0.0645003 0.0205196 0)
(-0.0675112 0.0109266 0)
(-0.0687425 0.000789018 0)
(-0.0681492 -0.00947622 0)
(-0.0657069 -0.0194326 0)
(-0.0614228 -0.0285761 0)
(-0.055362 -0.0362991 0)
(-0.0476882 -0.0418779 0)
(-0.0387105 -0.0444938 0)
(-0.0289265 -0.0433002 0)
(-0.0190389 -0.0375375 0)
(-0.00992249 -0.0266854 0)
(-0.00248954 -0.0106286 0)
(-0.00272304 0.0130292 0)
(-0.0108063 0.0321705 0)
(-0.0205834 0.0447317 0)
(-0.031063 0.0512213 0)
(-0.0413609 0.0524883 0)
(-0.0508104 0.0495215 0)
(-0.0589655 0.0432984 0)
(-0.0655614 0.0346892 0)
(-0.070459 0.024418 0)
(-0.0735903 0.0130673 0)
(-0.0749163 0.00111652 0)
(-0.0744005 -0.0110006 0)
(-0.0720012 -0.0228277 0)
(-0.0676827 -0.0338181 0)
(-0.0614479 -0.0432793 0)
(-0.0533899 -0.0503424 0)
(-0.0437588 -0.0539735 0)
(-0.0330309 -0.0530425 0)
(-0.0219545 -0.0464618 0)
(-0.0115379 -0.0333879 0)
(-0.0029032 -0.0134579 0)
(-0.00308355 0.0160894 0)
(-0.0122085 0.03927 0)
(-0.0230493 0.0540332 0)
(-0.0344226 0.0612631 0)
(-0.0453468 0.0622136 0)
(-0.0551491 0.058238 0)
(-0.0634374 0.0505992 0)
(-0.0700296 0.0403646 0)
(-0.0748727 0.028375 0)
(-0.0779708 0.0152659 0)
(-0.0793326 0.00152643 0)
(-0.0789382 -0.0124211 0)
(-0.0767277 -0.0261305 0)
(-0.0726125 -0.0390401 0)
(-0.0665103 -0.0503908 0)
(-0.058408 -0.05917 0)
(-0.0484489 -0.0641012 0)
(-0.0370357 -0.0637054 0)
(-0.0249199 -0.0564605 0)
(-0.0132325 -0.0410625 0)
(-0.00334004 -0.0167652 0)
(-0.00342019 0.0195709 0)
(-0.0135125 0.0471604 0)
(-0.025226 0.0641176 0)
(-0.0371671 0.0718675 0)
(-0.0482849 0.0722147 0)
(-0.057953 0.0669769 0)
(-0.06589 0.057756 0)
(-0.0720456 0.0458333 0)
(-0.0764899 0.0321574 0)
(-0.0793254 0.017393 0)
(-0.0806248 0.00200697 0)
(-0.0803947 -0.0136269 0)
(-0.0785599 -0.0291121 0)
(-0.0749719 -0.0439113 0)
(-0.0694436 -0.0572328 0)
(-0.061817 -0.067938 0)
(-0.052069 -0.0744936 0)
(-0.0404537 -0.0750074 0)
(-0.0276522 -0.0673932 0)
(-0.0148786 -0.0496987 0)
(-0.00376864 -0.0205873 0)
(-0.0036788 0.0234694 0)
(-0.0145124 0.055726 0)
(-0.0266928 0.0746958 0)
(-0.0386175 0.0825857 0)
(-0.0492267 0.0819416 0)
(-0.0580238 0.0751594 0)
(-0.0649136 0.064227 0)
(-0.0700335 0.0506403 0)
(-0.0736131 0.0354312 0)
(-0.0758746 0.0192582 0)
(-0.0769689 0.0025251 0)
(-0.0769379 -0.0144859 0)
(-0.0756985 -0.031475 0)
(-0.0730445 -0.0479801 0)
(-0.0686735 -0.0632288 0)
(-0.0622506 -0.0759994 0)
(-0.0535226 -0.0845148 0)
(-0.0424967 -0.086421 0)
(-0.0296682 -0.0789245 0)
(-0.0162454 -0.0591746 0)
(-0.00413073 -0.0249328 0)
(-0.00376656 0.0277404 0)
(-0.0148627 0.0647127 0)
(-0.0267748 0.0852494 0)
(-0.037733 0.0926907 0)
(-0.0467841 0.0905646 0)
(-0.0536813 0.0819598 0)
(-0.0586048 0.069272 0)
(-0.0619318 0.054183 0)
(-0.0640746 0.0377609 0)
(-0.0653827 0.0206083 0)
(-0.0660877 0.00302063 0)
(-0.0662736 -0.0148559 0)
(-0.0658611 -0.0328663 0)
(-0.064602 -0.0506815 0)
(-0.0620896 -0.0676188 0)
(-0.0578018 -0.082449 0)
(-0.0512045 -0.09321 0)
(-0.0419492 -0.097081 0)
(-0.0301818 -0.0904285 0)
(-0.0169386 -0.0691899 0)
(-0.00432429 -0.02976 0)
(-0.00352088 0.0322735 0)
(-0.0139736 0.0736552 0)
(-0.0243775 0.0949304 0)
(-0.0329222 0.101087 0)
(-0.0389545 0.0969182 0)
(-0.0426298 0.0862874 0)
(-0.0444864 0.0719628 0)
(-0.0451657 0.0557355 0)
(-0.0452533 0.0386335 0)
(-0.0452049 0.0211424 0)
(-0.045316 0.00340481 0)
(-0.04571 -0.0146044 0)
(-0.0463277 -0.0329134 0)
(-0.0469133 -0.0513805 0)
(-0.0469997 -0.0694938 0)
(-0.0459137 -0.0861285 0)
(-0.0428349 -0.0992616 0)
(-0.0369723 -0.105688 0)
(-0.0279255 -0.100865 0)
(-0.0162854 -0.0791678 0)
(-0.00417071 -0.0349424 0)
(-0.00264071 0.0368439 0)
(-0.0107845 0.0817553 0)
(-0.0176658 0.10242 0)
(-0.0217121 0.106215 0)
(-0.0228501 0.0994781 0)
(-0.0217822 0.0868229 0)
(-0.0194303 0.071254 0)
(-0.0166563 0.0545283 0)
(-0.0141501 0.0375263 0)
(-0.0124081 0.0205534 0)
(-0.0117446 0.00356839 0)
(-0.0123056 -0.0136382 0)
(-0.0140694 -0.0312908 0)
(-0.0168253 -0.0494677 0)
(-0.0201331 -0.0679025 0)
(-0.0232751 -0.0857107 0)
(-0.0252358 -0.10101 0)
(-0.0247887 -0.110433 0)
(-0.0208217 -0.108627 0)
(-0.0130998 -0.0881037 0)
(-0.00334494 -0.0402083 0)
(-0.000514796 0.0409995 0)
(-0.00325134 0.0876522 0)
(-0.00341826 0.105726 0)
(-0.000169641 0.105983 0)
(0.00570708 0.0964234 0)
(0.0129522 0.0821646 0)
(0.0203888 0.0661561 0)
(0.0271026 0.0499075 0)
(0.0324518 0.0340317 0)
(0.0360158 0.018606 0)
(0.0375369 0.0034059 0)
(0.0368794 -0.0119381 0)
(0.0340163 -0.0278172 0)
(0.0290498 -0.0445184 0)
(0.0222693 -0.0620572 0)
(0.014246 -0.0799151 0)
(0.00594894 -0.0966092 0)
(-0.001181 -0.109009 0)
(-0.00536136 -0.111364 0)
(-0.00516806 -0.0943113 0)
(-0.00120426 -0.0450135 0)
(0.00427103 0.0438229 0)
(0.0128839 0.0890356 0)
(0.0242713 0.101973 0)
(0.0380616 0.0978403 0)
(0.0527245 0.0859104 0)
(0.0668539 0.0711694 0)
(0.0794384 0.0560573 0)
(0.0898422 0.0415965 0)
(0.0977023 0.0280447 0)
(0.102822 0.0152525 0)
(0.10509 0.00286037 0)
(0.104422 -0.00958835 0)
(0.100745 -0.0225707 0)
(0.0940043 -0.0365087 0)
(0.0842124 -0.0516604 0)
(0.0715521 -0.0679217 0)
(0.056542 -0.0844401 0)
(0.040266 -0.0988564 0)
(0.0245858 -0.105894 0)
(0.0119506 -0.0950418 0)
(0.00370542 -0.0482799 0)
(0.0158483 0.0430767 0)
(0.0471973 0.0816043 0)
(0.0764841 0.0871676 0)
(0.103135 0.0791922 0)
(0.126525 0.0667267 0)
(0.14634 0.0535772 0)
(0.162503 0.0412124 0)
(0.175085 0.0300398 0)
(0.184224 0.0199873 0)
(0.190058 0.0107647 0)
(0.192674 0.00198353 0)
(0.192077 -0.00678624 0)
(0.188164 -0.0159852 0)
(0.180728 -0.0260371 0)
(0.169457 -0.0373046 0)
(0.153975 -0.0499904 0)
(0.133918 -0.0639026 0)
(0.109109 -0.0778693 0)
(0.0799382 -0.0882997 0)
(0.0478902 -0.0856119 0)
(0.0155651 -0.0475512 0)
(0.0495815 0.0348718 0)
(0.122811 0.0595474 0)
(0.174025 0.0578745 0)
(0.210436 0.0493363 0)
(0.237594 0.0398481 0)
(0.258203 0.0310567 0)
(0.273804 0.0233717 0)
(0.285338 0.0167508 0)
(0.293427 0.0109897 0)
(0.298481 0.00582668 0)
(0.300738 0.000982089 0)
(0.300273 -0.00382771 0)
(0.297 -0.00888587 0)
(0.290644 -0.0144724 0)
(0.280711 -0.0208573 0)
(0.266397 -0.0282805 0)
(0.246437 -0.0368931 0)
(0.218784 -0.0465606 0)
(0.180189 -0.0561778 0)
(0.125194 -0.0604046 0)
(0.0496984 -0.0385304 0)
(0.182888 0.00468885 0)
(0.296884 0.00838639 0)
(0.350999 0.0119889 0)
(0.378612 0.011787 0)
(0.395633 0.00999491 0)
(0.407073 0.00791342 0)
(0.415109 0.00597021 0)
(0.42076 0.00426319 0)
(0.424586 0.00277198 0)
(0.426912 0.00143747 0)
(0.42792 0.000189144 0)
(0.427675 -0.00104508 0)
(0.426141 -0.00233419 0)
(0.423165 -0.00373866 0)
(0.41843 -0.00529836 0)
(0.411349 -0.00700297 0)
(0.400772 -0.00871816 0)
(0.384168 -0.0100224 0)
(0.355723 -0.00987782 0)
(0.298511 -0.0071507 0)
(0.181164 -0.00732979 0)
)
;

boundaryField
{
    movingWall
    {
        type            fixedValue;
        value           uniform (0.5 0 0);
    }
    fixedWalls
    {
        type            noSlip;
    }
    frontAndBack
    {
        type            empty;
    }
}


// ************************************************************************* //
