/*--------------------------------*- C++ -*----------------------------------*\
| =========                 |                                                 |
| \\      /  F ield         | OpenFOAM: The Open Source CFD Toolbox           |
|  \\    /   O peration     | Version:  4.1                                   |
|   \\  /    A nd           | Web:      www.OpenFOAM.org                      |
|    \\/     M anipulation  |                                                 |
\*---------------------------------------------------------------------------*/
FoamFile
{
    version     2.0;
    format      ascii;
    class       volScalarField;
    location    "3600";
    object      p;
}
// * * * * * * * * * * * * * * * * * * * * * * * * * * * * * * * * * * * * * //

dimensions      [1 -1 -2 0 0 0 0];

internalField   nonuniform List<scalar> 
1275
(
0.712255
0.712207
0.7122
0.712157
0.712145
0.712101
0.712085
0.712034
0.712019
0.711951
0.712267
0.712215
0.712209
0.712164
0.712154
0.71211
0.712097
0.712051
0.712043
0.711997
0.712284
0.71223
0.712225
0.712178
0.712169
0.712125
0.712113
0.71207
0.712058
0.71202
0.712304
0.712248
0.712244
0.712197
0.712189
0.712146
0.712137
0.712097
0.71209
0.712056
0.712323
0.712267
0.712264
0.712217
0.712209
0.712168
0.712158
0.712122
0.712112
0.712082
0.712339
0.712284
0.71228
0.712235
0.712227
0.712189
0.712179
0.712145
0.712136
0.712107
0.712347
0.712295
0.71229
0.712248
0.712239
0.712203
0.712192
0.71216
0.712149
0.712122
0.71235
0.712301
0.712296
0.712256
0.712246
0.712211
0.7122
0.712169
0.712157
0.712131
0.712344
0.712301
0.712295
0.712257
0.712247
0.712213
0.7122
0.71217
0.712157
0.712131
0.712075
0.71208
0.712086
0.712092
0.712099
0.712105
0.712112
0.712119
0.712127
0.712135
0.712143
0.712151
0.71216
0.712169
0.712179
0.712189
0.712199
0.71221
0.712222
0.712234
0.712246
0.71226
0.712274
0.712288
0.712304
0.71232
0.712338
0.712356
0.712376
0.712396
0.712418
0.712441
0.712466
0.712492
0.712519
0.712548
0.712578
0.712609
0.712642
0.712676
0.712712
0.712748
0.712784
0.712822
0.712859
0.712896
0.712932
0.712967
0.713001
0.713033
0.713064
0.713092
0.713118
0.713142
0.713163
0.713181
0.713197
0.713211
0.713222
0.713231
0.713239
0.713245
0.713249
0.713253
0.713255
0.713257
0.713259
0.71326
0.713261
0.713262
0.713263
0.713264
0.713265
0.713266
0.713268
0.71327
0.713272
0.713275
0.711927
0.711978
0.711971
0.711993
0.711988
0.711997
0.711993
0.711996
0.711994
0.711995
0.711994
0.711994
0.711993
0.711994
0.711993
0.711994
0.711994
0.711995
0.711995
0.711996
0.711997
0.711998
0.711999
0.712001
0.712002
0.712004
0.712006
0.712008
0.712011
0.712013
0.712016
0.712019
0.712022
0.712025
0.712029
0.712033
0.712036
0.712041
0.712045
0.712049
0.712054
0.712059
0.712064
0.71207
0.712075
0.712082
0.712088
0.712095
0.712101
0.712108
0.712116
0.712124
0.712132
0.71214
0.712149
0.712158
0.712168
0.712178
0.712189
0.7122
0.712211
0.712224
0.712236
0.71225
0.712264
0.712278
0.712294
0.71231
0.712327
0.712345
0.712363
0.712383
0.712404
0.712425
0.712448
0.712472
0.712497
0.712523
0.71255
0.712578
0.712607
0.712637
0.712668
0.712699
0.712732
0.712764
0.712797
0.71283
0.712863
0.712894
0.712926
0.712956
0.712984
0.713011
0.713037
0.71306
0.713081
0.7131
0.713117
0.713133
0.713146
0.713157
0.713167
0.713175
0.713182
0.713188
0.713192
0.713197
0.7132
0.713203
0.713206
0.713209
0.713212
0.713214
0.713217
0.71322
0.713223
0.713226
0.71323
0.713234
0.713237
0.713242
0.713246
0.712
0.712004
0.711998
0.712004
0.711997
0.712
0.711995
0.711997
0.711994
0.711994
0.711993
0.711993
0.711992
0.711993
0.711992
0.711993
0.711993
0.711994
0.711995
0.711996
0.711997
0.711999
0.712
0.712002
0.712004
0.712006
0.712008
0.712011
0.712013
0.712016
0.712019
0.712022
0.712026
0.71203
0.712034
0.712038
0.712042
0.712047
0.712052
0.712057
0.712062
0.712068
0.712074
0.71208
0.712087
0.712093
0.7121
0.712108
0.712116
0.712124
0.712133
0.712142
0.712151
0.712161
0.712171
0.712182
0.712193
0.712205
0.712218
0.712231
0.712244
0.712259
0.712273
0.712289
0.712305
0.712322
0.71234
0.712359
0.712378
0.712398
0.712419
0.712441
0.712464
0.712487
0.712512
0.712537
0.712563
0.712589
0.712617
0.712645
0.712673
0.712702
0.712732
0.712761
0.712791
0.71282
0.712848
0.712877
0.712904
0.71293
0.712955
0.712979
0.713001
0.713022
0.713041
0.713058
0.713074
0.713088
0.713101
0.713112
0.713121
0.71313
0.713137
0.713144
0.713149
0.713155
0.713159
0.713164
0.713168
0.713173
0.713177
0.713181
0.713185
0.713189
0.713194
0.713198
0.713202
0.713207
0.713212
0.713216
0.713221
0.713226
0.713231
0.712009
0.712009
0.712003
0.712008
0.712004
0.712007
0.712003
0.712004
0.712001
0.712001
0.711998
0.711998
0.711997
0.711997
0.711996
0.711996
0.711996
0.711997
0.711997
0.711998
0.711999
0.712
0.712002
0.712004
0.712006
0.712008
0.712011
0.712013
0.712016
0.71202
0.712023
0.712027
0.712031
0.712035
0.712039
0.712044
0.712049
0.712054
0.71206
0.712066
0.712072
0.712079
0.712085
0.712093
0.7121
0.712108
0.712116
0.712125
0.712134
0.712143
0.712153
0.712164
0.712175
0.712186
0.712198
0.712211
0.712224
0.712238
0.712252
0.712267
0.712283
0.712299
0.712316
0.712334
0.712352
0.712372
0.712392
0.712412
0.712434
0.712456
0.712479
0.712502
0.712526
0.712551
0.712576
0.712602
0.712628
0.712655
0.712682
0.712709
0.712736
0.712763
0.71279
0.712816
0.712842
0.712867
0.712891
0.712915
0.712937
0.712958
0.712978
0.712997
0.713014
0.71303
0.713044
0.713058
0.713069
0.71308
0.71309
0.713098
0.713106
0.713114
0.71312
0.713127
0.713133
0.713139
0.713144
0.713149
0.713155
0.71316
0.713164
0.713169
0.713174
0.713179
0.713184
0.713189
0.713194
0.713199
0.713204
0.71321
0.713215
0.713221
0.713226
0.712054
0.712041
0.712036
0.71203
0.712024
0.71202
0.712014
0.712011
0.712007
0.712005
0.712002
0.712
0.711998
0.711997
0.711997
0.711996
0.711996
0.711997
0.711998
0.711999
0.712
0.712002
0.712003
0.712006
0.712008
0.712011
0.712014
0.712017
0.71202
0.712024
0.712028
0.712032
0.712037
0.712041
0.712046
0.712052
0.712058
0.712064
0.71207
0.712077
0.712084
0.712091
0.712099
0.712107
0.712115
0.712124
0.712134
0.712144
0.712154
0.712165
0.712176
0.712188
0.712201
0.712214
0.712227
0.712242
0.712257
0.712272
0.712288
0.712305
0.712323
0.712341
0.71236
0.71238
0.7124
0.712421
0.712443
0.712465
0.712488
0.712511
0.712535
0.71256
0.712584
0.71261
0.712635
0.71266
0.712686
0.712712
0.712737
0.712763
0.712787
0.712812
0.712836
0.712859
0.712881
0.712903
0.712923
0.712943
0.712961
0.712978
0.712994
0.713008
0.713022
0.713035
0.713046
0.713057
0.713067
0.713077
0.713085
0.713093
0.713101
0.713108
0.713114
0.713121
0.713127
0.713132
0.713138
0.713144
0.713149
0.713155
0.71316
0.713166
0.713171
0.713177
0.713182
0.713187
0.713192
0.713198
0.713203
0.713208
0.713214
0.713219
0.713225
0.712074
0.712056
0.71205
0.71204
0.712034
0.712027
0.712022
0.712017
0.712013
0.712009
0.712006
0.712003
0.712001
0.712
0.711998
0.711998
0.711998
0.711998
0.711998
0.711999
0.712001
0.712003
0.712005
0.712007
0.71201
0.712013
0.712016
0.712019
0.712023
0.712027
0.712032
0.712036
0.712041
0.712047
0.712052
0.712058
0.712065
0.712071
0.712078
0.712086
0.712094
0.712102
0.71211
0.712119
0.712129
0.712139
0.712149
0.71216
0.712172
0.712184
0.712196
0.712209
0.712223
0.712237
0.712252
0.712268
0.712284
0.712301
0.712319
0.712337
0.712356
0.712376
0.712396
0.712417
0.712438
0.71246
0.712483
0.712506
0.71253
0.712554
0.712578
0.712603
0.712627
0.712652
0.712677
0.712702
0.712726
0.712751
0.712774
0.712798
0.71282
0.712842
0.712864
0.712884
0.712903
0.712922
0.71294
0.712956
0.712972
0.712987
0.713001
0.713014
0.713026
0.713037
0.713047
0.713057
0.713066
0.713074
0.713082
0.71309
0.713097
0.713104
0.713111
0.713118
0.713125
0.713131
0.713137
0.713143
0.713149
0.713154
0.71316
0.713165
0.713171
0.713176
0.713181
0.713186
0.713192
0.713197
0.713202
0.713208
0.713213
0.713219
0.713224
0.712099
0.712079
0.712071
0.712057
0.712049
0.712039
0.712032
0.712024
0.712019
0.712013
0.712009
0.712006
0.712003
0.712001
0.711999
0.711998
0.711998
0.711998
0.711999
0.712
0.712001
0.712003
0.712006
0.712008
0.712011
0.712014
0.712018
0.712022
0.712026
0.71203
0.712035
0.71204
0.712046
0.712052
0.712058
0.712064
0.712071
0.712078
0.712086
0.712094
0.712102
0.712111
0.71212
0.71213
0.71214
0.712151
0.712162
0.712173
0.712186
0.712198
0.712212
0.712226
0.71224
0.712256
0.712272
0.712288
0.712305
0.712323
0.712342
0.712361
0.712381
0.712401
0.712422
0.712443
0.712466
0.712488
0.712511
0.712534
0.712558
0.712582
0.712606
0.71263
0.712654
0.712679
0.712702
0.712726
0.712749
0.712772
0.712794
0.712816
0.712837
0.712858
0.712877
0.712896
0.712914
0.712931
0.712946
0.712962
0.712976
0.712989
0.713001
0.713013
0.713024
0.713035
0.713045
0.713055
0.713064
0.713073
0.713082
0.71309
0.713097
0.713105
0.713111
0.713118
0.713124
0.713131
0.713137
0.713142
0.713148
0.713154
0.713159
0.713165
0.71317
0.713176
0.713181
0.713187
0.713192
0.713197
0.713203
0.713208
0.713214
0.713219
0.713225
0.712111
0.71209
0.71208
0.712064
0.712055
0.712043
0.712035
0.712026
0.712021
0.712014
0.71201
0.712005
0.712003
0.712
0.711999
0.711997
0.711997
0.711997
0.711998
0.711999
0.712001
0.712003
0.712005
0.712008
0.712011
0.712014
0.712018
0.712022
0.712027
0.712031
0.712036
0.712042
0.712048
0.712054
0.71206
0.712067
0.712074
0.712081
0.712089
0.712097
0.712106
0.712115
0.712125
0.712135
0.712145
0.712156
0.712168
0.71218
0.712193
0.712206
0.71222
0.712234
0.712249
0.712265
0.712281
0.712298
0.712315
0.712333
0.712352
0.712372
0.712392
0.712412
0.712433
0.712455
0.712477
0.712499
0.712522
0.712546
0.712569
0.712593
0.712616
0.71264
0.712664
0.712687
0.712711
0.712733
0.712756
0.712778
0.712799
0.71282
0.71284
0.712859
0.712878
0.712896
0.712913
0.712929
0.712944
0.712959
0.712973
0.712987
0.713
0.713012
0.713023
0.713034
0.713045
0.713054
0.713063
0.713072
0.71308
0.713088
0.713096
0.713103
0.71311
0.713117
0.713123
0.71313
0.713136
0.713142
0.713148
0.713154
0.713159
0.713165
0.71317
0.713176
0.713181
0.713186
0.713192
0.713197
0.713202
0.713208
0.713213
0.713219
0.713225
0.712119
0.712097
0.712086
0.712069
0.71206
0.712047
0.712039
0.712029
0.712023
0.712016
0.712011
0.712006
0.712003
0.712
0.711999
0.711998
0.711997
0.711997
0.711998
0.711999
0.712001
0.712003
0.712005
0.712008
0.712011
0.712015
0.712019
0.712023
0.712027
0.712032
0.712037
0.712043
0.712049
0.712055
0.712061
0.712068
0.712075
0.712083
0.712091
0.712099
0.712108
0.712117
0.712127
0.712137
0.712148
0.712159
0.712171
0.712183
0.712196
0.712209
0.712223
0.712238
0.712253
0.712269
0.712285
0.712302
0.712319
0.712338
0.712357
0.712376
0.712396
0.712417
0.712438
0.712459
0.712481
0.712504
0.712526
0.712549
0.712572
0.712596
0.712619
0.712642
0.712666
0.712689
0.712711
0.712734
0.712756
0.712778
0.712799
0.712819
0.712839
0.712858
0.712877
0.712895
0.712912
0.712929
0.712944
0.712959
0.712973
0.712986
0.712999
0.713011
0.713022
0.713033
0.713043
0.713053
0.713062
0.713071
0.71308
0.713088
0.713096
0.713103
0.71311
0.713117
0.713123
0.71313
0.713136
0.713142
0.713148
0.713153
0.713159
0.713164
0.71317
0.713175
0.713181
0.713186
0.713192
0.713197
0.713203
0.713208
0.713214
0.713219
0.713225
0.712119
0.712097
0.712086
0.712069
0.712059
0.712045
0.712037
0.712027
0.712021
0.712013
0.712009
0.712004
0.712001
0.711998
0.711997
0.711995
0.711995
0.711995
0.711996
0.711997
0.711999
0.712001
0.712003
0.712006
0.71201
0.712013
0.712017
0.712021
0.712026
0.712031
0.712036
0.712041
0.712047
0.712053
0.71206
0.712067
0.712074
0.712082
0.71209
0.712098
0.712107
0.712116
0.712126
0.712136
0.712146
0.712158
0.712169
0.712181
0.712194
0.712207
0.712221
0.712236
0.712251
0.712266
0.712283
0.712299
0.712317
0.712335
0.712354
0.712373
0.712393
0.712413
0.712434
0.712456
0.712477
0.7125
0.712522
0.712545
0.712568
0.712592
0.712615
0.712638
0.712662
0.712685
0.712708
0.71273
0.712752
0.712774
0.712795
0.712816
0.712836
0.712856
0.712874
0.712892
0.712909
0.712926
0.712941
0.712956
0.712971
0.712984
0.712997
0.713009
0.713021
0.713032
0.713042
0.713052
0.713062
0.71307
0.713079
0.713087
0.713095
0.713102
0.713109
0.713116
0.713123
0.713129
0.713135
0.713141
0.713147
0.713153
0.713159
0.713164
0.71317
0.713175
0.713181
0.713186
0.713191
0.713197
0.713202
0.713208
0.713213
0.713219
0.713225
)
;

boundaryField
{
    inlet
    {
        type            zeroGradient;
    }
    outlet
    {
        type            fixedValue;
        value           nonuniform 0();
    }
    walls
    {
        type            zeroGradient;
    }
    symwall
    {
        type            empty;
    }
    procBoundary2to0
    {
        type            processor;
        value           nonuniform List<scalar> 
133
(
0.712071
0.712076
0.712082
0.712087
0.712093
0.712099
0.712106
0.712112
0.712119
0.712126
0.712134
0.712141
0.712149
0.712157
0.712166
0.712175
0.712184
0.712194
0.712204
0.712215
0.712226
0.712238
0.71225
0.712263
0.712277
0.712291
0.712306
0.712323
0.71234
0.712359
0.712379
0.7124
0.712422
0.712447
0.712473
0.7125
0.71253
0.712561
0.712594
0.712629
0.712666
0.712704
0.712743
0.712784
0.712826
0.712867
0.712909
0.712951
0.712992
0.713031
0.713069
0.713105
0.713139
0.71317
0.713198
0.713223
0.713245
0.713264
0.71328
0.713294
0.713304
0.713313
0.713319
0.713324
0.713327
0.713329
0.713329
0.713329
0.713328
0.713327
0.713326
0.713325
0.713323
0.713322
0.713321
0.713321
0.71332
0.712246
0.712204
0.712196
0.712155
0.712143
0.712099
0.712084
0.712033
0.712023
0.71195
0.711968
0.711994
0.711988
0.711993
0.711988
0.711991
0.711987
0.711989
0.711987
0.711989
0.711988
0.711989
0.711989
0.711989
0.71199
0.71199
0.711991
0.711992
0.711993
0.711994
0.711995
0.711996
0.711998
0.711999
0.712001
0.712003
0.712005
0.712007
0.712009
0.712011
0.712014
0.712017
0.71202
0.712023
0.712026
0.71203
0.712033
0.712037
0.712041
0.712045
0.71205
0.712054
0.712059
0.712064
0.712069
0.712069
)
;
    }
    procBoundary2to1
    {
        type            processor;
        value           uniform 0.713321;
    }
    procBoundary2to3
    {
        type            processor;
        value           nonuniform List<scalar> 10(0.713278 0.71325 0.713237 0.713232 0.71323 0.71323 0.713231 0.713231 0.713231 0.71323);
    }
}


// ************************************************************************* //
