/*--------------------------------*- C++ -*----------------------------------*\
| =========                 |                                                 |
| \\      /  F ield         | OpenFOAM: The Open Source CFD Toolbox           |
|  \\    /   O peration     | Version:  4.1                                   |
|   \\  /    A nd           | Web:      www.OpenFOAM.org                      |
|    \\/     M anipulation  |                                                 |
\*---------------------------------------------------------------------------*/
FoamFile
{
    version     2.0;
    format      ascii;
    class       volVectorField;
    location    "1020";
    object      U;
}
// * * * * * * * * * * * * * * * * * * * * * * * * * * * * * * * * * * * * * //

dimensions      [0 1 -1 0 0 0 0];

internalField   nonuniform List<vector> 
1275
(
(-8.80835e-07 2.94937e-05 0)
(3.49788e-06 4.04135e-05 0)
(-6.24505e-05 4.81885e-05 0)
(-0.000125362 3.91374e-05 0)
(-0.000213773 3.77565e-05 0)
(-0.000300251 2.56874e-05 0)
(-0.000390303 2.30876e-05 0)
(-0.000487366 1.42846e-05 0)
(-0.000579503 1.25505e-05 0)
(-0.000682316 7.32933e-06 0)
(-0.000777288 6.61037e-06 0)
(-0.000882466 4.01242e-06 0)
(-0.000979818 4.07602e-06 0)
(-0.00108537 3.11433e-06 0)
(-0.00118434 3.64407e-06 0)
(-0.00128932 3.57196e-06 0)
(-0.00138919 4.2982e-06 0)
(-0.00149318 4.63468e-06 0)
(-0.00159339 5.37928e-06 0)
(-0.00169628 5.84933e-06 0)
(-0.00179644 6.51651e-06 0)
(-0.00189826 6.9793e-06 0)
(-0.00199816 7.53014e-06 0)
(-0.00209905 7.92322e-06 0)
(-0.00219869 8.35238e-06 0)
(-0.00229889 8.65506e-06 0)
(-0.0023984 8.97486e-06 0)
(-0.00249828 9.18658e-06 0)
(-0.00259801 9.4178e-06 0)
(-0.00269809 9.54596e-06 0)
(-0.00279857 9.7131e-06 0)
(-0.00289956 9.7661e-06 0)
(-0.00300155 9.89473e-06 0)
(-0.0031044 9.87738e-06 0)
(-0.00320892 9.99126e-06 0)
(-0.0033149 9.90072e-06 0)
(-0.00342331 1.00159e-05 0)
(-0.00353406 9.83742e-06 0)
(-0.00364811 9.95124e-06 0)
(-0.00376579 9.65388e-06 0)
(-0.00388785 9.72804e-06 0)
(-0.00401523 9.26291e-06 0)
(-0.0041485 9.20884e-06 0)
(-0.00428929 8.51718e-06 0)
(-0.00443821 8.20872e-06 0)
(-0.00459753 7.26359e-06 0)
(-0.00476833 6.63527e-06 0)
(-0.00495353 5.56917e-06 0)
(-0.00515509 4.89311e-06 0)
(-0.00537683 4.30628e-06 0)
(-0.00562195 4.64746e-06 0)
(-0.00589551 6.19166e-06 0)
(-0.00620231 1.00126e-05 0)
(-0.00654874 1.69887e-05 0)
(-0.00694101 2.84873e-05 0)
(-0.00738618 4.57137e-05 0)
(-0.00789043 6.98952e-05 0)
(-0.0084592 0.000101732 0)
(-0.00909533 0.000141287 0)
(-0.00979855 0.000187575 0)
(-0.0105638 0.000238528 0)
(-0.0113808 0.000290973 0)
(-0.0122332 0.000340995 0)
(-0.0130991 0.000384363 0)
(-0.013952 0.000417126 0)
(-0.014762 0.000436089 0)
(-0.0154976 0.000439168 0)
(-0.016128 0.000425515 0)
(-0.0166244 0.000395469 0)
(-0.0169614 0.00035036 0)
(-0.0171185 0.000292259 0)
(-0.0170803 0.000223714 0)
(-0.0168366 0.000147517 0)
(-0.016383 6.65215e-05 0)
(-0.0157201 -1.64976e-05 0)
(-0.0148537 -9.89351e-05 0)
(-0.0137937 -0.000178419 0)
(-0.0125541 -0.000252851 0)
(-0.0111523 -0.000320434 0)
(-0.00960869 -0.00037969 0)
(-0.00794559 -0.000429468 0)
(-0.00618709 -0.000468951 0)
(-0.00435828 -0.000497655 0)
(-0.00248459 -0.000515417 0)
(-0.000591241 -0.000522385 0)
(0.00129731 -0.000518989 0)
(0.0031579 -0.000505913 0)
(0.00496906 -0.000484057 0)
(0.00671142 -0.000454494 0)
(0.00836793 -0.000418425 0)
(0.00992409 -0.000377128 0)
(0.0113681 -0.000331915 0)
(0.0126906 -0.000284087 0)
(0.0138852 -0.000234897 0)
(0.0149477 -0.000185515 0)
(0.0158765 -0.000137006 0)
(0.0166717 -9.03072e-05 0)
(0.0173358 -4.62203e-05 0)
(0.0178726 -5.40248e-06 0)
(0.0182875 3.16348e-05 0)
(0.0185868 6.45205e-05 0)
(0.0187779 9.30207e-05 0)
(0.0188687 0.000117026 0)
(0.0188676 0.000136543 0)
(0.0187831 0.00015168 0)
(0.018624 0.000162637 0)
(0.0183987 0.000169682 0)
(0.0181155 0.000173153 0)
(0.0177822 0.000173419 0)
(0.0174063 0.000170894 0)
(0.0169946 0.000165991 0)
(0.0165535 0.000159146 0)
(0.0160887 0.00015076 0)
(0.0156052 0.000141244 0)
(0.0151075 0.000130942 0)
(0.0145995 0.000120208 0)
(0.0140847 0.000109297 0)
(0.0135657 9.84964e-05 0)
(0.0130452 8.79549e-05 0)
(0.0125248 7.78914e-05 0)
(0.0120065 6.83579e-05 0)
(0.0114914 5.95044e-05 0)
(-1.84827e-05 -3.47505e-05 0)
(-0.000105065 1.82284e-05 0)
(-0.000321616 8.06237e-05 0)
(-0.000539866 0.000109159 0)
(-0.000794497 0.000139193 0)
(-0.00104994 0.000148494 0)
(-0.00130599 0.000167256 0)
(-0.00157469 0.000173607 0)
(-0.0018325 0.000186049 0)
(-0.00210658 0.000190144 0)
(-0.00236675 0.000197146 0)
(-0.00264111 0.000198976 0)
(-0.00290224 0.000202175 0)
(-0.00317376 0.000202396 0)
(-0.00343407 0.000203316 0)
(-0.00370117 0.000202587 0)
(-0.00395926 0.000202269 0)
(-0.00422131 0.000201067 0)
(-0.00447633 0.000200157 0)
(-0.00473332 0.0001988 0)
(-0.00498494 0.00019769 0)
(-0.00523731 0.000196392 0)
(-0.00548569 0.000195335 0)
(-0.00573419 0.000194255 0)
(-0.00597994 0.000193438 0)
(-0.00622565 0.000192713 0)
(-0.00646983 0.0001923 0)
(-0.00671416 0.000192069 0)
(-0.00695823 0.000192231 0)
(-0.00720301 0.000192653 0)
(-0.00744894 0.000193589 0)
(-0.00769647 0.000194856 0)
(-0.00794676 0.000196808 0)
(-0.00819993 0.000199163 0)
(-0.00845776 0.000202433 0)
(-0.00872023 0.000206196 0)
(-0.00898955 0.000211163 0)
(-0.00926591 0.000216778 0)
(-0.00955174 0.000223932 0)
(-0.00984778 0.000232041 0)
(-0.0101565 0.00024205 0)
(-0.0104795 0.00025359 0)
(-0.0108191 0.000267444 0)
(-0.0111783 0.00028375 0)
(-0.0115591 0.000303006 0)
(-0.0119657 0.000325921 0)
(-0.0124003 0.000352927 0)
(-0.0128676 0.000384999 0)
(-0.01337 0.000422791 0)
(-0.0139122 0.000467368 0)
(-0.0144963 0.000519563 0)
(-0.0151255 0.000580296 0)
(-0.0158004 0.000650163 0)
(-0.0165212 0.000729372 0)
(-0.0172846 0.000817424 0)
(-0.0180857 0.000912823 0)
(-0.0189152 0.00101283 0)
(-0.0197608 0.00111321 0)
(-0.020606 0.00120825 0)
(-0.0214308 0.0012909 0)
(-0.0222118 0.00135323 0)
(-0.0229235 0.00138711 0)
(-0.0235386 0.00138501 0)
(-0.0240303 0.00134083 0)
(-0.0243721 0.00125055 0)
(-0.0245399 0.00111265 0)
(-0.0245124 0.000928211 0)
(-0.0242719 0.000700658 0)
(-0.0238044 0.000435414 0)
(-0.0231005 0.000139322 0)
(-0.0221549 -0.000179868 0)
(-0.0209665 -0.000514009 0)
(-0.0195384 -0.000854934 0)
(-0.0178777 -0.00119477 0)
(-0.0159949 -0.00152613 0)
(-0.0139039 -0.00184226 0)
(-0.0116218 -0.0021371 0)
(-0.00916821 -0.00240541 0)
(-0.00656505 -0.00264274 0)
(-0.00383613 -0.00284551 0)
(-0.00100667 -0.00301104 0)
(0.00189716 -0.00313753 0)
(0.00484878 -0.00322412 0)
(0.00782165 -0.00327082 0)
(0.0107898 -0.00327848 0)
(0.0137282 -0.00324875 0)
(0.0166134 -0.00318393 0)
(0.0194236 -0.00308694 0)
(0.0221392 -0.00296114 0)
(0.0247429 -0.00281024 0)
(0.0272196 -0.00263815 0)
(0.029557 -0.00244886 0)
(0.0317452 -0.00224638 0)
(0.0337765 -0.00203455 0)
(0.0356458 -0.00181706 0)
(0.0373498 -0.0015973 0)
(0.0388873 -0.00137836 0)
(0.0402589 -0.00116299 0)
(0.0414663 -0.000953558 0)
(0.0425129 -0.00075208 0)
(0.043403 -0.000560195 0)
(0.0441415 -0.000379194 0)
(0.0447344 -0.000210033 0)
(0.0451879 -5.33628e-05 0)
(0.0455086 9.04524e-05 0)
(0.0457035 0.000221291 0)
(0.0457796 0.000339265 0)
(0.0457439 0.000444659 0)
(0.0456033 0.000537939 0)
(0.0453647 0.000619673 0)
(0.0450349 0.000690563 0)
(0.0446202 0.000751342 0)
(0.0441269 0.000802836 0)
(0.0435608 0.000845842 0)
(0.0429276 0.000881209 0)
(0.0422326 0.000909713 0)
(0.0414809 0.000932135 0)
(0.040677 0.000949188 0)
(0.0398256 0.000961498 0)
(0.0389305 0.00096971 0)
(0.0379959 0.000974223 0)
(0.0370253 0.00097563 0)
(-3.72622e-05 0.000161309 0)
(-0.000229317 0.000349651 0)
(-0.000591818 0.000492519 0)
(-0.000964014 0.000514084 0)
(-0.00137825 0.000555316 0)
(-0.00179372 0.000536137 0)
(-0.00220733 0.000552478 0)
(-0.00263026 0.00053796 0)
(-0.00303598 0.000546614 0)
(-0.00345238 0.000538004 0)
(-0.00384766 0.000541582 0)
(-0.00425118 0.00053583 0)
(-0.00463484 0.000536124 0)
(-0.00502347 0.00053154 0)
(-0.00539523 0.000529897 0)
(-0.00576908 0.000525733 0)
(-0.00612918 0.000523036 0)
(-0.00648926 0.000519064 0)
(-0.00683835 0.000515911 0)
(-0.00718606 0.000512182 0)
(-0.00752508 0.000509033 0)
(-0.00786202 0.000505743 0)
(-0.00819224 0.000502998 0)
(-0.00852019 0.000500424 0)
(-0.00884316 0.000498473 0)
(-0.00916412 0.000496948 0)
(-0.00948173 0.000496205 0)
(-0.00979791 0.000496118 0)
(-0.0101124 0.000497045 0)
(-0.0104263 0.000498847 0)
(-0.0107403 0.000501986 0)
(-0.0110549 0.000506207 0)
(-0.0113714 0.000512207 0)
(-0.0116898 0.000519485 0)
(-0.0120122 0.000529139 0)
(-0.0123383 0.00054026 0)
(-0.0126703 0.00055454 0)
(-0.0130081 0.000570505 0)
(-0.0133538 0.000590604 0)
(-0.0137077 0.00061273 0)
(-0.0140714 0.000640091 0)
(-0.0144458 0.000670096 0)
(-0.0148316 0.00070644 0)
(-0.0152302 0.000746425 0)
(-0.0156416 0.000793699 0)
(-0.0160667 0.00084589 0)
(-0.016505 0.000905984 0)
(-0.0169562 0.000972125 0)
(-0.0174184 0.00104613 0)
(-0.0178896 0.00112642 0)
(-0.0183657 0.00121333 0)
(-0.0188418 0.00130488 0)
(-0.0193108 0.00139965 0)
(-0.0197641 0.00149443 0)
(-0.0201905 0.00158575 0)
(-0.0205774 0.00166861 0)
(-0.0209098 0.00173734 0)
(-0.0211713 0.00178509 0)
(-0.0213444 0.00180448 0)
(-0.021411 0.0017876 0)
(-0.0213531 0.00172681 0)
(-0.0211537 0.00161512 0)
(-0.0207972 0.00144701 0)
(-0.02027 0.00121888 0)
(-0.019561 0.000929686 0)
(-0.0186615 0.000581014 0)
(-0.0175653 0.000177145 0)
(-0.016269 -0.000275312 0)
(-0.0147716 -0.000767825 0)
(-0.0130742 -0.00129054 0)
(-0.0111805 -0.00183282 0)
(-0.00909603 -0.00238373 0)
(-0.00682873 -0.00293243 0)
(-0.00438853 -0.00346852 0)
(-0.00178751 -0.00398219 0)
(0.000960213 -0.00446444 0)
(0.00383851 -0.00490717 0)
(0.00682938 -0.00530328 0)
(0.0099132 -0.0056468 0)
(0.0130689 -0.00593292 0)
(0.0162744 -0.00615813 0)
(0.019507 -0.00632021 0)
(0.0227437 -0.00641828 0)
(0.0259618 -0.00645278 0)
(0.0291394 -0.00642544 0)
(0.0322554 -0.00633913 0)
(0.0352907 -0.00619777 0)
(0.0382275 -0.00600614 0)
(0.0410506 -0.00576973 0)
(0.0437465 -0.00549448 0)
(0.0463045 -0.00518662 0)
(0.0487158 -0.00485245 0)
(0.050974 -0.00449817 0)
(0.0530749 -0.00412975 0)
(0.0550162 -0.00375275 0)
(0.0567971 -0.00337229 0)
(0.0584188 -0.00299293 0)
(0.0598833 -0.00261868 0)
(0.061194 -0.00225294 0)
(0.062355 -0.00189854 0)
(0.063371 -0.00155779 0)
(0.0642473 -0.00123242 0)
(0.0649893 -0.000923741 0)
(0.0656028 -0.000632598 0)
(0.0660933 -0.000359471 0)
(0.0664666 -0.000104502 0)
(0.0667281 0.000132444 0)
(0.0668831 0.000351745 0)
(0.0669369 0.000553963 0)
(0.0668942 0.000739825 0)
(0.0667596 0.000910156 0)
(0.0665373 0.00106589 0)
(0.0662316 0.00120796 0)
(0.0658459 0.00133738 0)
(0.065384 0.0014551 0)
(0.0648489 0.00156214 0)
(0.0642437 0.00165929 0)
(0.063571 0.00174758 0)
(0.0628334 0.00182755 0)
(0.0620332 0.00190022 0)
(0.0611725 0.00196576 0)
(0.0602535 0.00202527 0)
(-9.14261e-05 0.000216263 0)
(-0.000439291 0.000559372 0)
(-0.000999419 0.000804641 0)
(-0.00153857 0.000884636 0)
(-0.00208594 0.000964187 0)
(-0.00262731 0.000970563 0)
(-0.00313425 0.00100368 0)
(-0.00365175 0.000998792 0)
(-0.00412891 0.00101068 0)
(-0.00461729 0.00100087 0)
(-0.00506933 0.000999574 0)
(-0.00552801 0.000986702 0)
(-0.0059566 0.000978291 0)
(-0.00638706 0.000964103 0)
(-0.00679326 0.000952477 0)
(-0.00719775 0.000938174 0)
(-0.00758274 0.000925566 0)
(-0.00796372 0.000911919 0)
(-0.00832894 0.000899598 0)
(-0.00868889 0.000887136 0)
(-0.00903598 0.00087588 0)
(-0.00937727 0.000865024 0)
(-0.00970801 0.000855384 0)
(-0.0100329 0.000846519 0)
(-0.0103491 0.000838968 0)
(-0.0106597 0.000832492 0)
(-0.0109633 0.000827498 0)
(-0.0112616 0.000823848 0)
(-0.0115543 0.000821923 0)
(-0.0118421 0.00082159 0)
(-0.0121256 0.000823315 0)
(-0.0124045 0.000826852 0)
(-0.0126801 0.000832888 0)
(-0.0129514 0.000840914 0)
(-0.0132202 0.000851997 0)
(-0.0134845 0.000865193 0)
(-0.0137466 0.000882106 0)
(-0.0140038 0.000901231 0)
(-0.0142584 0.000924732 0)
(-0.0145071 0.000950629 0)
(-0.0147517 0.000981341 0)
(-0.0149888 0.00101489 0)
(-0.0152187 0.0010532 0)
(-0.0154381 0.00109504 0)
(-0.0156454 0.00114106 0)
(-0.0158373 0.00119098 0)
(-0.01601 0.00124433 0)
(-0.0161596 0.00130056 0)
(-0.0162801 0.00135876 0)
(-0.0163664 0.00141749 0)
(-0.0164105 0.00147514 0)
(-0.0164053 0.00152912 0)
(-0.0163412 0.00157661 0)
(-0.0162089 0.00161361 0)
(-0.0159976 0.00163565 0)
(-0.0156963 0.00163709 0)
(-0.0152934 0.00161174 0)
(-0.0147775 0.0015525 0)
(-0.0141372 0.00145208 0)
(-0.0133625 0.00130301 0)
(-0.0124438 0.0010985 0)
(-0.0113736 0.000832792 0)
(-0.0101458 0.000501986 0)
(-0.00875645 0.000104375 0)
(-0.00720321 -0.000359068 0)
(-0.00548562 -0.000884727 0)
(-0.00360457 -0.00146637 0)
(-0.00156231 -0.00209559 0)
(0.000637893 -0.0027622 0)
(0.00299172 -0.00345481 0)
(0.00549382 -0.00416128 0)
(0.00813768 -0.00486915 0)
(0.0109154 -0.00556603 0)
(0.0138177 -0.00623981 0)
(0.0168333 -0.00687895 0)
(0.0199493 -0.00747263 0)
(0.0231508 -0.00801094 0)
(0.026421 -0.00848509 0)
(0.0297416 -0.00888758 0)
(0.033093 -0.00921238 0)
(0.0364544 -0.00945509 0)
(0.0398048 -0.00961305 0)
(0.0431231 -0.00968542 0)
(0.0463884 -0.00967315 0)
(0.0495811 -0.00957895 0)
(0.0526829 -0.00940706 0)
(0.0556771 -0.00916317 0)
(0.0585492 -0.00885406 0)
(0.0612867 -0.00848739 0)
(0.0638798 -0.00807139 0)
(0.0663207 -0.00761458 0)
(0.068604 -0.00712551 0)
(0.0707267 -0.00661251 0)
(0.0726874 -0.00608351 0)
(0.0744869 -0.00554587 0)
(0.0761272 -0.00500625 0)
(0.0776118 -0.00447057 0)
(0.0789451 -0.00394392 0)
(0.0801324 -0.00343058 0)
(0.0811795 -0.00293403 0)
(0.0820926 -0.00245702 0)
(0.0828782 -0.00200157 0)
(0.0835426 -0.00156909 0)
(0.0840922 -0.00116042 0)
(0.0845333 -0.000775897 0)
(0.0848719 -0.000415472 0)
(0.0851134 -7.87187e-05 0)
(0.0852634 0.000235051 0)
(0.0853265 0.000526776 0)
(0.0853075 0.000797536 0)
(0.0852104 0.00104857 0)
(0.0850389 0.00128117 0)
(0.0847965 0.0014967 0)
(0.084486 0.0016965 0)
(0.0841101 0.00188192 0)
(0.0836711 0.00205428 0)
(0.083171 0.00221478 0)
(0.0826114 0.00236466 0)
(0.0819938 0.00250481 0)
(0.0813192 0.0026365 0)
(0.0805886 0.00276007 0)
(0.0798029 0.00287696 0)
(-0.000114197 0.000713566 0)
(-0.000563254 0.00127361 0)
(-0.00123981 0.00161556 0)
(-0.00188927 0.00160774 0)
(-0.00253305 0.00166071 0)
(-0.00315575 0.0015851 0)
(-0.00372516 0.00158606 0)
(-0.00428569 0.00152956 0)
(-0.00478805 0.00151586 0)
(-0.00528405 0.00147375 0)
(-0.00572977 0.00145275 0)
(-0.00616866 0.00141811 0)
(-0.00656719 0.00139395 0)
(-0.00695777 0.00136354 0)
(-0.00731646 0.00133866 0)
(-0.0076662 0.00131115 0)
(-0.00799053 0.00128692 0)
(-0.00830524 0.00126187 0)
(-0.00859931 0.00123909 0)
(-0.00888342 0.00121643 0)
(-0.00915033 0.00119562 0)
(-0.00940716 0.00117549 0)
(-0.00964927 0.00115705 0)
(-0.00988127 0.00113966 0)
(-0.0101003 0.00112395 0)
(-0.0103091 0.00110955 0)
(-0.0105061 0.0010969 0)
(-0.0106927 0.00108576 0)
(-0.0108682 0.00107653 0)
(-0.0110328 0.00106893 0)
(-0.0111864 0.00106345 0)
(-0.0113282 0.00105964 0)
(-0.0114588 0.00105826 0)
(-0.0115762 0.00105841 0)
(-0.0116814 0.00106141 0)
(-0.0117712 0.00106555 0)
(-0.0118473 0.00107313 0)
(-0.0119051 0.00108114 0)
(-0.0119461 0.00109326 0)
(-0.0119655 0.00110481 0)
(-0.0119635 0.00112105 0)
(-0.0119353 0.00113559 0)
(-0.0118793 0.00115487 0)
(-0.0117912 0.00117149 0)
(-0.0116674 0.00119182 0)
(-0.0115029 0.00120867 0)
(-0.0112937 0.00122675 0)
(-0.0110332 0.00124015 0)
(-0.0107162 0.00125085 0)
(-0.0103354 0.00125416 0)
(-0.00988424 0.00124947 0)
(-0.00935474 0.00123231 0)
(-0.00873912 0.00119989 0)
(-0.00802913 0.00114711 0)
(-0.00721641 0.00106938 0)
(-0.00629281 0.000960651 0)
(-0.00525037 0.000815044 0)
(-0.00408195 0.000625949 0)
(-0.00278111 0.000387166 0)
(-0.00134279 9.26404e-05 0)
(0.000236853 -0.000262593 0)
(0.00196003 -0.000682357 0)
(0.00382758 -0.00116857 0)
(0.00583889 -0.00172119 0)
(0.00799224 -0.00233775 0)
(0.0102849 -0.00301355 0)
(0.0127136 -0.00374156 0)
(0.0152743 -0.00451283 0)
(0.0179625 -0.0053167 0)
(0.020773 -0.00614124 0)
(0.0236996 -0.00697356 0)
(0.0267351 -0.00780021 0)
(0.0298707 -0.00860741 0)
(0.0330958 -0.00938146 0)
(0.0363981 -0.0101089 0)
(0.0397632 -0.0107771 0)
(0.0431747 -0.0113741 0)
(0.0466148 -0.0118894 0)
(0.050064 -0.012314 0)
(0.0535021 -0.012641 0)
(0.0569084 -0.0128652 0)
(0.0602623 -0.012984 0)
(0.0635439 -0.012997 0)
(0.0667344 -0.0129061 0)
(0.0698165 -0.0127152 0)
(0.0727751 -0.0124304 0)
(0.0755974 -0.0120594 0)
(0.0782727 -0.0116113 0)
(0.080793 -0.0110959 0)
(0.0831529 -0.0105241 0)
(0.0853489 -0.00990669 0)
(0.0873801 -0.00925444 0)
(0.0892474 -0.00857774 0)
(0.0909533 -0.00788631 0)
(0.0925017 -0.00718906 0)
(0.0938977 -0.00649391 0)
(0.0951474 -0.00580774 0)
(0.0962573 -0.00513638 0)
(0.0972343 -0.00448462 0)
(0.0980856 -0.00385625 0)
(0.0988185 -0.00325412 0)
(0.09944 -0.00268026 0)
(0.0999569 -0.00213592 0)
(0.100376 -0.00162173 0)
(0.100703 -0.00113773 0)
(0.100944 -0.000683517 0)
(0.101105 -0.00025829 0)
(0.10119 0.000139057 0)
(0.101204 0.000509851 0)
(0.10115 0.000855618 0)
(0.101033 0.00117796 0)
(0.100856 0.00147861 0)
(0.100621 0.00175924 0)
(0.100331 0.00202165 0)
(0.099988 0.0022674 0)
(0.0995938 0.00249827 0)
(0.09915 0.00271557 0)
(0.0986577 0.00292107 0)
(0.0981177 0.0031156 0)
(0.0975308 0.00330104 0)
(0.0968974 0.00347749 0)
(0.0962179 0.00364714 0)
(-0.000260006 0.000856164 0)
(-0.000905443 0.00165523 0)
(-0.00172898 0.00210595 0)
(-0.00245058 0.00215645 0)
(-0.00304582 0.00221988 0)
(-0.00362714 0.00215089 0)
(-0.00408189 0.00213217 0)
(-0.00454688 0.002057 0)
(-0.00491558 0.00201241 0)
(-0.00529027 0.00194216 0)
(-0.00559545 0.00188942 0)
(-0.00589926 0.00182586 0)
(-0.00615258 0.00177288 0)
(-0.00639929 0.00171596 0)
(-0.0066082 0.00166588 0)
(-0.00680745 0.00161496 0)
(-0.00697731 0.00156881 0)
(-0.00713588 0.00152321 0)
(-0.00727064 0.0014812 0)
(-0.00739326 0.00144034 0)
(-0.00749575 0.00140236 0)
(-0.00758559 0.0013658 0)
(-0.00765765 0.00133165 0)
(-0.00771658 0.00129904 0)
(-0.00775912 0.00126853 0)
(-0.00778785 0.00123958 0)
(-0.00780079 0.00121251 0)
(-0.00779894 0.00118695 0)
(-0.00778122 0.0011631 0)
(-0.00774722 0.00114063 0)
(-0.00769668 0.00111974 0)
(-0.00762773 0.00109998 0)
(-0.00754099 0.00108171 0)
(-0.0074329 0.00106409 0)
(-0.00730513 0.00104792 0)
(-0.00715215 0.00103164 0)
(-0.00697679 0.00101679 0)
(-0.00677141 0.00100073 0)
(-0.00653984 0.000985945 0)
(-0.0062726 0.000968635 0)
(-0.00597369 0.000951922 0)
(-0.00563288 0.000931603 0)
(-0.00525263 0.0009099 0)
(-0.00482386 0.000884237 0)
(-0.00434547 0.000853719 0)
(-0.00381104 0.000818522 0)
(-0.00321516 0.000775886 0)
(-0.00255312 0.000724588 0)
(-0.00181754 0.000662745 0)
(-0.00100327 0.000587455 0)
(-0.000102638 0.00049665 0)
(0.000890308 0.000386388 0)
(0.00198304 0.000253628 0)
(0.0031818 9.36055e-05 0)
(0.00449342 -9.78734e-05 0)
(0.00592364 -0.000326267 0)
(0.00747807 -0.000596624 0)
(0.00916106 -0.000914649 0)
(0.0109763 -0.00128544 0)
(0.0129261 -0.00171395 0)
(0.0150118 -0.00220401 0)
(0.0172331 -0.00275839 0)
(0.0195889 -0.00337806 0)
(0.0220767 -0.00406219 0)
(0.0246931 -0.00480766 0)
(0.027434 -0.00560921 0)
(0.0302942 -0.00645929 0)
(0.0332677 -0.00734834 0)
(0.0363475 -0.00826493 0)
(0.0395255 -0.00919609 0)
(0.0427921 -0.0101276 0)
(0.0461362 -0.0110444 0)
(0.0495449 -0.0119309 0)
(0.0530032 -0.0127713 0)
(0.0564947 -0.0135502 0)
(0.060001 -0.0142531 0)
(0.0635026 -0.0148664 0)
(0.0669788 -0.0153782 0)
(0.0704089 -0.0157788 0)
(0.073772 -0.0160607 0)
(0.0770483 -0.0162193 0)
(0.0802189 -0.0162526 0)
(0.083267 -0.0161616 0)
(0.0861779 -0.01595 0)
(0.0889393 -0.0156241 0)
(0.0915417 -0.0151925 0)
(0.0939782 -0.0146654 0)
(0.0962448 -0.0140545 0)
(0.0983398 -0.0133725 0)
(0.100264 -0.0126323 0)
(0.10202 -0.011847 0)
(0.103614 -0.0110291 0)
(0.10505 -0.0101907 0)
(0.106337 -0.00934277 0)
(0.107483 -0.00849519 0)
(0.108495 -0.00765666 0)
(0.109383 -0.00683458 0)
(0.110156 -0.00603507 0)
(0.110822 -0.00526301 0)
(0.111389 -0.0045221 0)
(0.111864 -0.00381501 0)
(0.112256 -0.00314342 0)
(0.112571 -0.00250821 0)
(0.112814 -0.00190955 0)
(0.112992 -0.00134702 0)
(0.113108 -0.000819707 0)
(0.113168 -0.000326319 0)
(0.113175 0.000134713 0)
(0.113132 0.000565211 0)
(0.113042 0.000967104 0)
(0.112908 0.00134247 0)
(0.112731 0.00169337 0)
(0.112514 0.00202194 0)
(0.112258 0.0023302 0)
(0.111963 0.00262021 0)
(0.111632 0.00289387 0)
(0.111264 0.00315299 0)
(0.110859 0.00339939 0)
(0.110419 0.00363437 0)
(0.109944 0.0038599 0)
(0.109432 0.00407637 0)
(0.108884 0.00428627 0)
(-0.00025732 0.0019332 0)
(-0.000876094 0.00277127 0)
(-0.00163285 0.0032128 0)
(-0.002284 0.0029344 0)
(-0.00277994 0.00286773 0)
(-0.00322465 0.00261979 0)
(-0.00352227 0.00251941 0)
(-0.00379579 0.00235675 0)
(-0.003963 0.00226302 0)
(-0.00411574 0.00214552 0)
(-0.00419481 0.00206063 0)
(-0.00426241 0.00196732 0)
(-0.00427811 0.00189088 0)
(-0.00428298 0.00181219 0)
(-0.00424997 0.00174324 0)
(-0.004206 0.00167449 0)
(-0.00413311 0.00161196 0)
(-0.00404889 0.00155057 0)
(-0.00394145 0.00149353 0)
(-0.00382218 0.00143793 0)
(-0.00368316 0.00138553 0)
(-0.00353165 0.0013346 0)
(-0.00336234 0.00128612 0)
(-0.00317962 0.00123898 0)
(-0.00297988 0.0011937 0)
(-0.00276543 0.00114957 0)
(-0.00253386 0.0011068 0)
(-0.00228582 0.0010649 0)
(-0.00201978 0.0010239 0)
(-0.00173491 0.000983353 0)
(-0.00143048 0.000943277 0)
(-0.00110411 0.00090306 0)
(-0.000756006 0.000862916 0)
(-0.000381985 0.000821712 0)
(1.66056e-05 0.00078029 0)
(0.000446049 0.000736372 0)
(0.00090369 0.000692166 0)
(0.00139801 0.000643261 0)
(0.00192534 0.00059434 0)
(0.00249574 0.000537562 0)
(0.00310575 0.000481299 0)
(0.00376539 0.000413261 0)
(0.00447343 0.000345844 0)
(0.00523833 0.000262903 0)
(0.00606122 0.0001788 0)
(0.00695167 7.69674e-05 0)
(0.00790909 -3.17999e-05 0)
(0.00894434 -0.00015894 0)
(0.0100594 -0.000300144 0)
(0.0112627 -0.000462444 0)
(0.0125589 -0.000645727 0)
(0.0139549 -0.000855367 0)
(0.0154563 -0.00109359 0)
(0.0170691 -0.00136546 0)
(0.0187987 -0.0016746 0)
(0.0206498 -0.00202613 0)
(0.0226267 -0.0024243 0)
(0.0247325 -0.00287401 0)
(0.0269694 -0.00337921 0)
(0.0293383 -0.00394368 0)
(0.0318387 -0.00456989 0)
(0.0344686 -0.00525927 0)
(0.0372248 -0.00601142 0)
(0.0401023 -0.00682424 0)
(0.043095 -0.00769339 0)
(0.046195 -0.00861244 0)
(0.0493932 -0.00957265 0)
(0.0526789 -0.0105632 0)
(0.0560398 -0.0115713 0)
(0.059462 -0.0125824 0)
(0.0629299 -0.0135807 0)
(0.0664262 -0.0145492 0)
(0.0699323 -0.0154705 0)
(0.073428 -0.0163273 0)
(0.0768922 -0.0171027 0)
(0.0803034 -0.0177809 0)
(0.08364 -0.0183478 0)
(0.0868806 -0.0187916 0)
(0.0900055 -0.0191032 0)
(0.0929962 -0.0192765 0)
(0.0958364 -0.0193084 0)
(0.0985126 -0.0191993 0)
(0.101014 -0.0189529 0)
(0.103334 -0.0185756 0)
(0.105466 -0.0180765 0)
(0.107411 -0.0174671 0)
(0.109171 -0.0167604 0)
(0.110749 -0.0159708 0)
(0.112152 -0.0151133 0)
(0.11339 -0.014203 0)
(0.114472 -0.0132549 0)
(0.115411 -0.0122828 0)
(0.116217 -0.0112998 0)
(0.116903 -0.0103174 0)
(0.117481 -0.00934584 0)
(0.117963 -0.00839369 0)
(0.118359 -0.00746799 0)
(0.11868 -0.00657433 0)
(0.118936 -0.00571693 0)
(0.119134 -0.00489875 0)
(0.119282 -0.00412168 0)
(0.119387 -0.00338663 0)
(0.119453 -0.00269371 0)
(0.119487 -0.00204236 0)
(0.11949 -0.00143148 0)
(0.119468 -0.000859539 0)
(0.119421 -0.000324676 0)
(0.119353 0.000175216 0)
(0.119264 0.000642381 0)
(0.119155 0.00107921 0)
(0.119028 0.00148807 0)
(0.118882 0.00187142 0)
(0.118717 0.00223157 0)
(0.118534 0.00257095 0)
(0.118333 0.00289159 0)
(0.118112 0.0031959 0)
(0.117872 0.00348546 0)
(0.117611 0.00376273 0)
(0.117328 0.00402854 0)
(0.117024 0.00428576 0)
(0.116697 0.00453395 0)
(0.116346 0.00477686 0)
(-0.000751794 0.00189982 0)
(-0.00161107 0.00296787 0)
(-0.00198839 0.00346709 0)
(-0.00225729 0.00326821 0)
(-0.0021262 0.00314563 0)
(-0.0021 0.0028789 0)
(-0.00185065 0.00270439 0)
(-0.00167641 0.00249514 0)
(-0.00137853 0.00233992 0)
(-0.00111973 0.0021769 0)
(-0.000789286 0.00204531 0)
(-0.000476892 0.00191414 0)
(-0.00011998 0.00180219 0)
(0.000230113 0.00169309 0)
(0.000610041 0.00159634 0)
(0.000989305 0.00150288 0)
(0.0013902 0.00141771 0)
(0.00179413 0.00133556 0)
(0.00221511 0.00125915 0)
(0.00264171 0.00118528 0)
(0.00308303 0.0011154 0)
(0.00353213 0.00104749 0)
(0.00399512 0.000982288 0)
(0.00446804 0.000918481 0)
(0.00495511 0.000856339 0)
(0.0054545 0.000794989 0)
(0.00596918 0.000734376 0)
(0.006499 0.000673904 0)
(0.00704594 0.000613283 0)
(0.00761147 0.000552059 0)
(0.00819656 0.00048979 0)
(0.00880449 0.000426004 0)
(0.00943488 0.000360257 0)
(0.0100934 0.00029179 0)
(0.0107777 0.000220458 0)
(0.0114968 0.000144739 0)
(0.0122449 6.53241e-05 0)
(0.0130361 -2.07879e-05 0)
(0.01386 -0.000111385 0)
(0.0147366 -0.000211564 0)
(0.0156506 -0.000317536 0)
(0.0166266 -0.000435611 0)
(0.0176484 -0.00056313 0)
(0.0187382 -0.000702822 0)
(0.0198893 -0.000859846 0)
(0.0211094 -0.00102877 0)
(0.0224064 -0.00121665 0)
(0.0237821 -0.00142521 0)
(0.0252451 -0.0016552 0)
(0.0267984 -0.0019115 0)
(0.0284492 -0.00219488 0)
(0.0302016 -0.00251033 0)
(0.0320615 -0.00285978 0)
(0.0340328 -0.00324799 0)
(0.0361202 -0.00367782 0)
(0.0383264 -0.00415374 0)
(0.0406541 -0.00467895 0)
(0.0431043 -0.0052573 0)
(0.0456768 -0.00589143 0)
(0.0483698 -0.00658376 0)
(0.0511799 -0.00733526 0)
(0.0541018 -0.00814581 0)
(0.0571284 -0.00901341 0)
(0.0602504 -0.00993431 0)
(0.0634568 -0.0109025 0)
(0.0667345 -0.0119097 0)
(0.0700685 -0.0129455 0)
(0.0734421 -0.0139972 0)
(0.0768365 -0.0150502 0)
(0.0802317 -0.0160883 0)
(0.0836063 -0.0170939 0)
(0.0869377 -0.0180487 0)
(0.0902028 -0.0189345 0)
(0.0933785 -0.0197331 0)
(0.0964418 -0.0204277 0)
(0.0993708 -0.021003 0)
(0.102145 -0.021446 0)
(0.104747 -0.0217466 0)
(0.107161 -0.0218975 0)
(0.109374 -0.0218952 0)
(0.111378 -0.0217396 0)
(0.113168 -0.0214345 0)
(0.114743 -0.0209867 0)
(0.116106 -0.0204065 0)
(0.117263 -0.0197066 0)
(0.118222 -0.0189015 0)
(0.118997 -0.0180075 0)
(0.119602 -0.0170411 0)
(0.120051 -0.0160191 0)
(0.120362 -0.0149579 0)
(0.120552 -0.013873 0)
(0.12064 -0.0127787 0)
(0.120641 -0.0116877 0)
(0.120573 -0.0106113 0)
(0.120449 -0.00955891 0)
(0.120285 -0.00853823 0)
(0.120092 -0.00755532 0)
(0.119881 -0.00661464 0)
(0.11966 -0.0057192 0)
(0.119437 -0.00487078 0)
(0.119217 -0.00407007 0)
(0.119006 -0.00331685 0)
(0.118807 -0.00261018 0)
(0.118621 -0.00194855 0)
(0.11845 -0.00133 0)
(0.118296 -0.000752252 0)
(0.118156 -0.000212816 0)
(0.118032 0.00029093 0)
(0.117922 0.000761709 0)
(0.117825 0.00120221 0)
(0.117738 0.00161518 0)
(0.117662 0.00200319 0)
(0.117593 0.00236888 0)
(0.11753 0.00271461 0)
(0.117472 0.00304283 0)
(0.117415 0.00335565 0)
(0.117359 0.00365519 0)
(0.117301 0.00394344 0)
(0.11724 0.00422191 0)
(0.117173 0.00449293 0)
(0.117098 0.00475654 0)
(0.117016 0.00501655 0)
(-0.000303103 0.00445423 0)
(-0.000215074 0.0040484 0)
(0.000310113 0.00396718 0)
(0.00089296 0.00307282 0)
(0.00168161 0.00275516 0)
(0.00241419 0.00233163 0)
(0.00324779 0.00210865 0)
(0.00402479 0.00186892 0)
(0.0048559 0.00170538 0)
(0.00564309 0.00154123 0)
(0.0064599 0.00141176 0)
(0.00724495 0.00128501 0)
(0.00804632 0.00117672 0)
(0.0088254 0.00107157 0)
(0.00961361 0.00097738 0)
(0.0103866 0.000885986 0)
(0.0111652 0.000801522 0)
(0.0119341 0.000719269 0)
(0.0127071 0.00064146 0)
(0.013475 0.000565199 0)
(0.0142472 0.000491652 0)
(0.0150182 0.000418949 0)
(0.0157948 0.000347606 0)
(0.016574 0.00027637 0)
(0.0173607 0.000205319 0)
(0.0181539 0.000133587 0)
(0.0189574 6.09277e-05 0)
(0.0197715 -1.32807e-05 0)
(0.0205992 -8.95395e-05 0)
(0.0214421 -0.000168342 0)
(0.0223023 -0.000250372 0)
(0.0231831 -0.00033615 0)
(0.0240852 -0.000426379 0)
(0.0250141 -0.000521923 0)
(0.0259686 -0.000623089 0)
(0.0269575 -0.000731788 0)
(0.027976 -0.000846953 0)
(0.0290382 -0.000973059 0)
(0.0301337 -0.00110554 0)
(0.031284 -0.00125451 0)
(0.0324707 -0.00140777 0)
(0.033725 -0.00158652 0)
(0.0350194 -0.00176452 0)
(0.0363934 -0.00198019 0)
(0.0378148 -0.00219106 0)
(0.0393215 -0.00244167 0)
(0.0408964 -0.00270419 0)
(0.0425547 -0.00299876 0)
(0.0442951 -0.00331675 0)
(0.0461248 -0.00366758 0)
(0.0480468 -0.0040496 0)
(0.0500651 -0.00446862 0)
(0.052183 -0.00492564 0)
(0.0544028 -0.0054251 0)
(0.0567264 -0.00596899 0)
(0.0591539 -0.00656086 0)
(0.0616851 -0.00720271 0)
(0.0643171 -0.00789697 0)
(0.0670465 -0.00864466 0)
(0.0698671 -0.00944635 0)
(0.0727713 -0.010301 0)
(0.0757487 -0.0112063 0)
(0.0787873 -0.0121581 0)
(0.0818723 -0.0131503 0)
(0.0849873 -0.0141747 0)
(0.0881134 -0.0152209 0)
(0.0912299 -0.0162766 0)
(0.0943147 -0.0173273 0)
(0.0973441 -0.0183569 0)
(0.100294 -0.0193481 0)
(0.103139 -0.0202826 0)
(0.105855 -0.0211419 0)
(0.108418 -0.0219077 0)
(0.110805 -0.0225628 0)
(0.112996 -0.0230918 0)
(0.114973 -0.0234812 0)
(0.116722 -0.0237209 0)
(0.118231 -0.023804 0)
(0.119495 -0.0237273 0)
(0.12051 -0.0234914 0)
(0.121279 -0.0231008 0)
(0.121808 -0.0225633 0)
(0.122107 -0.0218901 0)
(0.12219 -0.0210946 0)
(0.122074 -0.0201927 0)
(0.121781 -0.0192014 0)
(0.121331 -0.0181388 0)
(0.120749 -0.0170232 0)
(0.120059 -0.0158724 0)
(0.119285 -0.0147033 0)
(0.11845 -0.0135313 0)
(0.117577 -0.0123702 0)
(0.116685 -0.0112315 0)
(0.115793 -0.0101249 0)
(0.114916 -0.0090579 0)
(0.114069 -0.00803606 0)
(0.113264 -0.00706327 0)
(0.112508 -0.00614188 0)
(0.111808 -0.00527291 0)
(0.111171 -0.0044563 0)
(0.110598 -0.00369113 0)
(0.110091 -0.00297577 0)
(0.10965 -0.00230809 0)
(0.109274 -0.00168556 0)
(0.108961 -0.00110542 0)
(0.108709 -0.000564741 0)
(0.108514 -6.0533e-05 0)
(0.108373 0.000410223 0)
(0.108282 0.000850487 0)
(0.108238 0.00126318 0)
(0.108235 0.00165107 0)
(0.108272 0.00201689 0)
(0.108342 0.00236312 0)
(0.108444 0.00269232 0)
(0.108573 0.00300653 0)
(0.108728 0.00330827 0)
(0.108901 0.00359893 0)
(0.109095 0.00388131 0)
(0.109302 0.00415559 0)
(0.109523 0.00442573 0)
(0.109751 0.00468949 0)
(0.10999 0.00495341 0)
(0.00231225 0.0021658 0)
(0.00440697 0.00222765 0)
(0.00785608 0.00228598 0)
(0.00988305 0.00185476 0)
(0.0121267 0.00161296 0)
(0.0138112 0.00130654 0)
(0.0155299 0.00110386 0)
(0.0169938 0.0008939 0)
(0.0184512 0.000737376 0)
(0.0197722 0.000583567 0)
(0.021077 0.000458876 0)
(0.0222993 0.000338435 0)
(0.023504 0.000234872 0)
(0.0246548 0.000135126 0)
(0.0257895 4.55464e-05 0)
(0.0268872 -4.11622e-05 0)
(0.0279711 -0.000121746 0)