/*--------------------------------*- C++ -*----------------------------------*\
| =========                 |                                                 |
| \\      /  F ield         | OpenFOAM: The Open Source CFD Toolbox           |
|  \\    /   O peration     | Version:  4.1                                   |
|   \\  /    A nd           | Web:      www.OpenFOAM.org                      |
|    \\/     M anipulation  |                                                 |
\*---------------------------------------------------------------------------*/
FoamFile
{
    version     2.0;
    format      ascii;
    class       volScalarField;
    location    "4020";
    object      p;
}
// * * * * * * * * * * * * * * * * * * * * * * * * * * * * * * * * * * * * * //

dimensions      [1 -1 -2 0 0 0 0];

internalField   nonuniform List<scalar> 
1275
(
0.711994
0.711994
0.711993
0.711993
0.711992
0.711992
0.711991
0.711992
0.711991
0.711991
0.711991
0.711991
0.711991
0.711991
0.711991
0.711992
0.711992
0.711993
0.711994
0.711995
0.711996
0.711997
0.711998
0.711999
0.712001
0.712003
0.712005
0.712007
0.712009
0.712011
0.712013
0.712016
0.712019
0.712022
0.712025
0.712028
0.712032
0.712035
0.712039
0.712043
0.712047
0.712051
0.712056
0.71206
0.712065
0.71207
0.712075
0.71208
0.712086
0.712091
0.712097
0.712103
0.712109
0.712116
0.712122
0.712129
0.712136
0.712144
0.712151
0.712159
0.712167
0.712175
0.712184
0.712193
0.712202
0.712211
0.712221
0.712232
0.712243
0.712254
0.712266
0.712279
0.712293
0.712307
0.712322
0.712339
0.712356
0.712375
0.712396
0.712418
0.712442
0.712468
0.712496
0.712527
0.71256
0.712596
0.712635
0.712676
0.712721
0.712768
0.712818
0.712871
0.712926
0.712983
0.713041
0.7131
0.71316
0.71322
0.713278
0.713336
0.713391
0.713444
0.713493
0.713539
0.71358
0.713617
0.71365
0.713678
0.713701
0.713719
0.713733
0.713743
0.713748
0.713751
0.713749
0.713745
0.713738
0.71373
0.713719
0.713707
0.713694
0.713681
0.711993
0.711993
0.711992
0.711993
0.711992
0.711993
0.711992
0.711992
0.711992
0.711992
0.711992
0.711992
0.711992
0.711992
0.711992
0.711993
0.711993
0.711994
0.711995
0.711995
0.711996
0.711998
0.711999
0.712
0.712002
0.712003
0.712005
0.712007
0.712009
0.712012
0.712014
0.712017
0.712019
0.712022
0.712025
0.712029
0.712032
0.712036
0.712039
0.712043
0.712047
0.712052
0.712056
0.712061
0.712065
0.71207
0.712075
0.712081
0.712086
0.712092
0.712098
0.712104
0.71211
0.712116
0.712123
0.71213
0.712137
0.712144
0.712152
0.71216
0.712168
0.712176
0.712185
0.712193
0.712203
0.712212
0.712222
0.712233
0.712244
0.712255
0.712268
0.71228
0.712294
0.712308
0.712323
0.71234
0.712357
0.712376
0.712396
0.712418
0.712442
0.712467
0.712495
0.712525
0.712558
0.712593
0.712631
0.712673
0.712717
0.712763
0.712813
0.712865
0.71292
0.712977
0.713035
0.713094
0.713154
0.713214
0.713272
0.71333
0.713385
0.713438
0.713487
0.713533
0.713575
0.713612
0.713645
0.713672
0.713696
0.713714
0.713728
0.713738
0.713744
0.713746
0.713745
0.713741
0.713734
0.713726
0.713715
0.713704
0.713691
0.713677
0.711996
0.711996
0.711995
0.711995
0.711994
0.711994
0.711993
0.711993
0.711992
0.711992
0.711991
0.711992
0.711991
0.711992
0.711992
0.711992
0.711993
0.711994
0.711994
0.711995
0.711996
0.711997
0.711998
0.712
0.712001
0.712003
0.712005
0.712007
0.712009
0.712011
0.712014
0.712016
0.712019
0.712022
0.712025
0.712029
0.712032
0.712036
0.712039
0.712043
0.712047
0.712051
0.712056
0.71206
0.712065
0.71207
0.712075
0.712081
0.712086
0.712092
0.712098
0.712104
0.71211
0.712116
0.712123
0.71213
0.712137
0.712144
0.712152
0.712159
0.712167
0.712176
0.712184
0.712193
0.712202
0.712212
0.712222
0.712232
0.712243
0.712255
0.712267
0.712279
0.712293
0.712307
0.712322
0.712338
0.712355
0.712374
0.712394
0.712415
0.712439
0.712464
0.712491
0.712521
0.712554
0.712589
0.712627
0.712667
0.712711
0.712758
0.712807
0.71286
0.712914
0.712971
0.713029
0.713088
0.713148
0.713208
0.713267
0.713324
0.71338
0.713432
0.713482
0.713528
0.713569
0.713606
0.713639
0.713666
0.71369
0.713708
0.713722
0.713731
0.713737
0.713739
0.713738
0.713734
0.713727
0.713719
0.713709
0.713697
0.713684
0.713671
0.711992
0.711992
0.711991
0.711992
0.711991
0.711993
0.711991
0.711992
0.711992
0.711992
0.711992
0.711992
0.711992
0.711992
0.711992
0.711993
0.711993
0.711994
0.711994
0.711995
0.711996
0.711997
0.711999
0.712
0.712001
0.712003
0.712005
0.712007
0.712009
0.712011
0.712014
0.712016
0.712019
0.712022
0.712025
0.712028
0.712032
0.712035
0.712039
0.712043
0.712047
0.712051
0.712056
0.71206
0.712065
0.71207
0.712075
0.71208
0.712086
0.712092
0.712097
0.712103
0.71211
0.712116
0.712123
0.71213
0.712137
0.712144
0.712152
0.712159
0.712167
0.712176
0.712184
0.712193
0.712202
0.712212
0.712222
0.712232
0.712243
0.712254
0.712266
0.712279
0.712292
0.712306
0.712321
0.712336
0.712353
0.712371
0.712391
0.712412
0.712435
0.71246
0.712487
0.712516
0.712548
0.712582
0.71262
0.71266
0.712704
0.71275
0.7128
0.712852
0.712906
0.712962
0.71302
0.71308
0.713139
0.713198
0.713257
0.713314
0.713369
0.713421
0.713469
0.713514
0.713555
0.713592
0.713623
0.713651
0.713673
0.713691
0.713704
0.713713
0.713719
0.71372
0.713719
0.713715
0.713709
0.7137
0.71369
0.713679
0.713667
0.713655
0.711998
0.711997
0.711995
0.711996
0.711994
0.711994
0.711992
0.711992
0.711991
0.711991
0.71199
0.711991
0.71199
0.711991
0.711991
0.711991
0.711992
0.711992
0.711993
0.711994
0.711995
0.711996
0.711997
0.711999
0.712
0.712002
0.712004
0.712006
0.712008
0.712011
0.712013
0.712016
0.712018
0.712021
0.712024
0.712028
0.712031
0.712035
0.712038
0.712042
0.712046
0.712051
0.712055
0.71206
0.712065
0.712069
0.712075
0.71208
0.712085
0.712091
0.712097
0.712103
0.712109
0.712116
0.712122
0.712129
0.712136
0.712143
0.712151
0.712159
0.712167
0.712175
0.712183
0.712192
0.712201
0.712211
0.712221
0.712231
0.712242
0.712253
0.712264
0.712277
0.71229
0.712304
0.712318
0.712334
0.71235
0.712368
0.712388
0.712409
0.712431
0.712456
0.712483
0.712512
0.712544
0.712579
0.712616
0.712657
0.7127
0.712746
0.712796
0.712847
0.712901
0.712957
0.713015
0.713073
0.713132
0.71319
0.713247
0.713303
0.713356
0.713407
0.713454
0.713497
0.713536
0.713571
0.713601
0.713626
0.713647
0.713664
0.713676
0.713684
0.713689
0.71369
0.713689
0.713685
0.713678
0.71367
0.713661
0.71365
0.713639
0.713627
0.711986
0.711989
0.711986
0.71199
0.711988
0.711991
0.711989
0.711991
0.71199
0.711991
0.71199
0.711991
0.71199
0.711991
0.711991
0.711991
0.711992
0.711992
0.711993
0.711994
0.711995
0.711996
0.711997
0.711998
0.712
0.712002
0.712004
0.712006
0.712008
0.71201
0.712012
0.712015
0.712018
0.712021
0.712024
0.712027
0.712031
0.712034
0.712038
0.712042
0.712046
0.71205
0.712055
0.712059
0.712064
0.712069
0.712074
0.712079
0.712085
0.712091
0.712096
0.712102
0.712109
0.712115
0.712122
0.712128
0.712135
0.712143
0.71215
0.712158
0.712166
0.712174
0.712183
0.712191
0.7122
0.71221
0.71222
0.71223
0.712241
0.712252
0.712263
0.712276
0.712288
0.712302
0.712317
0.712332
0.712349
0.712367
0.712386
0.712407
0.71243
0.712455
0.712482
0.712511
0.712543
0.712577
0.712615
0.712655
0.712699
0.712745
0.712793
0.712845
0.712898
0.712953
0.713009
0.713065
0.713122
0.713178
0.713233
0.713286
0.713337
0.713385
0.713429
0.713469
0.713505
0.713537
0.713565
0.713588
0.713606
0.713621
0.713632
0.713638
0.713642
0.713643
0.713641
0.713637
0.713631
0.713623
0.713614
0.713605
0.713595
0.713584
0.711997
0.711997
0.711993
0.711994
0.711991
0.711991
0.711989
0.711989
0.711988
0.711988
0.711987
0.711988
0.711988
0.711988
0.711988
0.711989
0.711989
0.71199
0.711991
0.711992
0.711993
0.711994
0.711996
0.711997
0.711999
0.712001
0.712002
0.712005
0.712007
0.712009
0.712012
0.712014
0.712017
0.71202
0.712023
0.712027
0.71203
0.712034
0.712037
0.712041
0.712045
0.71205
0.712054
0.712059
0.712063
0.712068
0.712074
0.712079
0.712084
0.71209
0.712096
0.712102
0.712108
0.712114
0.712121
0.712128
0.712135
0.712142
0.71215
0.712157
0.712165
0.712173
0.712182
0.712191
0.7122
0.712209
0.712219
0.712229
0.71224
0.712251
0.712263
0.712275
0.712288
0.712302
0.712317
0.712333
0.71235
0.712368
0.712388
0.712409
0.712432
0.712458
0.712485
0.712515
0.712547
0.712582
0.71262
0.71266
0.712703
0.712749
0.712797
0.712847
0.712899
0.712952
0.713006
0.71306
0.713114
0.713167
0.713218
0.713267
0.713314
0.713357
0.713397
0.713433
0.713465
0.713493
0.713517
0.713536
0.713552
0.713564
0.713572
0.713577
0.71358
0.71358
0.713577
0.713573
0.713568
0.713561
0.713554
0.713546
0.713537
0.713529
0.711966
0.71198
0.711974
0.711985
0.711982
0.711987
0.711985
0.711988
0.711987
0.711989
0.711988
0.711989
0.711988
0.711989
0.711989
0.71199
0.71199
0.711991
0.711992
0.711993
0.711993
0.711995
0.711996
0.711997
0.711999
0.712001
0.712002
0.712005
0.712007
0.712009
0.712011
0.712014
0.712017
0.71202
0.712023
0.712026
0.71203
0.712033
0.712037
0.712041
0.712045
0.71205
0.712054
0.712059
0.712063
0.712068
0.712073
0.712079
0.712084
0.71209
0.712096
0.712102
0.712108
0.712114
0.712121
0.712128
0.712135
0.712142
0.71215
0.712157
0.712165
0.712174
0.712182
0.712191
0.7122
0.71221
0.71222
0.71223
0.712241
0.712253
0.712265
0.712278
0.712291
0.712306
0.712321
0.712337
0.712355
0.712374
0.712394
0.712417
0.712441
0.712467
0.712495
0.712525
0.712558
0.712593
0.712631
0.712671
0.712714
0.712758
0.712805
0.712853
0.712903
0.712953
0.713004
0.713054
0.713104
0.713152
0.713198
0.713242
0.713283
0.713321
0.713355
0.713385
0.713412
0.713435
0.713455
0.71347
0.713482
0.713491
0.713498
0.713501
0.713502
0.713502
0.713499
0.713496
0.713491
0.713486
0.71348
0.713474
0.713468
0.713462
0.71199
0.711997
0.711989
0.711991
0.711986
0.711987
0.711985
0.711986
0.711985
0.711986
0.711985
0.711986
0.711986
0.711987
0.711987
0.711988
0.711988
0.71199
0.71199
0.711991
0.711993
0.711994
0.711995
0.711997
0.711999
0.712
0.712002
0.712004
0.712007
0.712009
0.712012
0.712014
0.712017
0.71202
0.712023
0.712027
0.71203
0.712034
0.712037
0.712041
0.712045
0.71205
0.712054
0.712059
0.712064
0.712069
0.712074
0.712079
0.712085
0.71209
0.712096
0.712103
0.712109
0.712115
0.712122
0.712129
0.712136
0.712144
0.712151
0.712159
0.712168
0.712176
0.712185
0.712194
0.712204
0.712214
0.712225
0.712236
0.712247
0.712259
0.712272
0.712286
0.7123
0.712316
0.712332
0.71235
0.712368
0.712389
0.71241
0.712434
0.712459
0.712486
0.712515
0.712546
0.71258
0.712615
0.712653
0.712692
0.712734
0.712777
0.712821
0.712867
0.712913
0.712959
0.713005
0.71305
0.713094
0.713136
0.713176
0.713213
0.713248
0.713279
0.713307
0.713331
0.713352
0.71337
0.713385
0.713396
0.713405
0.713411
0.713415
0.713417
0.713418
0.713417
0.713416
0.713413
0.71341
0.713407
0.713403
0.713399
0.713396
0.713392
0.711887
0.711968
0.711963
0.711987
0.711982
0.711991
0.711988
0.711991
0.711989
0.711991
0.71199
0.711991
0.71199
0.711991
0.711991
0.711991
0.711991
0.711992
0.711993
0.711994
0.711994
0.711996
0.711997
0.711998
0.712
0.712001
0.712003
0.712005
0.712007
0.71201
0.712012
0.712015
0.712018
0.712021
0.712024
0.712027
0.712031
0.712035
0.712038
0.712042
0.712046
0.712051
0.712055
0.71206
0.712065
0.712071
0.712075
0.712081
0.712087
0.712093
0.712099
0.712105
0.712112
0.712119
0.712126
0.712133
0.71214
0.712148
0.712157
0.712165
0.712174
0.712183
0.712193
0.712203
0.712213
0.712224
0.712236
0.712248
0.71226
0.712274
0.712288
0.712303
0.712319
0.712335
0.712353
0.712372
0.712393
0.712415
0.712438
0.712463
0.712489
0.712517
0.712547
0.712579
0.712613
0.712648
0.712685
0.712723
0.712763
0.712803
0.712845
0.712886
0.712928
0.712969
0.713009
0.713047
0.713084
0.713119
0.713152
0.713182
0.713209
0.713233
0.713254
0.713273
0.713288
0.713301
0.713311
0.71332
0.713326
0.71333
0.713333
0.713335
0.713335
0.713335
0.713335
0.713334
0.713333
0.713332
0.713331
0.71333
0.713329
0.713329
0.712245
0.712203
0.712196
0.712155
0.712142
0.712099
0.712084
0.712032
0.712023
0.71195
0.711967
0.711994
0.711987
0.711993
0.711987
0.71199
0.711987
0.711989
0.711987
0.711988
0.711987
0.711988
0.711988
0.711989
0.711989
0.71199
0.71199
0.711991
0.711992
0.711993
0.711994
0.711996
0.711997
0.711999
0.712
0.712002
0.712004
0.712006
0.712008
0.712011
0.712013
0.712016
0.712019
0.712022
0.712026
0.712029
0.712033
0.712036
0.71204
0.712045
0.712049
0.712054
0.712058
0.712063
0.712069
)
;

boundaryField
{
    inlet
    {
        type            zeroGradient;
    }
    outlet
    {
        type            fixedValue;
        value           nonuniform 0();
    }
    walls
    {
        type            zeroGradient;
    }
    symwall
    {
        type            empty;
    }
    procBoundary0to1
    {
        type            processor;
        value           nonuniform List<scalar> 10(0.713667 0.713664 0.713658 0.713642 0.713615 0.713574 0.71352 0.713456 0.71339 0.713329);
    }
    procBoundary0to2
    {
        type            processor;
        value           nonuniform List<scalar> 
133
(
0.712074
0.712079
0.712085
0.712091
0.712098
0.712104
0.712111
0.712118
0.712126
0.712133
0.712141
0.71215
0.712158
0.712168
0.712177
0.712187
0.712197
0.712208
0.712219
0.712231
0.712243
0.712256
0.71227
0.712285
0.7123
0.712316
0.712333
0.71235
0.712369
0.712389
0.71241
0.712433
0.712456
0.712481
0.712507
0.712535
0.712564
0.712595
0.712627
0.71266
0.712694
0.712729
0.712766
0.712802
0.712839
0.712876
0.712912
0.712948
0.712982
0.713016
0.713047
0.713077
0.713104
0.71313
0.713152
0.713173
0.71319
0.713206
0.713219
0.71323
0.713238
0.713246
0.713251
0.713256
0.713259
0.713262
0.713264
0.713266
0.713267
0.713268
0.713269
0.71327
0.713272
0.713273
0.713275
0.713276
0.713279
0.712254
0.712206
0.712199
0.712157
0.712144
0.7121
0.712084
0.712034
0.712018
0.71195
0.711926
0.711977
0.71197
0.711993
0.711987
0.711996
0.711992
0.711996
0.711993
0.711995
0.711993
0.711994
0.711993
0.711993
0.711993
0.711993
0.711993
0.711994
0.711994
0.711995
0.711996
0.711997
0.711999
0.712
0.712002
0.712004
0.712006
0.712008
0.71201
0.712013
0.712015
0.712018
0.712021
0.712025
0.712028
0.712032
0.712036
0.71204
0.712044
0.712049
0.712053
0.712058
0.712063
0.712069
0.712074
0.712074
)
;
    }
}


// ************************************************************************* //
