/*--------------------------------*- C++ -*----------------------------------*\
| =========                 |                                                 |
| \\      /  F ield         | OpenFOAM: The Open Source CFD Toolbox           |
|  \\    /   O peration     | Version:  4.1                                   |
|   \\  /    A nd           | Web:      www.OpenFOAM.org                      |
|    \\/     M anipulation  |                                                 |
\*---------------------------------------------------------------------------*/
FoamFile
{
    version     2.0;
    format      ascii;
    class       volVectorField;
    location    "0.0171";
    object      U;
}
// * * * * * * * * * * * * * * * * * * * * * * * * * * * * * * * * * * * * * //

dimensions      [0 1 -1 0 0 0 0];

internalField   nonuniform List<vector> 
441
(
(-0.000116632 0.000102673 0)
(-0.000545857 0.000296728 0)
(-0.00114002 0.000464462 0)
(-0.00183553 0.000561314 0)
(-0.00256316 0.000589118 0)
(-0.00326294 0.000560939 0)
(-0.00388842 0.000491078 0)
(-0.00440599 0.000391865 0)
(-0.00479255 0.000273007 0)
(-0.00503306 0.000141968 0)
(-0.00511876 4.72721e-06 0)
(-0.00504614 -0.0001334 0)
(-0.0048167 -0.000266943 0)
(-0.00443758 -0.000389478 0)
(-0.0039228 -0.000492849 0)
(-0.00329535 -0.000566506 0)
(-0.00258969 -0.000597275 0)
(-0.00185395 -0.000570218 0)
(-0.00115022 -0.000472068 0)
(-0.000549701 -0.000301411 0)
(-0.000117088 -0.000103961 0)
(-0.000346055 0.000514347 0)
(-0.00151579 0.00137489 0)
(-0.00304884 0.00201361 0)
(-0.00479179 0.00236256 0)
(-0.0065867 0.00244325 0)
(-0.00829771 0.00230749 0)
(-0.00981898 0.00201039 0)
(-0.0110735 0.00159951 0)
(-0.0120082 0.0011124 0)
(-0.0125885 0.00057799 0)
(-0.0127944 1.94517e-05 0)
(-0.0126177 -0.000542588 0)
(-0.0120623 -0.0010869 0)
(-0.0111446 -0.00158856 0)
(-0.0098968 -0.00201591 0)
(-0.00837182 -0.00232812 0)
(-0.0066483 -0.00247433 0)
(-0.00483559 -0.00239694 0)
(-0.00307411 -0.00204337 0)
(-0.00152608 -0.00139368 0)
(-0.000347593 -0.000519869 0)
(-0.000568104 0.00112498 0)
(-0.00236148 0.00288696 0)
(-0.00463423 0.00410935 0)
(-0.00716961 0.00474792 0)
(-0.00975249 0.00486777 0)
(-0.012199 0.00457375 0)
(-0.0143657 0.00397214 0)
(-0.016148 0.00315382 0)
(-0.0174738 0.00219039 0)
(-0.0182962 0.00113697 0)
(-0.0185879 3.76339e-05 0)
(-0.0183382 -0.00106846 0)
(-0.0175518 -0.002141 0)
(-0.0162509 -0.00313257 0)
(-0.0144791 -0.00398286 0)
(-0.0123079 -0.00461394 0)
(-0.00984413 -0.00492854 0)
(-0.00723592 -0.00481548 0)
(-0.00467357 -0.00416827 0)
(-0.00237839 -0.0029246 0)
(-0.000571102 -0.00113628 0)
(-0.000758258 0.00190937 0)
(-0.00307967 0.00477663 0)
(-0.00596577 0.00668093 0)
(-0.00914558 0.00763815 0)
(-0.0123574 0.00778026 0)
(-0.0153815 0.00728003 0)
(-0.0180482 0.00630518 0)
(-0.0202354 0.00499715 0)
(-0.0218595 0.00346669 0)
(-0.0228667 0.00179855 0)
(-0.0232259 6.00805e-05 0)
(-0.0229244 -0.00168915 0)
(-0.021967 -0.0033878 0)
(-0.0203779 -0.0049633 0)
(-0.0182065 -0.00632275 0)
(-0.015535 -0.00734534 0)
(-0.0124882 -0.00787932 0)
(-0.00924192 -0.0077489 0)
(-0.00602437 -0.00677819 0)
(-0.00310593 -0.00483932 0)
(-0.000763368 -0.00192841 0)
(-0.000928778 0.00285007 0)
(-0.00372948 0.00701092 0)
(-0.0071719 0.00969191 0)
(-0.0109319 0.0109946 0)
(-0.0147026 0.0111398 0)
(-0.0182318 0.0103849 0)
(-0.0213293 0.00897072 0)
(-0.0238608 0.00709709 0)
(-0.0257368 0.00491862 0)
(-0.0269009 0.00255222 0)
(-0.0273206 8.95971e-05 0)
(-0.0269821 -0.00238888 0)
(-0.0258885 -0.00480034 0)
(-0.0240632 -0.00704565 0)
(-0.0215562 -0.00899615 0)
(-0.0184546 -0.0104825 0)
(-0.0148954 -0.0112893 0)
(-0.0110769 -0.0111634 0)
(-0.00726252 -0.00984166 0)
(-0.00377179 -0.00710857 0)
(-0.000937599 -0.00288026 0)
(-0.00109872 0.00394591 0)
(-0.00438419 0.00959142 0)
(-0.00839009 0.0131473 0)
(-0.0127341 0.0148217 0)
(-0.01706 0.014947 0)
(-0.021083 0.0138841 0)
(-0.0245941 0.0119611 0)
(-0.0274513 0.00944527 0)
(-0.0295637 0.0065402 0)
(-0.0308762 0.00339675 0)
(-0.0313574 0.000130799 0)
(-0.0309928 -0.0031577 0)
(-0.0297827 -0.00636539 0)
(-0.0277456 -0.00936639 0)
(-0.0249273 -0.0119936 0)
(-0.0214146 -0.0140229 0)
(-0.017352 -0.0151644 0)
(-0.0129582 -0.0150709 0)
(-0.0085342 -0.0133718 0)
(-0.00445404 -0.00974037 0)
(-0.00111405 -0.00399341 0)
(-0.00128654 0.00521362 0)
(-0.00511345 0.0125558 0)
(-0.00974579 0.0170935 0)
(-0.0147314 0.0191639 0)
(-0.0196572 0.0192375 0)
(-0.0242026 0.0178022 0)
(-0.0281421 0.0152909 0)
(-0.0313303 0.0120498 0)
(-0.0336803 0.0083365 0)
(-0.0351431 0.00433718 0)
(-0.0356916 0.000190018 0)
(-0.0353111 -0.00398854 0)
(-0.0339971 -0.00807773 0)
(-0.0317592 -0.0119263 0)
(-0.028633 -0.0153268 0)
(-0.024698 -0.0179929 0)
(-0.0201009 -0.0195466 0)
(-0.0150794 -0.019526 0)
(-0.00997532 -0.0174264 0)
(-0.00522824 -0.0127821 0)
(-0.00131265 -0.00528891 0)
(-0.00150838 0.00668679 0)
(-0.00597823 0.0159747 0)
(-0.0113457 0.0216124 0)
(-0.0170701 0.0240969 0)
(-0.0226702 0.0240711 0)
(-0.0277872 0.0221805 0)
(-0.0321821 0.0189857 0)
(-0.0357133 0.0149249 0)
(-0.0383055 0.0103163 0)
(-0.0399224 0.00538083 0)
(-0.0405453 0.0002753 0)
(-0.0401609 -0.00487325 0)
(-0.0387575 -0.00993245 0)
(-0.0363304 -0.0147294 0)
(-0.0328963 -0.0190154 0)
(-0.0285181 -0.0224343 0)
(-0.0233363 -0.024503 0)
(-0.0176031 -0.0246176 0)
(-0.0117055 -0.0221034 0)
(-0.00616295 -0.0163183 0)
(-0.0015515 -0.00680673 0)
(-0.00177757 0.00841461 0)
(-0.00702898 0.0199475 0)
(-0.0132739 0.026814 0)
(-0.0198568 0.0297161 0)
(-0.0262153 0.029517 0)
(-0.0319511 0.0270614 0)
(-0.0368195 0.0230663 0)
(-0.0406934 0.0180787 0)
(-0.043521 0.0124827 0)
(-0.045288 0.00653247 0)
(-0.0459903 0.000396183 0)
(-0.045618 -0.00579795 0)
(-0.0441498 -0.0119156 0)
(-0.0415594 -0.0177694 0)
(-0.0378339 -0.0230713 0)
(-0.0330049 -0.0273877 0)
(-0.0271927 -0.0301097 0)
(-0.0206547 -0.0304561 0)
(-0.0138244 -0.0275331 0)
(-0.00731809 -0.0204672 0)
(-0.00184637 -0.0086051 0)
(-0.00210325 0.0104605 0)
(-0.00830049 0.0245965 0)
(-0.0155808 0.0328245 0)
(-0.0231405 0.0361192 0)
(-0.0303222 0.0356338 0)
(-0.036693 0.0324672 0)
(-0.0420164 0.0275298 0)
(-0.0461977 0.0214965 0)
(-0.0492247 0.0148218 0)
(-0.0511185 0.0077878 0)
(-0.0518978 0.000562827 0)
(-0.051559 -0.00673803 0)
(-0.0500691 -0.0139932 0)
(-0.0473718 -0.0210135 0)
(-0.04341 -0.0274773 0)
(-0.0381647 -0.0328684 0)
(-0.0317134 -0.036429 0)
(-0.0243001 -0.0371547 0)
(-0.0163987 -0.0338656 0)
(-0.00873932 -0.0253754 0)
(-0.00220933 -0.0107599 0)
(-0.00248662 0.0129 0)
(-0.00979785 0.0300569 0)
(-0.0182555 0.0397661 0)
(-0.0268681 0.0433795 0)
(-0.0348754 0.0424381 0)
(-0.0418239 0.0383698 0)
(-0.0475103 0.032323 0)
(-0.0518984 0.02512 0)
(-0.0550379 0.0172873 0)
(-0.057001 0.00912467 0)
(-0.0578398 0.000783869 0)
(-0.0575614 -0.00765324 0)
(-0.0561193 -0.016099 0)
(-0.0534193 -0.0243815 0)
(-0.0493432 -0.0321591 0)
(-0.043796 -0.0388326 0)
(-0.03678 -0.0434726 0)
(-0.0284933 -0.0447969 0)
(-0.0194294 -0.0412473 0)
(-0.0104418 -0.0312069 0)
(-0.00264462 -0.0133626 0)
(-0.00291321 0.0158143 0)
(-0.0114672 0.0364555 0)
(-0.0211698 0.0477214 0)
(-0.0308018 0.0514993 0)
(-0.0395057 0.0498573 0)
(-0.0468402 0.0446467 0)
(-0.0526747 0.0373053 0)
(-0.0570665 0.0288189 0)
(-0.0601536 0.019781 0)
(-0.0620771 0.0104914 0)
(-0.0629331 0.00106236 0)
(-0.0627451 -0.00848372 0)
(-0.0614536 -0.0181208 0)
(-0.0589201 -0.0277217 0)
(-0.0549502 -0.0369481 0)
(-0.0493443 -0.0451287 0)
(-0.0419871 -0.0511463 0)
(-0.0329785 -0.0533805 0)
(-0.0227863 -0.0497774 0)
(-0.0123765 -0.0381178 0)
(-0.00313991 -0.0165138 0)
(-0.00333897 0.0192777 0)
(-0.0131445 0.0438713 0)
(-0.0239835 0.0566698 0)
(-0.0343828 0.0603369 0)
(-0.0434231 0.0576572 0)
(-0.0507356 0.0510205 0)
(-0.0563196 0.0422023 0)
(-0.0603681 0.0323581 0)
(-0.0631332 0.0221305 0)
(-0.0648398 0.0117934 0)
(-0.0656356 0.00138957 0)
(-0.0655661 -0.0091483 0)
(-0.0645626 -0.0198885 0)
(-0.0624431 -0.0307844 0)
(-0.0589287 -0.0415373 0)
(-0.0536915 -0.0514322 0)
(-0.04645 -0.0591663 0)
(-0.0371327 -0.0627279 0)
(-0.0260983 -0.0594276 0)
(-0.0143715 -0.0462065 0)
(-0.00365099 -0.020308 0)
(-0.00366713 0.0233319 0)
(-0.0144709 0.0522631 0)
(-0.0259967 0.0663838 0)
(-0.0365313 0.0694943 0)
(-0.0451835 0.0653442 0)
(-0.0517554 0.0569828 0)
(-0.0564482 0.0465539 0)
(-0.0596302 0.0353641 0)
(-0.0616834 0.0240694 0)
(-0.0629186 0.0128803 0)
(-0.0635351 0.00173739 0)
(-0.0636028 -0.00954739 0)
(-0.0630528 -0.0211694 0)
(-0.0616719 -0.0332029 0)
(-0.0591069 -0.0454385 0)
(-0.0548952 -0.0571715 0)
(-0.0485504 -0.0669511 0)
(-0.0397417 -0.0723537 0)
(-0.0285859 -0.0699141 0)
(-0.0160378 -0.0554233 0)
(-0.0040766 -0.024803 0)
(-0.00370945 0.0279414 0)
(-0.0147574 0.0613533 0)
(-0.0259274 0.0762714 0)
(-0.0353717 0.0781658 0)
(-0.0424018 0.0720477 0)
(-0.0471266 0.0617201 0)
(-0.0500192 0.0496747 0)
(-0.0516394 0.0373089 0)
(-0.0524856 0.0252314 0)
(-0.0529324 0.0135433 0)
(-0.0532135 0.0020522 0)
(-0.0534197 -0.00957304 0)
(-0.0534951 -0.0216785 0)
(-0.0532258 -0.034495 0)
(-0.0522243 -0.0479608 0)
(-0.0499273 -0.0614649 0)
(-0.0456426 -0.0735031 0)
(-0.0387059 -0.0812936 0)
(-0.028818 -0.0805075 0)
(-0.01662 -0.0654249 0)
(-0.0042173 -0.0299667 0)
(-0.00311408 0.0329187 0)
(-0.0127443 0.0704457 0)
(-0.0215626 0.0851592 0)
(-0.0278617 0.0849617 0)
(-0.0314299 0.0764172 0)
(-0.0328209 0.0640759 0)
(-0.0328003 0.0506602 0)
(-0.0320741 0.0375358 0)
(-0.0311896 0.0251781 0)
(-0.0305238 0.0135321 0)
(-0.0303036 0.00225507 0)
(-0.0306261 -0.00912849 0)
(-0.0314648 -0.0211157 0)
(-0.0326538 -0.0341101 0)
(-0.0338515 -0.0482485 0)
(-0.0344931 -0.0631198 0)
(-0.0337649 -0.0773317 0)
(-0.0306745 -0.0879296 0)
(-0.0243471 -0.0897867 0)
(-0.0147429 -0.0753539 0)
(-0.00370108 -0.0355887 0)
(-0.00119979 0.0377842 0)
(-0.00611065 0.0781356 0)
(-0.00915477 0.0910137 0)
(-0.00927377 0.0877553 0)
(-0.00702748 0.0766037 0)
(-0.00343237 0.0626219 0)
(0.000576247 0.0484939 0)
(0.00430656 0.035366 0)
(0.00730607 0.0234836 0)
(0.00930231 0.0126069 0)
(0.0101419 0.00225528 0)
(0.00974829 -0.00815706 0)
(0.00810517 -0.0192403 0)
(0.00527043 -0.0315462 0)
(0.00142464 -0.0454271 0)
(-0.00304275 -0.0607684 0)
(-0.00741989 -0.0765133 0)
(-0.0105873 -0.0898952 0)
(-0.0111165 -0.0953663 0)
(-0.00791123 -0.0835094 0)
(-0.00181567 -0.0411219 0)
(0.00351797 0.041514 0)
(0.00968297 0.0818878 0)
(0.0177467 0.0906847 0)
(0.02758 0.0837081 0)
(0.0379373 0.0704807 0)
(0.0477255 0.0559485 0)
(0.0562397 0.0423239 0)
(0.0631142 0.0303212 0)
(0.0682034 0.0198926 0)
(0.0714715 0.0106327 0)
(0.0729138 0.00198285 0)
(0.0725076 -0.0066755 0)
(0.0701915 -0.0159803 0)
(0.0658683 -0.0265506 0)
(0.0594424 -0.0389014 0)
(0.0509049 -0.0532425 0)
(0.0404914 -0.0690551 0)
(0.0289172 -0.084265 0)
(0.0176194 -0.0937444 0)
(0.00863187 -0.0869144 0)
(0.00297061 -0.0453983 0)
(0.0152107 0.0416973 0)
(0.0443829 0.0770185 0)
(0.0705755 0.0796935 0)
(0.0934262 0.0696989 0)
(0.112604 0.0563035 0)
(0.128135 0.0432872 0)
(0.140276 0.031947 0)
(0.149377 0.0224619 0)
(0.155792 0.0145386 0)
(0.159809 0.00770587 0)
(0.161609 0.00143943 0)
(0.161246 -0.00479719 0)
(0.158628 -0.0115485 0)
(0.153508 -0.0193675 0)
(0.145477 -0.0287882 0)
(0.133982 -0.0402268 0)
(0.11839 -0.0537189 0)
(0.0981648 -0.0682836 0)
(0.0732717 -0.0804164 0)
(0.0447667 -0.0804472 0)
(0.0148979 -0.0457836 0)
(0.0492142 0.034258 0)
(0.121037 0.0572783 0)
(0.170073 0.0540191 0)
(0.203661 0.0443555 0)
(0.227601 0.034347 0)
(0.244898 0.0256239 0)
(0.25738 0.0184938 0)
(0.266223 0.0127825 0)
(0.272218 0.00816066 0)
(0.275885 0.00426662 0)
(0.277526 0.00074769 0)
(0.277247 -0.00273542 0)
(0.27496 -0.0065195 0)
(0.270365 -0.0109518 0)
(0.262891 -0.0163932 0)
(0.251605 -0.0231975 0)
(0.235034 -0.0316375 0)
(0.210848 -0.0416783 0)
(0.175463 -0.0522501 0)
(0.123075 -0.0579331 0)
(0.0492911 -0.0377479 0)
(0.182801 0.00455463 0)
(0.296375 0.00784089 0)
(0.349714 0.0110232 0)
(0.376223 0.0105238 0)
(0.391933 0.00859643 0)
(0.402003 0.00653492 0)
(0.408747 0.00473811 0)
(0.41329 0.00326811 0)
(0.416264 0.00207137 0)
(0.418036 0.00106263 0)
(0.418809 0.000152418 0)
(0.418658 -0.000745817 0)
(0.417543 -0.00171509 0)
(0.415295 -0.00283349 0)
(0.411567 -0.00416452 0)
(0.405715 -0.00572716 0)
(0.396502 -0.00741785 0)
(0.381279 -0.0088391 0)
(0.354089 -0.00895853 0)
(0.297856 -0.0066125 0)
(0.181076 -0.00719109 0)
)
;

boundaryField
{
    movingWall
    {
        type            fixedValue;
        value           uniform (0.5 0 0);
    }
    fixedWalls
    {
        type            noSlip;
    }
    frontAndBack
    {
        type            empty;
    }
}


// ************************************************************************* //
