/*--------------------------------*- C++ -*----------------------------------*\
| =========                 |                                                 |
| \\      /  F ield         | OpenFOAM: The Open Source CFD Toolbox           |
|  \\    /   O peration     | Version:  4.1                                   |
|   \\  /    A nd           | Web:      www.OpenFOAM.org                      |
|    \\/     M anipulation  |                                                 |
\*---------------------------------------------------------------------------*/
FoamFile
{
    version     2.0;
    format      ascii;
    class       volScalarField;
    location    "480";
    object      p;
}
// * * * * * * * * * * * * * * * * * * * * * * * * * * * * * * * * * * * * * //

dimensions      [1 -1 -2 0 0 0 0];

internalField   nonuniform List<scalar> 
3264
(
0.712503
0.712501
0.7125
0.712499
0.712499
0.7125
0.712501
0.712503
0.712506
0.712509
0.712513
0.712519
0.712525
0.712532
0.71254
0.71255
0.71256
0.712571
0.712584
0.712597
0.712612
0.712628
0.712645
0.712663
0.712682
0.712703
0.712725
0.712748
0.712773
0.712799
0.712827
0.712856
0.712887
0.71292
0.712955
0.712991
0.713029
0.71307
0.713112
0.713157
0.713203
0.713251
0.713301
0.713353
0.713407
0.713462
0.713518
0.713576
0.713634
0.713693
0.713753
0.713812
0.713871
0.713929
0.713986
0.714042
0.714096
0.714148
0.714198
0.714246
0.71429
0.714332
0.714371
0.714407
0.71444
0.714469
0.714495
0.714519
0.714539
0.714557
0.714572
0.714584
0.714595
0.714603
0.71461
0.714615
0.714618
0.714621
0.714623
0.714624
0.714624
0.714624
0.714624
0.714624
0.714623
0.714623
0.714623
0.714623
0.714623
0.714624
0.714625
0.714626
0.714627
0.714629
0.714631
0.714633
0.714635
0.714638
0.71464
0.714643
0.714646
0.714649
0.714652
0.714654
0.714657
0.71466
0.714663
0.714665
0.714668
0.71467
0.714672
0.714674
0.714676
0.714678
0.714679
0.71468
0.714681
0.714682
0.714682
0.714683
0.714683
0.714683
0.714682
0.714682
0.714681
0.71468
0.714678
0.714677
0.714675
0.714673
0.714671
0.714669
0.714667
0.714664
0.714662
0.714659
0.714656
0.714653
0.714649
0.714646
0.714643
0.714639
0.714635
0.714632
0.714628
0.714624
0.71462
0.714616
0.714612
0.714608
0.714604
0.7146
0.714596
0.714591
0.714587
0.714583
0.714578
0.714574
0.714569
0.714565
0.71456
0.714555
0.714551
0.714546
0.714541
0.714536
0.714531
0.714526
0.71452
0.714515
0.71451
0.714504
0.714498
0.714492
0.714486
0.71448
0.714474
0.714468
0.714461
0.714454
0.714447
0.71444
0.714433
0.714426
0.714418
0.71441
0.714402
0.714394
0.714386
0.714378
0.71437
0.714361
0.714352
0.714344
0.714335
0.714326
0.714317
0.714308
0.714299
0.714289
0.712504
0.712503
0.712502
0.712502
0.712502
0.712502
0.712503
0.712505
0.712508
0.712511
0.712515
0.71252
0.712527
0.712534
0.712542
0.712551
0.712561
0.712573
0.712585
0.712598
0.712613
0.712629
0.712646
0.712664
0.712683
0.712704
0.712726
0.712749
0.712773
0.712799
0.712827
0.712856
0.712887
0.712919
0.712954
0.71299
0.713028
0.713068
0.71311
0.713154
0.7132
0.713248
0.713298
0.71335
0.713403
0.713458
0.713514
0.713571
0.713629
0.713688
0.713747
0.713806
0.713865
0.713923
0.71398
0.714036
0.71409
0.714142
0.714192
0.71424
0.714284
0.714326
0.714365
0.714401
0.714434
0.714464
0.71449
0.714514
0.714534
0.714552
0.714567
0.71458
0.714591
0.714599
0.714606
0.714611
0.714615
0.714618
0.71462
0.714622
0.714622
0.714623
0.714623
0.714623
0.714623
0.714623
0.714623
0.714623
0.714624
0.714625
0.714626
0.714627
0.714628
0.71463
0.714632
0.714634
0.714637
0.714639
0.714642
0.714644
0.714647
0.71465
0.714653
0.714656
0.714659
0.714662
0.714664
0.714667
0.714669
0.714671
0.714674
0.714676
0.714677
0.714679
0.71468
0.714681
0.714682
0.714683
0.714683
0.714684
0.714684
0.714683
0.714683
0.714682
0.714681
0.71468
0.714679
0.714677
0.714676
0.714674
0.714672
0.714669
0.714667
0.714664
0.714662
0.714659
0.714656
0.714653
0.714649
0.714646
0.714642
0.714639
0.714635
0.714631
0.714628
0.714624
0.71462
0.714616
0.714612
0.714608
0.714603
0.714599
0.714595
0.714591
0.714586
0.714582
0.714577
0.714573
0.714568
0.714564
0.714559
0.714554
0.71455
0.714545
0.71454
0.714535
0.71453
0.714525
0.71452
0.714514
0.714509
0.714503
0.714498
0.714492
0.714486
0.71448
0.714474
0.714467
0.714461
0.714454
0.714447
0.71444
0.714433
0.714425
0.714418
0.71441
0.714403
0.714395
0.714386
0.714378
0.71437
0.714361
0.714353
0.714344
0.714335
0.714326
0.714317
0.714308
0.7143
0.714288
0.712506
0.712504
0.712502
0.712502
0.712502
0.712502
0.712503
0.712504
0.712507
0.71251
0.712514
0.712519
0.712525
0.712533
0.712541
0.71255
0.71256
0.712571
0.712584
0.712597
0.712612
0.712628
0.712644
0.712662
0.712682
0.712702
0.712724
0.712747
0.712772
0.712797
0.712825
0.712854
0.712885
0.712917
0.712951
0.712987
0.713025
0.713065
0.713107
0.71315
0.713196
0.713244
0.713294
0.713345
0.713398
0.713453
0.713509
0.713566
0.713624
0.713683
0.713742
0.713801
0.71386
0.713918
0.713975
0.714031
0.714085
0.714137
0.714187
0.714234
0.714279
0.714321
0.71436
0.714396
0.714428
0.714458
0.714485
0.714508
0.714529
0.714546
0.714562
0.714574
0.714585
0.714594
0.714601
0.714606
0.71461
0.714614
0.714616
0.714617
0.714618
0.714619
0.714619
0.71462
0.71462
0.71462
0.714621
0.714621
0.714622
0.714623
0.714624
0.714626
0.714627
0.714629
0.714632
0.714634
0.714636
0.714639
0.714642
0.714645
0.714648
0.714651
0.714654
0.714657
0.71466
0.714662
0.714665
0.714668
0.71467
0.714673
0.714675
0.714677
0.714678
0.71468
0.714681
0.714682
0.714683
0.714684
0.714684
0.714685
0.714685
0.714684
0.714684
0.714683
0.714682
0.714681
0.71468
0.714678
0.714676
0.714674
0.714672
0.71467
0.714667
0.714665
0.714662
0.714659
0.714656
0.714653
0.71465
0.714646
0.714643
0.714639
0.714635
0.714632
0.714628
0.714624
0.71462
0.714616
0.714612
0.714607
0.714603
0.714599
0.714595
0.71459
0.714586
0.714582
0.714577
0.714573
0.714568
0.714563
0.714559
0.714554
0.714549
0.714545
0.71454
0.714535
0.71453
0.714524
0.714519
0.714514
0.714508
0.714503
0.714497
0.714491
0.714485
0.714479
0.714473
0.714467
0.71446
0.714454
0.714447
0.71444
0.714433
0.714425
0.714418
0.71441
0.714402
0.714394
0.714386
0.714378
0.71437
0.714361
0.714353
0.714344
0.714335
0.714326
0.714317
0.714308
0.714299
0.714288
0.7125
0.7125
0.712498
0.712499
0.712499
0.712499
0.7125
0.712502
0.712504
0.712508
0.712512
0.712517
0.712523
0.71253
0.712539
0.712548
0.712558
0.712569
0.712582
0.712595
0.71261
0.712625
0.712642
0.71266
0.712679
0.7127
0.712722
0.712745
0.712769
0.712795
0.712822
0.712851
0.712881
0.712913
0.712947
0.712983
0.713021
0.71306
0.713102
0.713145
0.713191
0.713238
0.713288
0.713339
0.713392
0.713447
0.713503
0.71356
0.713617
0.713676
0.713735
0.713793
0.713852
0.71391
0.713966
0.714022
0.714075
0.714127
0.714177
0.714224
0.714268
0.714309
0.714348
0.714383
0.714416
0.714445
0.714471
0.714494
0.714515
0.714532
0.714547
0.71456
0.714571
0.71458
0.714587
0.714593
0.714597
0.714601
0.714604
0.714606
0.714607
0.714609
0.71461
0.714611
0.714612
0.714612
0.714614
0.714615
0.714616
0.714618
0.71462
0.714622
0.714624
0.714627
0.714629
0.714632
0.714635
0.714638
0.714641
0.714645
0.714648
0.714651
0.714654
0.714657
0.714661
0.714664
0.714666
0.714669
0.714672
0.714674
0.714676
0.714678
0.71468
0.714682
0.714683
0.714684
0.714685
0.714686
0.714686
0.714687
0.714686
0.714686
0.714686
0.714685
0.714684
0.714683
0.714681
0.71468
0.714678
0.714676
0.714674
0.714671
0.714669
0.714666
0.714663
0.71466
0.714657
0.714654
0.71465
0.714647
0.714643
0.71464
0.714636
0.714632
0.714628
0.714624
0.71462
0.714616
0.714612
0.714608
0.714603
0.714599
0.714595
0.71459
0.714586
0.714581
0.714577
0.714572
0.714568
0.714563
0.714558
0.714554
0.714549
0.714544
0.714539
0.714534
0.714529
0.714524
0.714518
0.714513
0.714508
0.714502
0.714496
0.71449
0.714485
0.714478
0.714472
0.714466
0.714459
0.714453
0.714446
0.714439
0.714432
0.714424
0.714417
0.714409
0.714402
0.714394
0.714386
0.714378
0.714369
0.714361
0.714352
0.714344
0.714335
0.714326
0.714317
0.714308
0.714299
0.714287
0.712497
0.712497
0.712495
0.712495
0.712494
0.712494
0.712495
0.712497
0.7125
0.712503
0.712508
0.712513
0.71252
0.712527
0.712535
0.712545
0.712555
0.712566
0.712579
0.712593
0.712607
0.712623
0.71264
0.712658
0.712677
0.712697
0.712719
0.712742
0.712766
0.712792
0.712819
0.712848
0.712878
0.71291
0.712944
0.71298
0.713017
0.713057
0.713098
0.713142
0.713187
0.713235
0.713284
0.713335
0.713388
0.713442
0.713498
0.713554
0.713612
0.71367
0.713728
0.713786
0.713844
0.713901
0.713957
0.714011
0.714064
0.714115
0.714163
0.714209
0.714252
0.714292
0.71433
0.714364
0.714395
0.714424
0.714449
0.714471
0.714491
0.714508
0.714523
0.714536
0.714546
0.714555
0.714563
0.714569
0.714574
0.714578
0.714582
0.714585
0.714587
0.714589
0.714591
0.714593
0.714596
0.714598
0.7146
0.714602
0.714605
0.714607
0.71461
0.714613
0.714616
0.71462
0.714623
0.714627
0.714631
0.714634
0.714638
0.714642
0.714646
0.71465
0.714653
0.714657
0.71466
0.714664
0.714667
0.71467
0.714673
0.714676
0.714678
0.71468
0.714682
0.714684
0.714686
0.714687
0.714688
0.714689
0.714689
0.714689
0.714689
0.714689
0.714688
0.714688
0.714687
0.714686
0.714684
0.714682
0.714681
0.714678
0.714676
0.714674
0.714671
0.714668
0.714665
0.714662
0.714659
0.714656
0.714652
0.714649
0.714645
0.714641
0.714638
0.714634
0.71463
0.714626
0.714621
0.714617
0.714613
0.714609
0.714604
0.7146
0.714595
0.714591
0.714586
0.714582
0.714577
0.714573
0.714568
0.714563
0.714558
0.714553
0.714549
0.714544
0.714539
0.714533
0.714528
0.714523
0.714518
0.714512
0.714507
0.714501
0.714495
0.714489
0.714483
0.714477
0.714471
0.714464
0.714458
0.714451
0.714444
0.714437
0.71443
0.714423
0.714415
0.714408
0.7144
0.714392
0.714384
0.714376
0.714368
0.71436
0.714352
0.714343
0.714334
0.714325
0.714317
0.714307
0.714298
0.714287
0.712465
0.71248
0.71248
0.712486
0.712487
0.712489
0.712491
0.712494
0.712497
0.712501
0.712505
0.712511
0.712517
0.712525
0.712533
0.712543
0.712553
0.712565
0.712577
0.712591
0.712606
0.712621
0.712638
0.712656
0.712676
0.712696
0.712718
0.712741
0.712765
0.712791
0.712818
0.712847
0.712877
0.712909
0.712943
0.712979
0.713016
0.713056
0.713097
0.713141
0.713186
0.713234
0.713283
0.713334
0.713386
0.71344
0.713495
0.713551
0.713608
0.713665
0.713723
0.71378
0.713836
0.713892
0.713946
0.713999
0.71405
0.714098
0.714145
0.714189
0.71423
0.714268
0.714304
0.714336
0.714366
0.714392
0.714416
0.714437
0.714456
0.714472
0.714486
0.714499
0.714509
0.714518
0.714526
0.714533
0.714539
0.714544
0.714548
0.714552
0.714556
0.71456
0.714564
0.714567
0.714571
0.714575
0.714579
0.714583
0.714587
0.714591
0.714595
0.7146
0.714604
0.714609
0.714614
0.714618
0.714623
0.714628
0.714633
0.714637
0.714642
0.714646
0.714651
0.714655
0.714659
0.714663
0.714667
0.71467
0.714674
0.714677
0.71468
0.714682
0.714685
0.714687
0.714688
0.71469
0.714691
0.714692
0.714693
0.714693
0.714693
0.714693
0.714693
0.714692
0.714691
0.71469
0.714688
0.714687
0.714685
0.714683
0.71468
0.714678
0.714675
0.714672
0.714669
0.714666
0.714663
0.71466
0.714656
0.714652
0.714649
0.714645
0.714641
0.714637
0.714633
0.714628
0.714624
0.71462
0.714615
0.714611
0.714606
0.714602
0.714597
0.714593
0.714588
0.714583
0.714578
0.714573
0.714569
0.714564
0.714559
0.714554
0.714549
0.714543
0.714538
0.714533
0.714528
0.714522
0.714517
0.714511
0.714505
0.714499
0.714493
0.714487
0.714481
0.714475
0.714469
0.714462
0.714455
0.714449
0.714442
0.714435
0.714428
0.71442
0.714413
0.714405
0.714398
0.71439
0.714382
0.714374
0.714366
0.714358
0.71435
0.714341
0.714333
0.714324
0.714316
0.714307
0.714297
0.714287
0.712465
0.712481
0.71248
0.712483
0.712483
0.712486
0.712488
0.712491
0.712495
0.712499
0.712504
0.71251
0.712517
0.712524
0.712533
0.712543
0.712553
0.712565
0.712577
0.712591
0.712606
0.712622
0.712639
0.712657
0.712676
0.712697
0.712719
0.712742
0.712767
0.712793
0.71282
0.712849
0.71288
0.712912
0.712947
0.712983
0.713021
0.71306
0.713102
0.713146
0.713192
0.713239
0.713288
0.713339
0.713391
0.713444
0.713499
0.713554
0.71361
0.713665
0.713721
0.713776
0.713831
0.713884
0.713936
0.713986
0.714035
0.714081
0.714124
0.714165
0.714203
0.714239
0.714271
0.714301
0.714328
0.714352
0.714374
0.714393
0.714411
0.714426
0.714439
0.714451
0.714461
0.714471
0.714479
0.714487
0.714493
0.7145
0.714506
0.714512
0.714518
0.714523
0.714529
0.714535
0.71454
0.714546
0.714552
0.714558
0.714564
0.71457
0.714576
0.714582
0.714588
0.714595
0.714601
0.714607
0.714613
0.714619
0.714625
0.714631
0.714636
0.714642
0.714647
0.714652
0.714657
0.714662
0.714666
0.71467
0.714674
0.714678
0.714681
0.714684
0.714687
0.714689
0.714691
0.714693
0.714695
0.714696
0.714697
0.714698
0.714698
0.714698
0.714698
0.714697
0.714696
0.714695
0.714694
0.714692
0.714691
0.714688
0.714686
0.714684
0.714681
0.714678
0.714675
0.714672
0.714669
0.714665
0.714661
0.714658
0.714654
0.71465
0.714646
0.714641
0.714637
0.714633
0.714628
0.714624
0.714619
0.714615
0.71461
0.714605
0.7146
0.714595
0.714591
0.714586
0.714581
0.714575
0.71457
0.714565
0.71456
0.714555
0.714549
0.714544
0.714538
0.714533
0.714527
0.714522
0.714516
0.71451
0.714504
0.714498
0.714492
0.714485
0.714479
0.714472
0.714466
0.714459
0.714452
0.714446
0.714439
0.714431
0.714424
0.714417
0.71441
0.714402
0.714395
0.714387
0.714379
0.714371
0.714363
0.714355
0.714347
0.714339
0.714331
0.714323
0.714314
0.714305
0.714297
0.714287
0.712311
0.712449
0.712466
0.712487
0.71249
0.712493
0.712495
0.712497
0.7125
0.712504
0.712508
0.712514
0.71252
0.712528
0.712536
0.712546
0.712556
0.712568
0.712581
0.712595
0.71261
0.712626
0.712643
0.712661
0.712681
0.712702
0.712725
0.712748
0.712773
0.7128
0.712828
0.712858
0.712889
0.712923
0.712957
0.712994
0.713033
0.713073
0.713116
0.71316
0.713206
0.713253
0.713302
0.713353
0.713404
0.713457
0.71351
0.713564
0.713618
0.713672
0.713726
0.713779
0.71383
0.71388
0.713929
0.713976
0.71402
0.714062
0.714102
0.714139
0.714173
0.714205
0.714234
0.71426
0.714284
0.714306
0.714325
0.714343
0.714359
0.714373
0.714385
0.714397
0.714408
0.714418
0.714427
0.714436
0.714444
0.714452
0.71446
0.714468
0.714476
0.714484
0.714492
0.7145
0.714508
0.714516
0.714524
0.714532
0.71454
0.714548
0.714556
0.714564
0.714572
0.71458
0.714587
0.714595
0.714602
0.71461
0.714617
0.714624
0.71463
0.714637
0.714643
0.714649
0.714655
0.71466
0.714665
0.71467
0.714674
0.714679
0.714682
0.714686
0.714689
0.714692
0.714695
0.714697
0.714699
0.7147
0.714702
0.714703
0.714703
0.714703
0.714703
0.714703
0.714703
0.714702
0.7147
0.714699
0.714697
0.714695
0.714693
0.714691
0.714688
0.714685
0.714682
0.714679
0.714676
0.714672
0.714668
0.714664
0.71466
0.714656
0.714652
0.714648
0.714643
0.714639
0.714634
0.714629
0.714625
0.71462
0.714615
0.71461
0.714605
0.7146
0.714594
0.714589
0.714584
0.714578
0.714573
0.714568
0.714562
0.714556
0.714551
0.714545
0.714539
0.714533
0.714527
0.714521
0.714515
0.714509
0.714503
0.714496
0.71449
0.714483
0.714476
0.71447
0.714463
0.714456
0.714449
0.714442
0.714435
0.714428
0.71442
0.714413
0.714406
0.714398
0.714391
0.714383
0.714375
0.714368
0.71436
0.714352
0.714344
0.714337
0.714329
0.714321
0.714312
0.714304
0.714296
0.714287
0.713034
0.712978
0.712916
0.712849
0.712776
0.712699
0.712612
0.712495
0.71304
0.712994
0.712931
0.712862
0.712789
0.712712
0.712622
0.712525
0.713044
0.713005
0.712947
0.712882
0.712813
0.712741
0.712671
0.712601
0.713054
0.71302
0.712967
0.712906
0.712842
0.712778
0.712715
0.712657
0.713066
0.713034
0.712985
0.712928
0.71287
0.712812
0.712758
0.71271
0.71308
0.713048
0.712999
0.712945
0.712891
0.712839
0.712791
0.712748
0.713096
0.713058
0.713008
0.712956
0.712904
0.712856
0.712811
0.712772
0.713103
0.713056
0.713006
0.712956
0.712907
0.712861
0.712818
0.712778
0.712434
0.712454
0.712475
0.712486
0.712492
0.712495
0.712497
0.7125
0.712503
0.712507
0.712512
0.712517
0.712524
0.712532
0.712541
0.712551
0.712562
0.712574
0.712587
0.712601
0.712617
0.712633
0.712651
0.712671
0.712691
0.712713
0.712736
0.712761
0.712787
0.712815
0.712844
0.712875
0.712908
0.712942
0.712978
0.713016
0.713056
0.713097
0.71314
0.713185
0.713232
0.713279
0.713328
0.713378
0.713429
0.713481
0.713533
0.713585
0.713637
0.713688
0.713738
0.713788
0.713835
0.713882
0.713926
0.713968
0.714008
0.714045
0.71408
0.714113
0.714143
0.71417
0.714195
0.714218
0.714239
0.714258
0.714276
0.714292
0.714306
0.71432
0.714333
0.714345
0.714356
0.714367
0.714378
0.714388
0.714399
0.714409
0.714419
0.714429
0.714439
0.714449
0.714459
0.71447
0.71448
0.71449
0.7145
0.714509
0.714519
0.714529
0.714539
0.714548
0.714557
0.714567
0.714576
0.714584
0.714593
0.714601
0.71461
0.714617
0.714625
0.714632
0.714639
0.714646
0.714653
0.714659
0.714664
0.71467
0.714675
0.71468
0.714684
0.714688
0.714692
0.714695
0.714698
0.714701
0.714703
0.714705
0.714706
0.714708
0.714709
0.714709
0.714709
0.714709
0.714709
0.714708
0.714707
0.714706
0.714704
0.714703
0.714701
0.714698
0.714696
0.714693
0.71469
0.714687
0.714683
0.71468
0.714676
0.714672
0.714668
0.714664
0.714659
0.714655
0.71465
0.714645
0.714641
0.714636
0.714631
0.714626
0.71462
0.714615
0.71461
0.714604
0.714599
0.714593
0.714588
0.714582
0.714576
0.71457
0.714565
0.714559
0.714552
0.714546
0.71454
0.714534
0.714527
0.714521
0.714515
0.714508
0.714501
0.714495
0.714488
0.714481
0.714474
0.714467
0.71446
0.714453
0.714445
0.714438
0.714431
0.714424
0.714416
0.714409
0.714401
0.714394
0.714387
0.714379
0.714372
0.714364
0.714357
0.714349
0.714341
0.714334
0.714326
0.714319
0.714311
0.714303
0.714295
0.714288
0.712454
0.712465
0.712478
0.71249
0.712498
0.712503
0.712506
0.712509
0.712512
0.712516
0.712521
0.712526
0.712533
0.712541
0.71255
0.71256
0.712571
0.712584
0.712598
0.712613
0.712629
0.712647
0.712666
0.712686
0.712708
0.712731
0.712756
0.712782
0.71281
0.712839
0.71287
0.712902
0.712937
0.712973
0.71301
0.71305
0.713091
0.713133
0.713177
0.713223
0.713269
0.713317
0.713366
0.713415
0.713465
0.713515
0.713565
0.713614
0.713663
0.713711
0.713757
0.713802
0.713845
0.713887
0.713926
0.713963
0.713998
0.71403
0.71406
0.714088
0.714114
0.714138
0.714159
0.714179
0.714198
0.714215
0.714232
0.714247
0.714261
0.714275
0.714289
0.714302
0.714315
0.714327
0.71434
0.714352
0.714364
0.714376
0.714388
0.7144
0.714412
0.714424
0.714436
0.714448
0.714459
0.714471
0.714482
0.714494
0.714505
0.714516
0.714526
0.714537
0.714548
0.714558
0.714568
0.714577
0.714587
0.714596
0.714605
0.714613
0.714622
0.71463
0.714637
0.714645
0.714652
0.714658
0.714665
0.71467
0.714676
0.714681
0.714686
0.71469
0.714695
0.714698
0.714702
0.714705
0.714707
0.714709
0.714711
0.714713
0.714714
0.714715
0.714715
0.714715
0.714715
0.714715
0.714714
0.714713
0.714711
0.71471
0.714708
0.714706
0.714703
0.7147
0.714697
0.714694
0.714691
0.714687
0.714683
0.714679
0.714675
0.714671
0.714666
0.714662
0.714657
0.714652
0.714647
0.714642
0.714637
0.714632
0.714626
0.714621
0.714615
0.714609
0.714603
0.714598
0.714592
0.714586
0.71458
0.714573
0.714567
0.714561
0.714554
0.714548
0.714541
0.714534
0.714528
0.714521
0.714514
0.714507
0.7145
0.714493
0.714486
0.714479
0.714471
0.714464
0.714457
0.714449
0.714442
0.714435
0.714427
0.71442
0.714412
0.714405
0.714398
0.71439
0.714383
0.714375
0.714368
0.714361
0.714353
0.714346
0.714339
0.714331
0.714324
0.714317
0.714309
0.714302
0.714295
0.714289
0.712549
0.712525
0.712519
0.712519
0.71252
0.712521
0.712522
0.712524
0.712526
0.712529
0.712533
0.712539
0.712545
0.712553
0.712562
0.712573
0.712585
0.712598
0.712613
0.712629
0.712646
0.712665
0.712686
0.712707
0.712731
0.712755
0.712782
0.71281
0.712839
0.712871
0.712903
0.712938
0.712974
0.713012
0.713051
0.713092
0.713134
0.713178
0.713222
0.713268
0.713315
0.713362
0.71341
0.713458
0.713506
0.713554
0.713601
0.713647
0.713692
0.713735
0.713778
0.713818
0.713856
0.713892
0.713926
0.713958
0.713988
0.714016
0.714042
0.714066
0.714089
0.71411
0.71413
0.714148
0.714166
0.714183
0.714199
0.714215
0.71423
0.714245
0.71426
0.714274
0.714288
0.714302
0.714316
0.71433
0.714343
0.714357
0.71437
0.714383
0.714396
0.714409
0.714422
0.714435
0.714448
0.71446
0.714472
0.714484
0.714496
0.714508
0.71452
0.714531
0.714542
0.714553
0.714563
0.714574
0.714584
0.714593
0.714603
0.714612
0.71462
0.714629
0.714637
0.714645
0.714652
0.714659
0.714666
0.714672
0.714678
0.714683
0.714688
0.714693
0.714697
0.714701
0.714705
0.714708
0.714711
0.714713
0.714716
0.714717
0.714719
0.71472
0.71472
0.714721
0.714721
0.71472
0.71472
0.714719
0.714717
0.714716
0.714714
0.714712
0.714709
0.714707
0.714704
0.714701
0.714697
0.714694
0.71469
0.714686
0.714682
0.714677
0.714673
0.714668
0.714663
0.714658
0.714653
0.714648
0.714642
0.714637
0.714631
0.714625
0.714619
0.714613
0.714607
0.714601
0.714595
0.714589
0.714582
0.714576
0.714569
0.714562
0.714556
0.714549
0.714542
0.714535
0.714528
0.714521
0.714514
0.714506
0.714499
0.714492
0.714484
0.714477
0.714469
0.714462
0.714454
0.714447
0.714439
0.714432
0.714424
0.714417
0.714409
0.714402
0.714394
0.714387
0.71438
0.714372
0.714365
0.714358
0.714351
0.714344
0.714337
0.71433
0.714323
0.714316
0.714309
0.714302
0.714295
0.71429
0.71261
0.712583
0.712567
0.712559
0.712554
0.712551
0.712549
0.712547
0.712547
0.712549
0.712552
0.712556
0.712562
0.71257
0.712579
0.712589
0.712601
0.712615
0.712631
0.712647
0.712666
0.712686
0.712707
0.712731
0.712756
0.712782
0.71281
0.71284
0.712871
0.712904
0.712939
0.712975
0.713013
0.713052
0.713092
0.713134
0.713178
0.713222
0.713267
0.713313
0.713359
0.713405
0.713451
0.713497
0.713543
0.713588
0.713631
0.713674
0.713715
0.713754
0.713792
0.713828
0.713861
0.713893
0.713923
0.713952
0.713978
0.714003
0.714027
0.714049
0.71407
0.71409
0.71411
0.714128
0.714146
0.714163
0.71418
0.714197
0.714213
0.714229
0.714244
0.71426
0.714275
0.71429
0.714304
0.714319
0.714333
0.714347
0.714361
0.714375
0.714389
0.714403
0.714416
0.714429
0.714442
0.714455
0.714468
0.71448
0.714493
0.714505
0.714517
0.714528
0.71454
0.714551
0.714562
0.714572
0.714583
0.714593
0.714602
0.714612
0.714621
0.714629
0.714637
0.714645
0.714653
0.71466
0.714667
0.714674
0.71468
0.714685
0.714691
0.714696
0.7147
0.714704
0.714708
0.714711
0.714714
0.714717
0.714719
0.714721
0.714723
0.714724
0.714725
0.714725
0.714725
0.714725
0.714724
0.714723
0.714722
0.714721
0.714719
0.714717
0.714714
0.714712
0.714709
0.714706
0.714702
0.714699
0.714695
0.714691
0.714686
0.714682
0.714677
0.714673
0.714668
0.714662
0.714657
0.714652
0.714646
0.71464
0.714635
0.714629
0.714623
0.714616
0.71461
0.714604
0.714597
0.714591
0.714584
0.714577
0.71457
0.714564
0.714557
0.714549
0.714542
0.714535
0.714528
0.71452
0.714513
0.714505
0.714498
0.71449
0.714483
0.714475
0.714467
0.71446
0.714452
0.714445
0.714437
0.714429
0.714422
0.714414
0.714407
0.714399
0.714392
0.714385
0.714377
0.71437
0.714363
0.714356
0.714349
0.714342
0.714335
0.714328
0.714322
0.714315
0.714308
0.714302
0.714295
0.714291
0.71267
0.712641
0.71262
0.712606
0.712595
0.712586
0.712579
0.712574
0.712571
0.71257
0.712571
0.712574
0.712579
0.712585
0.712594
0.712604
0.712617
0.712631
0.712647
0.712664
0.712684
0.712705
0.712727
0.712752
0.712778
0.712806
0.712835
0.712866
0.712899
0.712933
0.712969
0.713007
0.713045
0.713086
0.713127
0.713169
0.713213
0.713257
0.713301
0.713346
0.713391
0.713436
0.71348
0.713524
0.713567
0.713609
0.71365
0.713689
0.713726
0.713763
0.713797
0.71383
0.713861
0.71389
0.713918
0.713944
0.713969
0.713993
0.714016
0.714038
0.714059
0.714079
0.714099
0.714118
0.714137
0.714155
0.714172
0.714189
0.714206
0.714223
0.714239
0.714254
0.71427
0.714285
0.7143
0.714315
0.714329
0.714344
0.714358
0.714372
0.714386
0.7144
0.714414
0.714427
0.71444
0.714453
0.714466
0.714479
0.714492
0.714504
0.714516
0.714528
0.714539
0.714551
0.714562
0.714572
0.714583
0.714593
0.714603
0.714612
0.714621
0.71463
0.714638
0.714647
0.714654
0.714662
0.714669
0.714675
0.714681
0.714687
0.714693
0.714698
0.714702
0.714706
0.71471
0.714714
0.714717
0.71472
0.714722
0.714724
0.714726
0.714727
0.714728
0.714728
0.714728
0.714728
0.714728
0.714727
0.714726
0.714724
0.714722
0.71472
0.714718
0.714715
0.714712
0.714709
0.714706
0.714702
0.714698
0.714694
0.71469
0.714685
0.71468
0.714676
0.71467
0.714665
0.71466
0.714654
0.714649
0.714643
0.714637
0.714631
0.714625
0.714618
0.714612
0.714605
0.714599
0.714592
0.714585
0.714578
0.714571
0.714564
0.714557
0.714549
0.714542
0.714535
0.714527
0.71452
0.714512
0.714505
0.714497
0.714489
0.714482
0.714474
0.714466
0.714458
0.714451
0.714443
0.714436
0.714428
0.71442
0.714413
0.714405
0.714398
0.714391
0.714383
0.714376
0.714369
0.714362
0.714355
0.714348
0.714341
0.714335
0.714328
0.714321
0.714315
0.714308
0.714302
0.714296
0.714292
0.712712
0.712682
0.712658
0.712639
0.712623
0.71261
0.712599
0.712591
0.712586
0.712583
0.712582
0.712584
0.712588
0.712594
0.712603
0.712613
0.712626
0.71264
0.712656
0.712675
0.712694
0.712716
0.71274
0.712765
0.712792
0.71282
0.712851
0.712882
0.712916
0.712951
0.712987
0.713025
0.713064
0.713105
0.713146
0.713188
0.713231
0.713275
0.713318
0.713362
0.713406
0.713449
0.713492
0.713534
0.713574
0.713614
0.713653
0.71369
0.713726
0.71376
0.713793
0.713824
0.713854
0.713883
0.71391
0.713937
0.713962
0.713987
0.71401
0.714033
0.714054
0.714075
0.714095
0.714115
0.714134
0.714152
0.71417
0.714187
0.714204
0.71422
0.714237
0.714252
0.714268
0.714284
0.714299
0.714314
0.714328
0.714343
0.714357
0.714372
0.714386
0.7144
0.714413
0.714427
0.71444
0.714453
0.714466
0.714479
0.714492
0.714504
0.714516
0.714528
0.71454
0.714551
0.714562
0.714573
0.714584
0.714594
0.714604
0.714613
0.714622
0.714631
0.71464
0.714648
0.714656
0.714663
0.71467
0.714677
0.714683
0.714689
0.714694
0.714699
0.714704
0.714708
0.714712
0.714716
0.714719
0.714722
0.714724
0.714726
0.714728
0.714729
0.71473
0.71473
0.714731
0.71473
0.71473
0.714729
0.714728
0.714726
0.714725
0.714722
0.71472
0.714717
0.714714
0.714711
0.714708
0.714704
0.7147
0.714696
0.714691
0.714687
0.714682
0.714677
0.714672
0.714667
0.714661
0.714656
0.71465
0.714644
0.714638
0.714632
0.714625
0.714619
0.714612
0.714606
0.714599
0.714592
0.714585
0.714578
0.714571
0.714564
0.714556
0.714549
0.714542
0.714534
0.714527
0.714519
0.714512
0.714504
0.714496
0.714488
0.714481
0.714473
0.714465
0.714458
0.71445
0.714442
0.714435
0.714427
0.71442
0.714412
0.714405
0.714398
0.71439
0.714383
0.714376
0.714369
0.714362
0.714355
0.714348
0.714341
0.714335
0.714328
0.714322
0.714315
0.714309
0.714303
0.714296
0.714293
0.712736
0.712706
0.71268
0.712657
0.712638
0.712622
0.712609
0.712599
0.712592
0.712588
0.712587
0.712588
0.712592
0.712599
0.712607
0.712617
0.71263
0.712645
0.712661
0.712679
0.7127
0.712722
0.712745
0.712771
0.712798
0.712827
0.712857
0.712889
0.712923
0.712958
0.712994
0.713032
0.713071
0.713111
0.713152
0.713194
0.713236
0.713278
0.713321
0.713364
0.713407
0.713449
0.71349
0.713531
0.713571
0.71361
0.713648
0.713685
0.713721
0.713756
0.713789
0.713821
0.713851
0.71388
0.713908
0.713935
0.71396
0.713985
0.714008
0.714031
0.714052
0.714073
0.714094
0.714113
0.714132
0.71415
0.714168
0.714186
0.714203
0.71422
0.714236
0.714252
0.714268
0.714283
0.714298
0.714313
0.714328
0.714343
0.714357
0.714372
0.714386
0.7144
0.714414
0.714427
0.714441
0.714454
0.714467
0.71448
0.714492
0.714505
0.714517
0.714529
0.71454
0.714552
0.714563
0.714574
0.714584
0.714594
0.714604
0.714614
0.714623
0.714632
0.714641
0.714649
0.714656
0.714664
0.714671
0.714678
0.714684
0.71469
0.714695
0.7147
0.714705
0.714709
0.714713
0.714717
0.71472
0.714723
0.714725
0.714727
0.714729
0.71473
0.714731
0.714732
0.714732
0.714732
0.714731
0.71473
0.714729
0.714727
0.714726
0.714723
0.714721
0.714718
0.714715
0.714712
0.714709
0.714705
0.714701
0.714697
0.714692
0.714688
0.714683
0.714678
0.714672
0.714667
0.714662
0.714656
0.71465
0.714644
0.714638
0.714632
0.714625
0.714619
0.714612
0.714606
0.714599
0.714592
0.714585
0.714578
0.714571
0.714563
0.714556
0.714549
0.714541
0.714534
0.714526
0.714519
0.714511
0.714503
0.714496
0.714488
0.71448
0.714473
0.714465
0.714457
0.71445
0.714442
0.714435
0.714427
0.71442
0.714412
0.714405
0.714397
0.71439
0.714383
0.714376
0.714369
0.714362
0.714355
0.714348
0.714342
0.714335
0.714328
0.714322
0.714315
0.714309
0.714303
0.714296
0.714292
0.712742
0.71271
0.712682
0.712657
0.712636
0.712619
0.712605
0.712595
0.712588
0.712583
0.712582
0.712584
0.712588
0.712594
0.712602
0.712613
0.712625
0.71264
0.712657
0.712675
0.712695
0.712717
0.712741
0.712766
0.712793
0.712822
0.712852
0.712884
0.712918
0.712952
0.712989
0.713026
0.713065
0.713104
0.713145
0.713186
0.713229
0.713271
0.713314
0.713357
0.713399
0.713442
0.713484
0.713525
0.713565
0.713605
0.713643
0.71368
0.713716
0.713751
0.713784
0.713816
0.713847
0.713876
0.713904
0.713931
0.713957
0.713982
0.714006
0.714029
0.714051
0.714072
0.714092
0.714112
0.714131
0.71415
0.714168
0.714185
0.714203
0.714219
0.714236
0.714252
0.714268
0.714283
0.714299
0.714314
0.714329
0.714343
0.714358
0.714372
0.714386
0.7144
0.714414
0.714428
0.714441
0.714455
0.714468
0.714481
0.714493
0.714506
0.714518
0.71453
0.714542
0.714553
0.714564
0.714575
0.714586
0.714596
0.714606
0.714615
0.714625
0.714634
0.714642
0.71465
0.714658
0.714666
0.714673
0.714679
0.714686
0.714692
0.714697
0.714702
0.714707
0.714711
0.714715
0.714719
0.714722
0.714725
0.714727
0.714729
0.714731
0.714732
0.714733
0.714733
0.714733
0.714733
0.714732
0.714732
0.71473
0.714729
0.714727
0.714725
0.714722
0.714719
0.714716
0.714713
0.714709
0.714706
0.714701
0.714697
0.714693
0.714688
0.714683
0.714678
0.714673
0.714667
0.714662
0.714656
0.71465
0.714644
0.714638
0.714631
0.714625
0.714619
0.714612
0.714605
0.714598
0.714591
0.714584
0.714577
0.71457
0.714563
0.714556
0.714548
0.714541
0.714533
0.714526
0.714518
0.714511
0.714503
0.714495
0.714488
0.71448
0.714472
0.714465
0.714457
0.71445
0.714442
0.714434
0.714427
0.71442
0.714412
0.714405
0.714398
0.71439
0.714383
0.714376
0.714369
0.714362
0.714355
0.714349
0.714342
0.714335
0.714329
0.714322
0.714316
0.714309
0.714303
0.714296
0.714292
)
;

boundaryField
{
    inlet
    {
        type            zeroGradient;
    }
    outlet
    {
        type            fixedValue;