/*--------------------------------*- C++ -*----------------------------------*\
| =========                 |                                                 |
| \\      /  F ield         | OpenFOAM: The Open Source CFD Toolbox           |
|  \\    /   O peration     | Version:  4.1                                   |
|   \\  /    A nd           | Web:      www.OpenFOAM.org                      |
|    \\/     M anipulation  |                                                 |
\*---------------------------------------------------------------------------*/
FoamFile
{
    version     2.0;
    format      ascii;
    class       volVectorField;
    location    "585";
    object      U;
}
// * * * * * * * * * * * * * * * * * * * * * * * * * * * * * * * * * * * * * //

dimensions      [0 1 -1 0 0 0 0];

internalField   nonuniform List<vector> 
3264
(
(-2.64472e-06 -4.93325e-07 0)
(-0.000133144 3.05525e-05 0)
(-0.000389779 4.86561e-05 0)
(-0.000677097 5.09936e-05 0)
(-0.000979139 5.27192e-05 0)
(-0.00128529 5.21247e-05 0)
(-0.00159023 5.34259e-05 0)
(-0.00189533 5.40709e-05 0)
(-0.00219599 5.51777e-05 0)
(-0.00249296 5.5808e-05 0)
(-0.00278366 5.63727e-05 0)
(-0.00306833 5.66282e-05 0)
(-0.00334591 5.6738e-05 0)
(-0.00361651 5.66656e-05 0)
(-0.00387984 5.64862e-05 0)
(-0.00413604 5.62147e-05 0)
(-0.00438517 5.58926e-05 0)
(-0.0046274 5.55421e-05 0)
(-0.00486294 5.51899e-05 0)
(-0.00509199 5.48554e-05 0)
(-0.00531481 5.45573e-05 0)
(-0.0055316 5.43106e-05 0)
(-0.0057426 5.41281e-05 0)
(-0.00594798 5.40197e-05 0)
(-0.00614791 5.39923e-05 0)
(-0.00634247 5.40487e-05 0)
(-0.00653171 5.41874e-05 0)
(-0.00671557 5.44013e-05 0)
(-0.0068939 5.46773e-05 0)
(-0.00706643 5.4995e-05 0)
(-0.00723275 5.53261e-05 0)
(-0.0073923 5.56337e-05 0)
(-0.00754437 5.58722e-05 0)
(-0.00768804 5.59868e-05 0)
(-0.00782224 5.59148e-05 0)
(-0.0079457 5.55858e-05 0)
(-0.00805695 5.49239e-05 0)
(-0.00815437 5.38493e-05 0)
(-0.00823617 5.22813e-05 0)
(-0.00830042 5.01413e-05 0)
(-0.0083451 4.73557e-05 0)
(-0.00836811 4.38598e-05 0)
(-0.00836732 3.96007e-05 0)
(-0.00834062 3.45406e-05 0)
(-0.00828598 2.86592e-05 0)
(-0.00820147 2.19561e-05 0)
(-0.00808533 1.44518e-05 0)
(-0.00793602 6.18842e-06 0)
(-0.00775225 -2.7703e-06 0)
(-0.00753304 -1.234e-05 0)
(-0.00727774 -2.24172e-05 0)
(-0.00698607 -3.28814e-05 0)
(-0.00665813 -4.35979e-05 0)
(-0.00629443 -5.44208e-05 0)
(-0.00589589 -6.51963e-05 0)
(-0.00546383 -7.57664e-05 0)
(-0.00499998 -8.59726e-05 0)
(-0.00450645 -9.56592e-05 0)
(-0.00398573 -0.000104678 0)
(-0.00344063 -0.000112889 0)
(-0.00287427 -0.000120169 0)
(-0.00229002 -0.000126408 0)
(-0.00169149 -0.000131515 0)
(-0.00108243 -0.000135423 0)
(-0.000466724 -0.000138085 0)
(0.000151693 -0.000139476 0)
(0.000768877 -0.0001396 0)
(0.00138094 -0.000138481 0)
(0.00198409 -0.000136167 0)
(0.00257471 -0.000132728 0)
(0.0031494 -0.000128254 0)
(0.00370498 -0.000122853 0)
(0.0042386 -0.000116644 0)
(0.00474774 -0.000109759 0)
(0.00523022 -0.000102338 0)
(0.00568425 -9.4521e-05 0)
(0.00610843 -8.64492e-05 0)
(0.00650174 -7.82593e-05 0)
(0.00686356 -7.00803e-05 0)
(0.00719363 -6.20307e-05 0)
(0.00749206 -5.42164e-05 0)
(0.00775927 -4.67287e-05 0)
(0.007996 -3.96432e-05 0)
(0.00820323 -3.30195e-05 0)
(0.0083822 -2.69012e-05 0)
(0.0085343 -2.13165e-05 0)
(0.00866109 -1.62795e-05 0)
(0.00876424 -1.17913e-05 0)
(0.00884551 -7.8421e-06 0)
(0.00890666 -4.41272e-06 0)
(0.00894952 -1.47675e-06 0)
(0.00897584 9.97706e-07 0)
(0.00898739 3.04628e-06 0)
(0.00898584 4.70678e-06 0)
(0.00897281 6.01781e-06 0)
(0.00894981 7.01767e-06 0)
(0.00891829 7.74344e-06 0)
(0.00887955 8.23034e-06 0)
(0.00883483 8.51123e-06 0)
(0.00878525 8.61633e-06 0)
(0.00873182 8.57312e-06 0)
(0.00867546 8.40626e-06 0)
(0.00861698 8.13773e-06 0)
(0.0085571 7.7869e-06 0)
(0.00849647 7.37076e-06 0)
(0.00843565 6.9041e-06 0)
(0.00837511 6.39974e-06 0)
(0.00831527 5.8687e-06 0)
(0.00825649 5.32043e-06 0)
(0.00819904 4.76298e-06 0)
(0.00814319 4.20317e-06 0)
(0.00808912 3.64676e-06 0)
(0.008037 3.09854e-06 0)
(0.00798694 2.56248e-06 0)
(0.00793903 2.04182e-06 0)
(0.00789334 1.53918e-06 0)
(0.0078499 1.05661e-06 0)
(0.00780873 5.95662e-07 0)
(0.00776983 1.57479e-07 0)
(0.00773318 -2.57175e-07 0)
(0.00769877 -6.47859e-07 0)
(0.00766654 -1.01441e-06 0)
(0.00763647 -1.35691e-06 0)
(0.00760849 -1.67564e-06 0)
(0.00758256 -1.97107e-06 0)
(0.00755862 -2.2438e-06 0)
(0.00753659 -2.49457e-06 0)
(0.00751643 -2.7242e-06 0)
(0.00749808 -2.9336e-06 0)
(0.00748147 -3.12375e-06 0)
(0.00746654 -3.29567e-06 0)
(0.00745323 -3.45042e-06 0)
(0.00744149 -3.58907e-06 0)
(0.00743128 -3.71272e-06 0)
(0.00742252 -3.82245e-06 0)
(0.00741519 -3.91936e-06 0)
(0.00740924 -4.00451e-06 0)
(0.00740462 -4.07897e-06 0)
(0.0074013 -4.14377e-06 0)
(0.00739925 -4.19993e-06 0)
(0.00739842 -4.24841e-06 0)
(0.00739881 -4.29018e-06 0)
(0.00740037 -4.32614e-06 0)
(0.0074031 -4.35716e-06 0)
(0.00740696 -4.38409e-06 0)
(0.00741195 -4.40771e-06 0)
(0.00741804 -4.42879e-06 0)
(0.00742524 -4.44803e-06 0)
(0.00743352 -4.4661e-06 0)
(0.00744288 -4.48364e-06 0)
(0.00745332 -4.50122e-06 0)
(0.00746482 -4.51938e-06 0)
(0.00747739 -4.53863e-06 0)
(0.00749102 -4.55941e-06 0)
(0.00750571 -4.58213e-06 0)
(0.00752147 -4.60716e-06 0)
(0.00753828 -4.63483e-06 0)
(0.00755615 -4.6654e-06 0)
(0.00757509 -4.69912e-06 0)
(0.00759508 -4.73618e-06 0)
(0.00761614 -4.77672e-06 0)
(0.00763825 -4.82086e-06 0)
(0.00766142 -4.86865e-06 0)
(0.00768564 -4.92011e-06 0)
(0.00771092 -4.97522e-06 0)
(0.00773723 -5.03391e-06 0)
(0.00776458 -5.09607e-06 0)
(0.00779296 -5.16155e-06 0)
(0.00782235 -5.23015e-06 0)
(0.00785274 -5.30163e-06 0)
(0.00788412 -5.37572e-06 0)
(0.00791646 -5.45211e-06 0)
(0.00794974 -5.53043e-06 0)
(0.00798393 -5.6103e-06 0)
(0.00801901 -5.69132e-06 0)
(0.00805494 -5.77302e-06 0)
(0.00809169 -5.85494e-06 0)
(0.00812921 -5.9366e-06 0)
(0.00816747 -6.0175e-06 0)
(0.00820641 -6.09713e-06 0)
(0.00824598 -6.17498e-06 0)
(0.00828612 -6.25055e-06 0)
(0.00832679 -6.32336e-06 0)
(0.00836791 -6.39292e-06 0)
(0.00840943 -6.45884e-06 0)
(0.00845127 -6.52074e-06 0)
(0.00849337 -6.57848e-06 0)
(0.00853566 -6.63187e-06 0)
(0.00857806 -6.68225e-06 0)
(0.00862052 -6.72826e-06 0)
(0.00866295 -6.78283e-06 0)
(0.00870533 -6.82269e-06 0)
(0.00874753 -6.95003e-06 0)
(0.00878989 -6.95423e-06 0)
(0.00883129 -7.47208e-06 0)
(0.00887564 -7.34498e-06 0)
(0.00891294 -9.06835e-06 0)
(0.00897056 -1.01799e-05 0)
(0.00899081 -1.10776e-05 0)
(0.00909358 -3.21085e-05 0)
(-8.33842e-05 0.000136359 0)
(-0.000583117 0.000379248 0)
(-0.00131188 0.000518416 0)
(-0.00208696 0.00056263 0)
(-0.00286732 0.000583757 0)
(-0.00363613 0.000585661 0)
(-0.0043801 0.000585833 0)
(-0.00510216 0.000579413 0)
(-0.00579516 0.000570807 0)
(-0.00646135 0.000559013 0)
(-0.00709808 0.000545833 0)
(-0.00770685 0.000531463 0)
(-0.00828738 0.00051664 0)
(-0.00884087 0.000501612 0)
(-0.00936792 0.000486675 0)
(-0.00986958 0.000471973 0)
(-0.0103466 0.000457624 0)
(-0.0108 0.000443692 0)
(-0.0112303 0.000430212 0)
(-0.0116384 0.000417193 0)
(-0.0120246 0.000404621 0)
(-0.0123896 0.000392461 0)
(-0.0127336 0.000380656 0)
(-0.0130567 0.000369126 0)
(-0.0133589 0.000357764 0)
(-0.0136401 0.00034644 0)
(-0.0138997 0.00033499 0)
(-0.0141372 0.000323225 0)
(-0.0143517 0.000310924 0)
(-0.014542 0.000297836 0)
(-0.014707 0.000283686 0)
(-0.0148448 0.000268173 0)
(-0.0149537 0.000250984 0)
(-0.0150317 0.000231792 0)
(-0.0150763 0.000210272 0)
(-0.0150853 0.000186107 0)
(-0.0150559 0.000159002 0)
(-0.0149854 0.000128693 0)
(-0.0148711 9.49573e-05 0)
(-0.0147103 5.76301e-05 0)
(-0.0145002 1.66078e-05 0)
(-0.0142382 -2.81404e-05 0)
(-0.0139221 -7.65674e-05 0)
(-0.0135496 -0.000128544 0)
(-0.013119 -0.000183856 0)
(-0.0126286 -0.000242208 0)
(-0.0120775 -0.000303224 0)
(-0.011465 -0.000366452 0)
(-0.0107909 -0.000431375 0)
(-0.0100554 -0.000497414 0)
(-0.00925948 -0.000563943 0)
(-0.0084044 -0.000630297 0)
(-0.00749205 -0.000695786 0)
(-0.00652481 -0.000759704 0)
(-0.00550559 -0.000821343 0)
(-0.00443776 -0.000880006 0)
(-0.00332519 -0.000935017 0)
(-0.00217216 -0.000985732 0)
(-0.000983355 -0.00103155 0)
(0.000236183 -0.00107194 0)
(0.0014811 -0.00110641 0)
(0.00274581 -0.00113455 0)
(0.00402448 -0.00115604 0)
(0.00531117 -0.00117064 0)
(0.00659986 -0.0011782 0)
(0.00788448 -0.00117866 0)
(0.00915904 -0.00117206 0)
(0.0104176 -0.00115855 0)
(0.0116546 -0.00113834 0)
(0.0128643 -0.00111176 0)
(0.0140417 -0.00107921 0)
(0.0151819 -0.00104117 0)
(0.0162804 -0.000998186 0)
(0.0173333 -0.000950853 0)
(0.0183369 -0.000899815 0)
(0.0192883 -0.000845742 0)
(0.020185 -0.000789322 0)
(0.021025 -0.000731243 0)
(0.0218067 -0.000672185 0)
(0.0225294 -0.000612801 0)
(0.0231926 -0.000553714 0)
(0.0237965 -0.000495497 0)
(0.0243415 -0.000438673 0)
(0.0248287 -0.000383708 0)
(0.0252595 -0.000330999 0)
(0.0256357 -0.000280883 0)
(0.0259592 -0.000233625 0)
(0.0262325 -0.000189429 0)
(0.0264581 -0.000148432 0)
(0.0266388 -0.000110716 0)
(0.0267772 -7.63058e-05 0)
(0.0268765 -4.51798e-05 0)
(0.0269396 -1.72734e-05 0)
(0.0269695 7.51334e-06 0)
(0.0269691 2.93097e-05 0)
(0.0269414 4.82678e-05 0)
(0.0268893 6.45572e-05 0)
(0.0268153 7.83589e-05 0)
(0.0267223 8.9861e-05 0)
(0.0266126 9.92541e-05 0)
(0.0264886 0.000106728 0)
(0.0263524 0.000112468 0)
(0.0262062 0.000116655 0)
(0.0260518 0.000119459 0)
(0.0258909 0.000121043 0)
(0.0257251 0.000121558 0)
(0.0255557 0.000121145 0)
(0.0253841 0.000119934 0)
(0.0252114 0.000118042 0)
(0.0250386 0.000115578 0)
(0.0248666 0.000112638 0)
(0.0246962 0.00010931 0)
(0.024528 0.00010567 0)
(0.0243625 0.000101787 0)
(0.0242004 9.7722e-05 0)
(0.0240419 9.35265e-05 0)
(0.0238874 8.92463e-05 0)
(0.0237372 8.49204e-05 0)
(0.0235915 8.05821e-05 0)
(0.0234505 7.62594e-05 0)
(0.0233142 7.19757e-05 0)
(0.0231828 6.77499e-05 0)
(0.0230564 6.35974e-05 0)
(0.0229348 5.953e-05 0)
(0.0228182 5.55568e-05 0)
(0.0227066 5.16842e-05 0)
(0.0225999 4.79164e-05 0)
(0.022498 4.42556e-05 0)
(0.0224009 4.07023e-05 0)
(0.0223086 3.72558e-05 0)
(0.022221 3.39139e-05 0)
(0.022138 3.06736e-05 0)
(0.0220596 2.75311e-05 0)
(0.0219857 2.4482e-05 0)
(0.0219163 2.15212e-05 0)
(0.0218512 1.86435e-05 0)
(0.0217905 1.58433e-05 0)
(0.021734 1.31149e-05 0)
(0.0216818 1.04525e-05 0)
(0.0216337 7.85053e-06 0)
(0.0215898 5.30321e-06 0)
(0.02155 2.8051e-06 0)
(0.0215143 3.50897e-07 0)
(0.0214826 -2.06446e-06 0)
(0.0214549 -4.44576e-06 0)
(0.0214312 -6.79751e-06 0)
(0.0214115 -9.12389e-06 0)
(0.0213957 -1.14288e-05 0)
(0.0213838 -1.37157e-05 0)
(0.0213759 -1.59877e-05 0)
(0.0213719 -1.82477e-05 0)
(0.0213718 -2.0498e-05 0)
(0.0213756 -2.27407e-05 0)
(0.0213833 -2.49775e-05 0)
(0.0213949 -2.72095e-05 0)
(0.0214103 -2.94377e-05 0)
(0.0214295 -3.16626e-05 0)
(0.0214526 -3.38842e-05 0)
(0.0214796 -3.61021e-05 0)
(0.0215103 -3.83157e-05 0)
(0.0215448 -4.05237e-05 0)
(0.021583 -4.27246e-05 0)
(0.021625 -4.49163e-05 0)
(0.0216707 -4.70963e-05 0)
(0.02172 -4.92618e-05 0)
(0.0217729 -5.14093e-05 0)
(0.0218294 -5.35351e-05 0)
(0.0218894 -5.5635e-05 0)
(0.0219529 -5.77042e-05 0)
(0.0220197 -5.97377e-05 0)
(0.0220898 -6.17299e-05 0)
(0.0221631 -6.36749e-05 0)
(0.0222396 -6.55664e-05 0)
(0.0223191 -6.73978e-05 0)
(0.0224014 -6.91623e-05 0)
(0.0224866 -7.08527e-05 0)
(0.0225744 -7.24616e-05 0)
(0.0226648 -7.39819e-05 0)
(0.0227575 -7.54059e-05 0)
(0.0228524 -7.67264e-05 0)
(0.0229494 -7.79363e-05 0)
(0.0230482 -7.90287e-05 0)
(0.0231488 -7.9997e-05 0)
(0.0232508 -8.08354e-05 0)
(0.0233541 -8.15386e-05 0)
(0.0234584 -8.21022e-05 0)
(0.0235637 -8.25226e-05 0)
(0.0236695 -8.27984e-05 0)
(0.0237758 -8.2929e-05 0)
(0.0238823 -8.29179e-05 0)
(0.0239888 -8.27797e-05 0)
(0.024095 -8.24963e-05 0)
(0.0242009 -8.22518e-05 0)
(0.024306 -8.15998e-05 0)
(0.0244105 -8.21713e-05 0)
(0.024514 -8.03519e-05 0)
(0.0246154 -8.48055e-05 0)
(0.024723 -8.2906e-05 0)
(0.0248064 -8.67007e-05 0)
(0.0249522 -0.000122795 0)
(-0.000178933 0.000645211 0)
(-0.00104349 0.00125449 0)
(-0.0021688 0.00153366 0)
(-0.00330674 0.0015754 0)
(-0.00439592 0.00157097 0)
(-0.00542573 0.00152819 0)
(-0.00638053 0.00148518 0)
(-0.00727141 0.00143353 0)
(-0.00809501 0.0013811 0)
(-0.00885949 0.00132625 0)
(-0.00956622 0.00127152 0)
(-0.0102204 0.0012171 0)
(-0.0108244 0.00116382 0)
(-0.0113816 0.00111191 0)
(-0.0118944 0.00106156 0)
(-0.012365 0.00101282 0)
(-0.0127952 0.000965651 0)
(-0.0131866 0.000919965 0)
(-0.0135403 0.000875623 0)
(-0.0138574 0.000832452 0)
(-0.0141386 0.000790247 0)
(-0.0143843 0.000748767 0)
(-0.0145947 0.000707743 0)
(-0.0147698 0.000666866 0)
(-0.0149093 0.000625794 0)
(-0.0150127 0.000584148 0)
(-0.0150793 0.00054151 0)
(-0.0151081 0.000497431 0)
(-0.0150979 0.00045143 0)
(-0.0150473 0.000403002 0)
(-0.0149547 0.00035163 0)
(-0.0148184 0.000296789 0)
(-0.0146365 0.000237967 0)
(-0.0144069 0.000174672 0)
(-0.0141276 0.000106453 0)
(-0.0137965 3.29138e-05 0)
(-0.0134115 -4.6273e-05 0)
(-0.0129705 -0.000131347 0)
(-0.0124717 -0.000222451 0)
(-0.0119132 -0.000319615 0)
(-0.0112934 -0.000422752 0)
(-0.0106111 -0.000531646 0)
(-0.00986525 -0.000645958 0)
(-0.00905505 -0.000765216 0)
(-0.00818019 -0.000888828 0)
(-0.00724071 -0.00101608 0)
(-0.00623706 -0.00114615 0)
(-0.00517012 -0.00127812 0)
(-0.00404122 -0.00141098 0)
(-0.00285214 -0.00154367 0)
(-0.00160511 -0.00167503 0)
(-0.000302808 -0.00180392 0)
(0.00105163 -0.00192913 0)
(0.00245465 -0.00204947 0)
(0.00390229 -0.00216376 0)
(0.00539017 -0.00227085 0)
(0.00691357 -0.00236964 0)
(0.00846743 -0.00245908 0)
(0.0100464 -0.00253823 0)
(0.0116449 -0.00260621 0)
(0.013257 -0.00266229 0)
(0.0148768 -0.00270583 0)
(0.0164981 -0.00273634 0)
(0.0181149 -0.00275347 0)
(0.0197209 -0.00275702 0)
(0.0213101 -0.00274695 0)
(0.0228764 -0.00272339 0)
(0.0244141 -0.00268661 0)
(0.0259176 -0.00263705 0)
(0.0273815 -0.0025753 0)
(0.0288009 -0.00250208 0)
(0.0301712 -0.00241824 0)
(0.0314883 -0.00232477 0)
(0.0327485 -0.00222271 0)
(0.0339486 -0.00211321 0)
(0.0350858 -0.00199746 0)
(0.036158 -0.00187669 0)
(0.0371635 -0.00175215 0)
(0.0381011 -0.00162505 0)
(0.0389702 -0.00149661 0)
(0.0397705 -0.00136796 0)
(0.0405023 -0.00124021 0)
(0.0411664 -0.00111435 0)
(0.0417637 -0.000991308 0)
(0.0422958 -0.000871901 0)
(0.0427645 -0.000756847 0)
(0.0431717 -0.000646756 0)
(0.0435198 -0.000542131 0)
(0.0438114 -0.000443367 0)
(0.044049 -0.000350759 0)
(0.0442356 -0.000264505 0)
(0.044374 -0.000184714 0)
(0.0444672 -0.00011141 0)
(0.0445183 -4.45451e-05 0)
(0.0445303 1.59943e-05 0)
(0.0445062 7.03778e-05 0)
(0.0444491 0.000118822 0)
(0.0443618 0.000161584 0)
(0.0442472 0.000198948 0)
(0.044108 0.000231225 0)
(0.043947 0.000258737 0)
(0.0437666 0.00028182 0)
(0.0435693 0.000300812 0)
(0.0433573 0.000316047 0)
(0.0431328 0.000327858 0)
(0.0428978 0.000336567 0)
(0.0426542 0.000342483 0)
(0.0424036 0.000345904 0)
(0.0421477 0.000347108 0)
(0.041888 0.00034636 0)
(0.0416256 0.000343905 0)
(0.0413619 0.00033997 0)
(0.0410979 0.000334764 0)
(0.0408346 0.000328477 0)
(0.0405728 0.000321283 0)
(0.0403133 0.000313337 0)
(0.0400567 0.000304779 0)
(0.0398037 0.000295733 0)
(0.0395547 0.000286309 0)
(0.0393102 0.000276601 0)
(0.0390704 0.000266693 0)
(0.0388359 0.000256657 0)
(0.0386067 0.000246552 0)
(0.0383831 0.00023643 0)
(0.0381652 0.000226334 0)
(0.0379533 0.000216296 0)
(0.0377475 0.000206345 0)
(0.0375477 0.000196501 0)
(0.0373541 0.00018678 0)
(0.0371668 0.000177191 0)
(0.0369857 0.000167743 0)
(0.0368109 0.000158437 0)
(0.0366424 0.000149275 0)
(0.0364803 0.000140252 0)
(0.0363244 0.000131365 0)
(0.0361749 0.000122607 0)
(0.0360317 0.000113973 0)
(0.0358949 0.000105452 0)
(0.0357644 9.70373e-05 0)
(0.0356403 8.8719e-05 0)
(0.0355225 8.04883e-05 0)
(0.0354111 7.23362e-05 0)
(0.0353061 6.42539e-05 0)
(0.0352075 5.62331e-05 0)
(0.0351153 4.82661e-05 0)
(0.0350295 4.03456e-05 0)
(0.0349501 3.24654e-05 0)
(0.0348772 2.46196e-05 0)
(0.0348108 1.68035e-05 0)
(0.0347509 9.01284e-06 0)
(0.0346975 1.24461e-06 0)
(0.0346506 -6.50352e-06 0)
(0.0346103 -1.42329e-05 0)
(0.0345765 -2.19442e-05 0)
(0.0345492 -2.96367e-05 0)
(0.0345285 -3.73093e-05 0)
(0.0345143 -4.49597e-05 0)
(0.0345067 -5.25846e-05 0)
(0.0345055 -6.01801e-05 0)
(0.0345109 -6.7741e-05 0)
(0.0345227 -7.52614e-05 0)
(0.0345409 -8.27343e-05 0)
(0.0345655 -9.01519e-05 0)
(0.0345964 -9.75054e-05 0)
(0.0346336 -0.000104785 0)
(0.034677 -0.00011198 0)
(0.0347265 -0.000119078 0)
(0.034782 -0.000126067 0)
(0.0348434 -0.000132933 0)
(0.0349106 -0.000139662 0)
(0.0349834 -0.000146238 0)
(0.0350619 -0.000152644 0)
(0.0351457 -0.000158863 0)
(0.0352347 -0.000164878 0)
(0.0353288 -0.00017067 0)
(0.0354277 -0.00017622 0)
(0.0355313 -0.000181508 0)
(0.0356394 -0.000186515 0)
(0.0357516 -0.000191221 0)
(0.0358679 -0.000195607 0)
(0.0359879 -0.000199653 0)
(0.0361113 -0.000203341 0)
(0.0362379 -0.000206654 0)
(0.0363675 -0.000209575 0)
(0.0364996 -0.00021209 0)
(0.0366341 -0.000214185 0)
(0.0367705 -0.000215849 0)
(0.0369085 -0.000217075 0)
(0.0370479 -0.000217856 0)
(0.0371883 -0.000218198 0)
(0.0373294 -0.000218093 0)
(0.0374708 -0.000217581 0)
(0.0376121 -0.000216676 0)
(0.0377531 -0.000215358 0)
(0.0378934 -0.000214282 0)
(0.0380322 -0.000211601 0)
(0.0381706 -0.000213512 0)
(0.0383055 -0.000208201 0)
(0.0384334 -0.000213213 0)
(0.0385919 -0.000234195 0)
(-0.000305695 0.00126194 0)
(-0.00151696 0.00231579 0)
(-0.00287132 0.00272428 0)
(-0.00413888 0.00273465 0)
(-0.00523828 0.00266303 0)
(-0.00621869 0.00253425 0)
(-0.00706622 0.00240584 0)
(-0.00781448 0.00227138 0)
(-0.00846495 0.00214185 0)
(-0.0090343 0.00201577 0)
(-0.00952774 0.00189545 0)
(-0.00995416 0.00178048 0)
(-0.0103183 0.00167095 0)
(-0.0106254 0.00156642 0)
(-0.0108789 0.00146648 0)
(-0.0110821 0.00137061 0)
(-0.0112371 0.00127831 0)
(-0.011346 0.00118907 0)
(-0.0114102 0.00110237 0)
(-0.0114307 0.00101771 0)
(-0.0114082 0.000934581 0)
(-0.011343 0.000852447 0)
(-0.0112353 0.000770776 0)
(-0.0110849 0.000689015 0)
(-0.0108915 0.00060659 0)
(-0.0106543 0.000522904 0)
(-0.0103727 0.000437342 0)
(-0.0100457 0.000349273 0)
(-0.00967215 0.000258056 0)
(-0.00925087 0.00016305 0)
(-0.00878057 6.36219e-05 0)
(-0.00825988 -4.08355e-05 0)
(-0.00768741 -0.000150891 0)
(-0.00706179 -0.000267059 0)
(-0.00638166 -0.000389781 0)
(-0.00564577 -0.00051941 0)
(-0.00485295 -0.000656191 0)
(-0.00400219 -0.000800251 0)
(-0.00309266 -0.000951583 0)
(-0.00212373 -0.00111004 0)
(-0.00109504 -0.00127531 0)
(-6.45902e-06 -0.00144694 0)
(0.00114182 -0.00162433 0)
(0.0023493 -0.0018067 0)
(0.00361514 -0.00199314 0)
(0.00493817 -0.0021826 0)
(0.00631683 -0.0023739 0)
(0.00774921 -0.00256574 0)
(0.00923301 -0.00275674 0)
(0.0107656 -0.00294543 0)
(0.0123438 -0.00313028 0)
(0.0139643 -0.00330971 0)
(0.0156233 -0.00348213 0)
(0.0173167 -0.00364596 0)
(0.0190399 -0.00379963 0)
(0.0207882 -0.00394163 0)
(0.0225564 -0.00407049 0)
(0.0243394 -0.00418486 0)
(0.0261314 -0.0042835 0)
(0.0279268 -0.00436528 0)
(0.0297197 -0.00442925 0)
(0.0315041 -0.00447461 0)
(0.033274 -0.00450075 0)
(0.0350233 -0.00450727 0)
(0.0367463 -0.00449397 0)
(0.0384371 -0.00446088 0)
(0.04009 -0.00440825 0)
(0.0416999 -0.00433655 0)
(0.0432617 -0.00424647 0)
(0.0447707 -0.0041389 0)
(0.0462226 -0.00401496 0)
(0.0476138 -0.0038759 0)
(0.0489408 -0.00372316 0)
(0.0502009 -0.0035583 0)
(0.0513919 -0.00338298 0)
(0.0525119 -0.00319892 0)
(0.0535597 -0.00300791 0)
(0.0545347 -0.00281171 0)
(0.0554367 -0.00261209 0)
(0.0562659 -0.00241076 0)
(0.057023 -0.00220935 0)
(0.0577091 -0.0020094 0)
(0.0583257 -0.00181234 0)
(0.0588746 -0.00161945 0)
(0.0593578 -0.0014319 0)
(0.0597776 -0.00125069 0)
(0.0601364 -0.00107669 0)
(0.060437 -0.000910611 0)
(0.0606819 -0.000753018 0)
(0.0608742 -0.000604345 0)
(0.0610165 -0.000464892 0)
(0.0611119 -0.000334838 0)
(0.0611633 -0.000214253 0)
(0.0611734 -0.000103104 0)
(0.0611453 -1.2748e-06 0)
(0.0610816 9.14305e-05 0)
(0.0609852 0.000175272 0)
(0.0608586 0.000250562 0)
(0.0607044 0.000317661 0)
(0.0605252 0.00037696 0)
(0.0603233 0.000428877 0)
(0.060101 0.000473848 0)
(0.0598604 0.000512319 0)
(0.0596037 0.000544742 0)
(0.0593328 0.000571565 0)
(0.0590495 0.000593232 0)
(0.0587556 0.000610177 0)
(0.0584526 0.000622819 0)
(0.0581423 0.000631563 0)
(0.0578258 0.000636795 0)
(0.0575047 0.000638879 0)
(0.0571799 0.000638162 0)
(0.0568528 0.000634964 0)
(0.0565242 0.000629587 0)
(0.0561952 0.000622308 0)
(0.0558665 0.000613383 0)
(0.055539 0.000603044 0)
(0.0552133 0.000591502 0)
(0.0548901 0.00057895 0)
(0.0545698 0.000565558 0)
(0.054253 0.000551478 0)
(0.0539401 0.000536844 0)
(0.0536316 0.000521774 0)
(0.0533277 0.00050637 0)
(0.0530287 0.000490719 0)
(0.052735 0.000474896 0)
(0.0524467 0.000458961 0)
(0.052164 0.000442966 0)
(0.0518872 0.000426953 0)
(0.0516164 0.000410953 0)
(0.0513517 0.000394991 0)
(0.0510932 0.000379084 0)
(0.0508412 0.000363243 0)
(0.0505956 0.000347477 0)
(0.0503566 0.000331786 0)
(0.0501243 0.00031617 0)
(0.0498987 0.000300625 0)
(0.04968 0.000285145 0)
(0.0494683 0.000269723 0)
(0.0492636 0.000254349 0)
(0.049066 0.000239016 0)
(0.0488757 0.000223713 0)
(0.0486926 0.000208432 0)
(0.0485169 0.000193164 0)
(0.0483487 0.0001779 0)
(0.0481881 0.000162635 0)
(0.0480351 0.000147362 0)
(0.0478899 0.000132077 0)
(0.0477525 0.000116777 0)
(0.047623 0.00010146 0)
(0.0475014 8.61257e-05 0)
(0.0473879 7.07759e-05 0)
(0.0472826 5.54135e-05 0)
(0.0471854 4.00431e-05 0)
(0.0470964 2.46708e-05 0)
(0.0470157 9.30434e-06 0)
(0.0469433 -6.04704e-06 0)
(0.0468793 -2.13726e-05 0)
(0.0468236 -3.666e-05 0)
(0.0467763 -5.18955e-05 0)
(0.0467374 -6.70639e-05 0)
(0.0467068 -8.21486e-05 0)
(0.0466845 -9.71314e-05 0)
(0.0466705 -0.000111993 0)
(0.0466648 -0.000126712 0)
(0.0466672 -0.000141267 0)
(0.0466777 -0.000155633 0)
(0.0466962 -0.000169786 0)
(0.0467225 -0.0001837 0)
(0.0467566 -0.000197347 0)
(0.0467983 -0.000210698 0)
(0.0468474 -0.000223723 0)
(0.0469038 -0.000236391 0)
(0.0469674 -0.000248671 0)
(0.0470378 -0.00026053 0)
(0.0471148 -0.000271934 0)
(0.0471983 -0.00028285 0)
(0.047288 -0.000293244 0)
(0.0473836 -0.000303083 0)
(0.0474849 -0.000312332 0)
(0.0475915 -0.00032096 0)
(0.0477031 -0.000328934 0)
(0.0478195 -0.000336225 0)
(0.0479403 -0.000342804 0)
(0.0480651 -0.000348646 0)
(0.0481936 -0.000353727 0)
(0.0483255 -0.000358028 0)
(0.0484603 -0.000361531 0)
(0.0485977 -0.000364226 0)
(0.0487373 -0.000366101 0)
(0.0488787 -0.000367162 0)
(0.0490216 -0.000367402 0)
(0.0491654 -0.000366858 0)
(0.0493099 -0.000365525 0)
(0.0494543 -0.000363584 0)
(0.0495984 -0.000360627 0)
(0.0497416 -0.000358909 0)
(0.0498815 -0.00035232 0)
(0.0500193 -0.000355416 0)
(0.0501693 -0.000355353 0)
(-0.000405124 0.00246986 0)
(-0.00171929 0.00379684 0)
(-0.00298751 0.0041419 0)
(-0.0040504 0.00389079 0)
(-0.00482708 0.0036179 0)
(-0.00542841 0.00331565 0)
(-0.00585125 0.00305199 0)
(-0.0061551 0.00280578 0)
(-0.00634913 0.00258211 0)
(-0.00645938 0.00237468 0)
(-0.00649424 0.00218231 0)
(-0.00646552 0.00200251 0)
(-0.0063789 0.00183361 0)
(-0.00624025 0.00167401 0)
(-0.00605311 0.00152233 0)
(-0.00582057 0.00137732 0)
(-0.0055447 0.00123786 0)
(-0.00522712 0.00110295 0)
(-0.00486889 0.000971647 0)
(-0.0044707 0.00084309 0)
(-0.00403292 0.000716449 0)
(-0.00355561 0.00059093 0)
(-0.0030386 0.000465758 0)
(-0.00248153 0.000340172 0)
(-0.00188385 0.000213415 0)
(-0.00124485 8.47377e-05 0)
(-0.000563715 -4.66055e-05 0)
(0.00016045 -0.00018135 0)
(0.00092862 -0.000320217 0)
(0.0017418 -0.000463901 0)
(0.00260101 -0.000613062 0)
(0.00350724 -0.000768309 0)
(0.00446143 -0.000930186 0)
(0.00546447 -0.00109916 0)
(0.00651711 -0.00127559 0)
(0.00761998 -0.00145973 0)
(0.00877358 -0.00165171 0)
(0.00997819 -0.00185149 0)
(0.0112339 -0.00205891 0)
(0.0125406 -0.00227363 0)
(0.0138979 -0.00249512 0)
(0.0153051 -0.00272271 0)
(0.0167613 -0.00295554 0)
(0.0182654 -0.00319258 0)
(0.0198157 -0.00343263 0)
(0.0214104 -0.00367435 0)
(0.0230474 -0.00391627 0)
(0.0247241 -0.00415675 0)
(0.0264378 -0.0043941 0)
(0.0281852 -0.0046265 0)
(0.0299628 -0.00485207 0)
(0.0317668 -0.00506891 0)
(0.0335931 -0.00527507 0)
(0.0354372 -0.00546861 0)
(0.0372943 -0.00564765 0)
(0.0391594 -0.00581033 0)
(0.0410273 -0.0059549 0)
(0.0428925 -0.00607973 0)
(0.0447494 -0.00618331 0)
(0.0465922 -0.00626431 0)
(0.0484152 -0.00632161 0)
(0.0502124 -0.00635429 0)
(0.0519781 -0.00636168 0)
(0.0537066 -0.00634336 0)
(0.0553924 -0.00629921 0)
(0.0570303 -0.00622938 0)
(0.0586152 -0.00613429 0)
(0.0601425 -0.00601469 0)
(0.0616081 -0.00587158 0)
(0.0630083 -0.00570626 0)
(0.0643397 -0.00552025 0)
(0.0655998 -0.00531531 0)
(0.0667865 -0.0050934 0)
(0.0678981 -0.00485662 0)
(0.0689338 -0.00460721 0)
(0.0698931 -0.00434745 0)
(0.0707762 -0.00407971 0)
(0.0715837 -0.00380629 0)
(0.0723167 -0.00352949 0)
(0.0729766 -0.00325152 0)
(0.0735654 -0.00297447 0)
(0.0740853 -0.00270028 0)
(0.0745386 -0.00243075 0)
(0.0749281 -0.00216749 0)
(0.0752566 -0.00191192 0)
(0.075527 -0.00166528 0)
(0.0757422 -0.00142859 0)
(0.0759055 -0.00120271 0)
(0.0760198 -0.000988298 0)
(0.076088 -0.000785841 0)
(0.0761134 -0.000595666 0)
(0.0760986 -0.000417949 0)
(0.0760466 -0.000252733 0)
(0.0759602 -9.9942e-05 0)
(0.0758418 4.06054e-05 0)
(0.0756942 0.00016918 0)
(0.0755197 0.00028613 0)
(0.0753206 0.000391863 0)
(0.0750991 0.000486841 0)
(0.0748572 0.000571561 0)
(0.0745971 0.00064655 0)
(0.0743205 0.000712357 0)
(0.0740292 0.000769539 0)
(0.0737248 0.000818659 0)
(0.0734089 0.000860277 0)
(0.073083 0.000894945 0)
(0.0727484 0.000923206 0)
(0.0724064 0.000945585 0)
(0.0720581 0.000962588 0)
(0.0717047 0.0009747 0)
(0.0713473 0.000982386 0)
(0.0709866 0.000986081 0)
(0.0706237 0.0009862 0)
(0.0702593 0.000983127 0)
(0.0698942 0.000977224 0)
(0.0695291 0.000968822 0)
(0.0691645 0.00095823 0)
(0.068801 0.000945729 0)
(0.0684392 0.000931575 0)
(0.0680796 0.000916 0)
(0.0677225 0.000899213 0)
(0.0673683 0.0008814 0)
(0.0670175 0.000862728 0)
(0.0666702 0.000843341 0)
(0.0663268 0.000823367 0)
(0.0659876 0.000802915 0)
(0.0656527 0.000782078 0)
(0.0653225 0.000760935 0)
(0.064997 0.000739551 0)
(0.0646765 0.000717978 0)
(0.0643611 0.000696259 0)
(0.064051 0.000674426 0)
(0.0637464 0.000652503 0)
(0.0634473 0.000630505 0)
(0.063154 0.000608442 0)
(0.0628665 0.000586319 0)
(0.062585 0.000564136 0)
(0.0623096 0.00054189 0)
(0.0620405 0.000519574 0)
(0.0617778 0.000497181 0)
(0.0615216 0.000474703 0)
(0.0612721 0.000452128 0)
(0.0610294 0.000429449 0)
(0.0607936 0.000406656 0)
(0.0605649 0.000383741 0)
(0.0603434 0.000360698 0)
(0.0601294 0.000337523 0)
(0.0599228 0.000314212 0)
(0.0597239 0.000290764 0)
(0.0595328 0.000267182 0)
(0.0593496 0.000243469 0)
(0.0591746 0.000219632 0)
(0.0590077 0.00019568 0)
(0.0588491 0.000171624 0)
(0.058699 0.00014748 0)
(0.0585574 0.000123262 0)
(0.0584245 9.89917e-05 0)
(0.0583003 7.46893e-05 0)
(0.0581849 5.0379e-05 0)
(0.0580784 2.6087e-05 0)
(0.0579808 1.84169e-06 0)
(0.0578921 -2.23264e-05 0)
(0.0578125 -4.63848e-05 0)
(0.0577418 -7.02991e-05 0)
(0.0576801 -9.40327e-05 0)
(0.0576273 -0.000117548 0)
(0.0575834 -0.000140804 0)
(0.0575484 -0.00016376 0)
(0.0575221 -0.000186373 0)
(0.0575045 -0.000208598 0)
(0.0574954 -0.000230389 0)
(0.0574948 -0.0002517 0)
(0.0575024 -0.000272481 0)
(0.0575181 -0.000292684 0)
(0.0575417 -0.00031226 0)
(0.0575729 -0.000331158 0)
(0.0576117 -0.000349327 0)
(0.0576577 -0.000366718 0)
(0.0577106 -0.000383281 0)
(0.0577703 -0.000398967 0)
(0.0578363 -0.000413728 0)
(0.0579085 -0.000427518 0)
(0.0579865 -0.000440295 0)
(0.0580699 -0.000452016 0)
(0.0581584 -0.000462645 0)
(0.0582518 -0.000472148 0)
(0.0583495 -0.000480495 0)
(0.0584513 -0.000487661 0)
(0.0585567 -0.000493626 0)
(0.0586655 -0.000498375 0)
(0.0587772 -0.000501896 0)
(0.0588913 -0.00050418 0)
(0.0590076 -0.000505238 0)
(0.0591256 -0.000505021 0)
(0.0592448 -0.000503629 0)
(0.0593646 -0.000500828 0)
(0.0594844 -0.000497242 0)
(0.059603 -0.000490095 0)
(0.059721 -0.000489178 0)
(0.0598424 -0.000470079 0)
(-0.000693717 0.00309435 0)
(-0.00209194 0.00472278 0)
(-0.00255465 0.00495192 0)
(-0.00279241 0.00450489 0)
(-0.00262694 0.00403247 0)
(-0.00237744 0.00356572 0)
(-0.00198196 0.00316162 0)
(-0.00152484 0.00280342 0)
(-0.000997173 0.00248666 0)
(-0.000424357 0.00220272 0)
(0.000191866 0.001945 0)
(0.000842404 0.00170866 0)
(0.00152491 0.00148938 0)
(0.00223575 0.00128409 0)
(0.00297354 0.00109006 0)
(0.00373686 0.000905188 0)
(0.00452518 0.000727616 0)
(0.00533817 0.00055581 0)
(0.0061759 0.000388394 0)
(0.00703864 0.000224153 0)
(0.00792689 6.19766e-05 0)
(0.00884129 -9.91626e-05 0)
(0.00978261 -0.00026023 0)
(0.0107517 -0.000422143 0)
(0.0117496 -0.000585779 0)
(0.0127773 -0.000751983 0)
(0.0138358 -0.000921566 0)
(0.0149262 -0.0010953 0)
(0.0160495 -0.00127394 0)
(0.0172068 -0.00145815 0)
(0.018399 -0.00164858 0)
(0.019627 -0.00184578 0)
(0.0208915 -0.00205022 0)
(0.0221932 -0.0022623 0)
(0.0235327 -0.00248226 0)
(0.0249101 -0.00271023 0)
(0.0263258 -0.00294621 0)
(0.0277795 -0.00319002 0)
(0.029271 -0.00344132 0)
(0.0307999 -0.00369959 0)
(0.0323652 -0.00396413 0)
(0.0339659 -0.00423405 0)
(0.0356007 -0.00450828 0)
(0.037268 -0.00478554 0)
(0.0389658 -0.00506441 0)
(0.0406919 -0.00534328 0)
(0.0424437 -0.0056204 0)
(0.0442183 -0.00589385 0)
(0.0460125 -0.00616164 0)
(0.0478229 -0.00642163 0)
(0.0496455 -0.00667164 0)
(0.0514762 -0.00690943 0)
(0.0533106 -0.00713274 0)
(0.0551439 -0.00733931 0)
(0.0569713 -0.00752693 0)
(0.0587874 -0.00769346 0)
(0.060587 -0.00783687 0)
(0.0623646 -0.00795527 0)
(0.0641144 -0.00804696 0)
(0.065831 -0.00811044 0)
(0.0675087 -0.00814447 0)
(0.069142 -0.00814808 0)
(0.0707256 -0.00812061 0)
(0.0722544 -0.00806175 0)
(0.0737237 -0.00797151 0)
(0.0751292 -0.00785028 0)
(0.076467 -0.0076988 0)
(0.0777336 -0.0075182 0)
(0.0789265 -0.00730992 0)
(0.0800434 -0.00707576 0)
(0.0810827 -0.00681782 0)
(0.0820437 -0.00653842 0)
(0.0829261 -0.00624015 0)
(0.0837303 -0.00592572 0)
(0.0844574 -0.00559798 0)
(0.0851087 -0.00525983 0)
(0.0856864 -0.00491417 0)
(0.0861928 -0.00456387 0)
(0.0866307 -0.00421167 0)
(0.0870032 -0.00386021 0)
(0.0873135 -0.00351193 0)
(0.0875651 -0.00316909 0)
(0.0877613 -0.00283372 0)
(0.0879057 -0.00250761 0)
(0.0880017 -0.00219231 0)
(0.0880528 -0.00188912 0)
(0.0880621 -0.00159914 0)
(0.088033 -0.00132318 0)
(0.0879684 -0.00106188 0)
(0.0878713 -0.000815674 0)
(0.0877442 -0.000584792 0)
(0.0875898 -0.000369315 0)