/*--------------------------------*- C++ -*----------------------------------*\
| =========                 |                                                 |
| \\      /  F ield         | OpenFOAM: The Open Source CFD Toolbox           |
|  \\    /   O peration     | Version:  4.1                                   |
|   \\  /    A nd           | Web:      www.OpenFOAM.org                      |
|    \\/     M anipulation  |                                                 |
\*---------------------------------------------------------------------------*/
FoamFile
{
    version     2.0;
    format      ascii;
    class       volScalarField;
    location    "810";
    object      p;
}
// * * * * * * * * * * * * * * * * * * * * * * * * * * * * * * * * * * * * * //

dimensions      [1 -1 -2 0 0 0 0];

internalField   nonuniform List<scalar> 
1275
(
0.713457
0.713469
0.713482
0.713495
0.713508
0.713522
0.713535
0.713548
0.713562
0.713575
0.713587
0.7136
0.713612
0.713624
0.713635
0.713646
0.713656
0.713666
0.713676
0.713685
0.713694
0.713702
0.71371
0.713717
0.713725
0.713731
0.713738
0.713744
0.71375
0.713756
0.713761
0.713766
0.713772
0.713776
0.713781
0.713786
0.71379
0.713795
0.713799
0.713803
0.713807
0.713811
0.713815
0.713819
0.713824
0.713828
0.713832
0.713836
0.71384
0.713844
0.713848
0.713853
0.713857
0.713861
0.713866
0.71387
0.713875
0.71388
0.713885
0.71389
0.713895
0.7139
0.713906
0.713911
0.713917
0.713923
0.713929
0.713935
0.713942
0.713948
0.713955
0.713962
0.713969
0.713976
0.713984
0.713991
0.713999
0.714007
0.714016
0.714024
0.714033
0.714042
0.714051
0.71406
0.714069
0.714079
0.714089
0.714099
0.714109
0.714119
0.714129
0.71414
0.71415
0.714161
0.714171
0.714182
0.714193
0.714203
0.714213
0.714224
0.714234
0.714243
0.714253
0.714262
0.714271
0.714279
0.714287
0.714295
0.714301
0.714308
0.714313
0.714319
0.714323
0.714327
0.71433
0.714332
0.714333
0.714334
0.714334
0.714334
0.71433
0.71433
0.714323
0.714323
0.714312
0.714313
0.714297
0.714299
0.713462
0.713474
0.713487
0.7135
0.713513
0.713526
0.713539
0.713552
0.713565
0.713578
0.71359
0.713602
0.713614
0.713626
0.713637
0.713648
0.713659
0.713669
0.713678
0.713687
0.713696
0.713704
0.713712
0.713719
0.713726
0.713733
0.713739
0.713745
0.713751
0.713756
0.713762
0.713767
0.713772
0.713777
0.713782
0.713786
0.713791
0.713795
0.713799
0.713803
0.713808
0.713812
0.713816
0.71382
0.713824
0.713828
0.713832
0.713836
0.71384
0.713844
0.713848
0.713853
0.713857
0.713861
0.713866
0.713871
0.713875
0.71388
0.713885
0.71389
0.713895
0.7139
0.713906
0.713911
0.713917
0.713923
0.713929
0.713935
0.713941
0.713948
0.713955
0.713962
0.713969
0.713976
0.713983
0.713991
0.713999
0.714007
0.714015
0.714023
0.714032
0.714041
0.71405
0.714059
0.714068
0.714078
0.714088
0.714098
0.714108
0.714118
0.714128
0.714138
0.714149
0.714159
0.71417
0.714181
0.714191
0.714201
0.714212
0.714222
0.714232
0.714242
0.714251
0.71426
0.714269
0.714277
0.714285
0.714293
0.714299
0.714306
0.714311
0.714317
0.714321
0.714325
0.714328
0.71433
0.714331
0.714332
0.714332
0.714332
0.714329
0.714328
0.714322
0.714321
0.714311
0.714311
0.714296
0.714299
0.713458
0.71347
0.713484
0.713497
0.713511
0.713524
0.713538
0.713552
0.713565
0.713578
0.713591
0.713603
0.713616
0.713627
0.713638
0.713649
0.713659
0.713669
0.713678
0.713687
0.713696
0.713704
0.713712
0.713719
0.713726
0.713733
0.71374
0.713746
0.713752
0.713757
0.713762
0.713768
0.713772
0.713777
0.713782
0.713786
0.713791
0.713795
0.713799
0.713803
0.713808
0.713812
0.713816
0.71382
0.713824
0.713828
0.713832
0.713836
0.71384
0.713844
0.713848
0.713853
0.713857
0.713861
0.713866
0.71387
0.713875
0.71388
0.713885
0.71389
0.713895
0.7139
0.713906
0.713911
0.713917
0.713923
0.713929
0.713935
0.713941
0.713948
0.713954
0.713961
0.713968
0.713976
0.713983
0.713991
0.713998
0.714006
0.714015
0.714023
0.714032
0.71404
0.714049
0.714059
0.714068
0.714078
0.714087
0.714097
0.714107
0.714117
0.714128
0.714138
0.714148
0.714159
0.71417
0.71418
0.71419
0.714201
0.714211
0.714221
0.714231
0.714241
0.71425
0.71426
0.714268
0.714277
0.714285
0.714292
0.714299
0.714305
0.714311
0.714316
0.71432
0.714324
0.714327
0.714329
0.714331
0.714332
0.714331
0.714331
0.714328
0.714327
0.714321
0.714321
0.714311
0.714311
0.714296
0.7143
0.713451
0.713464
0.713477
0.713491
0.713505
0.713519
0.713533
0.713547
0.713561
0.713575
0.713588
0.713601
0.713614
0.713626
0.713638
0.713649
0.71366
0.713671
0.71368
0.71369
0.713698
0.713706
0.713714
0.713721
0.713728
0.713735
0.713741
0.713747
0.713752
0.713758
0.713763
0.713768
0.713773
0.713778
0.713783
0.713787
0.713791
0.713796
0.7138
0.713804
0.713808
0.713812
0.713816
0.71382
0.713824
0.713828
0.713832
0.713836
0.71384
0.713844
0.713848
0.713853
0.713857
0.713861
0.713866
0.71387
0.713875
0.71388
0.713885
0.71389
0.713895
0.7139
0.713905
0.713911
0.713917
0.713922
0.713928
0.713934
0.713941
0.713947
0.713954
0.713961
0.713968
0.713975
0.713982
0.71399
0.713998
0.714006
0.714014
0.714022
0.714031
0.71404
0.714049
0.714058
0.714067
0.714077
0.714086
0.714096
0.714106
0.714116
0.714126
0.714137
0.714147
0.714157
0.714168
0.714178
0.714189
0.714199
0.714209
0.714219
0.714229
0.714239
0.714248
0.714257
0.714266
0.714274
0.714282
0.714289
0.714296
0.714302
0.714308
0.714313
0.714317
0.714321
0.714324
0.714326
0.714328
0.714329
0.714328
0.714328
0.714326
0.714325
0.714319
0.714318
0.714309
0.71431
0.714296
0.714299
0.713432
0.713446
0.71346
0.713474
0.713489
0.713503
0.713518
0.713533
0.713548
0.713563
0.713577
0.713592
0.713605
0.713619
0.713631
0.713644
0.713656
0.713667
0.713677
0.713687
0.713697
0.713706
0.713714
0.713722
0.713729
0.713736
0.713743
0.713749
0.713754
0.71376
0.713765
0.71377
0.713774
0.713779
0.713783
0.713788
0.713792
0.713796
0.7138
0.713804
0.713809
0.713812
0.713816
0.71382
0.713824
0.713828
0.713832
0.713836
0.71384
0.713844
0.713848
0.713853
0.713857
0.713861
0.713866
0.71387
0.713875
0.71388
0.713885
0.71389
0.713895
0.7139
0.713905
0.713911
0.713916
0.713922
0.713928
0.713934
0.713941
0.713947
0.713954
0.713961
0.713968
0.713975
0.713982
0.71399
0.713998
0.714006
0.714014
0.714022
0.714031
0.714039
0.714048
0.714057
0.714067
0.714076
0.714086
0.714096
0.714106
0.714116
0.714126
0.714136
0.714146
0.714157
0.714167
0.714178
0.714188
0.714198
0.714208
0.714218
0.714228
0.714238
0.714247
0.714256
0.714264
0.714272
0.71428
0.714287
0.714294
0.7143
0.714306
0.71431
0.714315
0.714318
0.714321
0.714324
0.714325
0.714326
0.714325
0.714325
0.714323
0.714322
0.714317
0.714316
0.714308
0.714308
0.714295
0.714298
0.713407
0.713421
0.713435
0.71345
0.713465
0.71348
0.713496
0.713512
0.713527
0.713543
0.713559
0.713574
0.71359
0.713604
0.713619
0.713633
0.713647
0.713659
0.713672
0.713683
0.713694
0.713704
0.713714
0.713722
0.71373
0.713738
0.713745
0.713751
0.713757
0.713763
0.713768
0.713773
0.713778
0.713783
0.713787
0.713791
0.713795
0.713799
0.713803
0.713807
0.713811
0.713814
0.713818
0.713822
0.713826
0.71383
0.713833
0.713837
0.713841
0.713845
0.713849
0.713854
0.713858
0.713862
0.713867
0.713871
0.713876
0.71388
0.713885
0.71389
0.713895
0.7139
0.713906
0.713911
0.713917
0.713923
0.713929
0.713935
0.713941
0.713947
0.713954
0.713961
0.713968
0.713975
0.713982
0.71399
0.713998
0.714006
0.714014
0.714022
0.714031
0.714039
0.714048
0.714057
0.714067
0.714076
0.714086
0.714095
0.714105
0.714115
0.714125
0.714135
0.714146
0.714156
0.714166
0.714176
0.714186
0.714197
0.714206
0.714216
0.714226
0.714235
0.714244
0.714253
0.714261
0.714269
0.714276
0.714283
0.71429
0.714296
0.714301
0.714306
0.71431
0.714313
0.714316
0.714318
0.71432
0.714321
0.71432
0.71432
0.714318
0.714317
0.714313
0.714312
0.714305
0.714305
0.714294
0.714296
0.713372
0.713385
0.7134
0.713415
0.71343
0.713446
0.713463
0.713479
0.713496
0.713513
0.71353
0.713548
0.713565
0.713581
0.713598
0.713614
0.71363
0.713645
0.713659
0.713673
0.713687
0.713699
0.713711
0.713721
0.713731
0.71374
0.713749
0.713756
0.713763
0.71377
0.713775
0.713781
0.713785
0.71379
0.713794
0.713798
0.713802
0.713806
0.713809
0.713813
0.713816
0.71382
0.713823
0.713827
0.71383
0.713834
0.713837
0.713841
0.713845
0.713848
0.713852
0.713856
0.71386
0.713865
0.713869
0.713873
0.713878
0.713882
0.713887
0.713892
0.713897
0.713902
0.713907
0.713913
0.713918
0.713924
0.71393
0.713936
0.713942
0.713949
0.713956
0.713962
0.713969
0.713976
0.713984
0.713991
0.713999
0.714007
0.714015
0.714023
0.714032
0.714041
0.71405
0.714059
0.714068
0.714077
0.714087
0.714096
0.714106
0.714116
0.714126
0.714136
0.714146
0.714156
0.714166
0.714176
0.714186
0.714196
0.714205
0.714215
0.714224
0.714233
0.714242
0.71425
0.714258
0.714265
0.714272
0.714279
0.714285
0.714291
0.714296
0.7143
0.714304
0.714307
0.71431
0.714312
0.714313
0.714315
0.714314
0.714314
0.714313
0.714312
0.714309
0.714307
0.714302
0.714301
0.714293
0.714294
0.713333
0.713346
0.713361
0.713376
0.713391
0.713407
0.713424
0.713441
0.713459
0.713477
0.713496
0.713514
0.713533
0.713552
0.713571
0.713589
0.713608
0.713626
0.713644
0.713661
0.713677
0.713692
0.713707
0.71372
0.713733
0.713745
0.713755
0.713765
0.713774
0.713781
0.713788
0.713795
0.7138
0.713805
0.71381
0.713813
0.713817
0.71382
0.713824
0.713827
0.713829
0.713832
0.713835
0.713838
0.713841
0.713844
0.713847
0.71385
0.713853
0.713857
0.71386
0.713864
0.713867
0.713871
0.713875
0.713879
0.713883
0.713888
0.713892
0.713897
0.713902
0.713907
0.713912
0.713917
0.713923
0.713928
0.713934
0.71394
0.713946
0.713953
0.713959
0.713966
0.713973
0.71398
0.713987
0.713995
0.714002
0.71401
0.714018
0.714026
0.714035
0.714043
0.714052
0.714061
0.71407
0.71408
0.714089
0.714098
0.714108
0.714118
0.714127
0.714137
0.714147
0.714157
0.714166
0.714176
0.714185
0.714195
0.714204
0.714213
0.714222
0.71423
0.714238
0.714246
0.714253
0.714261
0.714267
0.714273
0.714279
0.714284
0.714289
0.714293
0.714297
0.7143
0.714302
0.714304
0.714306
0.714307
0.714307
0.714307
0.714306
0.714305
0.714303
0.714302
0.714298
0.714297
0.714291
0.71429
0.713292
0.713305
0.713319
0.713333
0.713349
0.713365
0.713382
0.713399
0.713417
0.713436
0.713456
0.713476
0.713496
0.713517
0.713538
0.713559
0.713581
0.713602
0.713623
0.713643
0.713663
0.713682
0.713701
0.713718
0.713735
0.71375
0.713764
0.713777
0.713788
0.713799
0.713808
0.713816
0.713823
0.713829
0.713834
0.713839
0.713842
0.713846
0.713849
0.713851
0.713854
0.713856
0.713858
0.71386
0.713862
0.713864
0.713866
0.713868
0.713871
0.713873
0.713876
0.713878
0.713881
0.713884
0.713888
0.713891
0.713895
0.713899
0.713903
0.713907
0.713911
0.713916
0.713921
0.713926
0.713931
0.713936
0.713942
0.713948
0.713954
0.71396
0.713966
0.713973
0.71398
0.713986
0.713994
0.714001
0.714009
0.714016
0.714024
0.714032
0.714041
0.714049
0.714058
0.714067
0.714075
0.714084
0.714094
0.714103
0.714112
0.714121
0.714131
0.71414
0.714149
0.714159
0.714168
0.714177
0.714186
0.714195
0.714203
0.714212
0.71422
0.714228
0.714235
0.714242
0.714249
0.714256
0.714262
0.714267
0.714273
0.714277
0.714281
0.714285
0.714289
0.714291
0.714294
0.714296
0.714297
0.714298
0.714299
0.714299
0.714299
0.714298
0.714297
0.714295
0.714294
0.714292
0.714289
0.714287
0.713258
0.71327
0.713283
0.713297
0.713312
0.713327
0.713343
0.713361
0.713379
0.713398
0.713418
0.713439
0.71346
0.713482
0.713505
0.713529
0.713553
0.713577
0.713601
0.713625
0.713649
0.713673
0.713695
0.713717
0.713738
0.713757
0.713776
0.713793
0.713808
0.713822
0.713834
0.713845
0.713854
0.713862
0.713869
0.713875
0.713879
0.713883
0.713886
0.713889
0.71389
0.713892
0.713893
0.713894
0.713895
0.713896
0.713897
0.713898
0.713899
0.7139
0.713902
0.713903
0.713905
0.713907
0.713909
0.713912
0.713914
0.713917
0.71392
0.713924
0.713928
0.713931
0.713936
0.71394
0.713945
0.713949
0.713955
0.71396
0.713965
0.713971
0.713977
0.713984
0.71399
0.713997
0.714004
0.714011
0.714018
0.714026
0.714033
0.714041
0.714049
0.714057
0.714066
0.714074
0.714083
0.714091
0.7141
0.714109
0.714118
0.714127
0.714135
0.714144
0.714153
0.714162
0.71417
0.714179
0.714187
0.714195
0.714203
0.714211
0.714218
0.714225
0.714232
0.714238
0.714244
0.71425
0.714256
0.714261
0.714265
0.71427
0.714273
0.714277
0.71428
0.714283
0.714285
0.714287
0.714288
0.714289
0.71429
0.714291
0.714291
0.714291
0.71429
)
;

boundaryField
{
    inlet
    {
        type            zeroGradient;
    }
    outlet
    {
        type            fixedValue;
        value           uniform 0.714286;
    }
    walls
    {
        type            zeroGradient;
    }
    symwall
    {
        type            empty;
    }
    procBoundary1to0
    {
        type            processor;
        value           nonuniform List<scalar> 10(0.713445 0.71345 0.713445 0.713438 0.713419 0.713394 0.713359 0.71332 0.71328 0.713246);
    }
    procBoundary1to2
    {
        type            processor;
        value           uniform 0.713232;
    }
    procBoundary1to3
    {
        type            processor;
        value           nonuniform List<scalar> 
128
(
0.71429
0.714289
0.714287
0.714287
0.714283
0.713244
0.713256
0.713268
0.713282
0.713297
0.713312
0.713329
0.713346
0.713365
0.713385
0.713406
0.713428
0.713451
0.713475
0.713501
0.713526
0.713553
0.71358
0.713608
0.713635
0.713663
0.71369
0.713716
0.713741
0.713766
0.713789
0.71381
0.71383
0.713848
0.713865
0.713879
0.713892
0.713903
0.713912
0.713919
0.713926
0.71393
0.713934
0.713937
0.713939
0.71394
0.71394
0.71394
0.71394
0.71394
0.713939
0.713939
0.713939
0.713938
0.713938
0.713938
0.713938
0.713939
0.71394
0.713941
0.713942
0.713944
0.713946
0.713948
0.71395
0.713953
0.713957
0.71396
0.713964
0.713968
0.713972
0.713977
0.713982
0.713987
0.713993
0.713999
0.714005
0.714011
0.714017
0.714024
0.714031
0.714038
0.714046
0.714053
0.714061
0.714068
0.714076
0.714084
0.714092
0.714101
0.714109
0.714117
0.714125
0.714134
0.714142
0.71415
0.714158
0.714166
0.714174
0.714181
0.714189
0.714196
0.714203
0.71421
0.714217
0.714223
0.714229
0.714235
0.71424
0.714245
0.71425
0.714254
0.714259
0.714262
0.714266
0.714269
0.714272
0.714274
0.714276
0.714278
0.71428
0.714281
0.714283
0.714283
0.714284
0.714284
0.71429
0.714284
)
;
    }
}


// ************************************************************************* //
