/*--------------------------------*- C++ -*----------------------------------*\
| =========                 |                                                 |
| \\      /  F ield         | OpenFOAM: The Open Source CFD Toolbox           |
|  \\    /   O peration     | Version:  4.1                                   |
|   \\  /    A nd           | Web:      www.OpenFOAM.org                      |
|    \\/     M anipulation  |                                                 |
\*---------------------------------------------------------------------------*/
FoamFile
{
    version     2.0;
    format      ascii;
    class       volVectorField;
    location    "0.0063";
    object      U;
}
// * * * * * * * * * * * * * * * * * * * * * * * * * * * * * * * * * * * * * //

dimensions      [0 1 -1 0 0 0 0];

internalField   nonuniform List<vector> 
441
(
(-0.00013882 0.000135028 0)
(-0.00057357 0.000266906 0)
(-0.00106066 0.000334702 0)
(-0.00154789 0.000347751 0)
(-0.00200365 0.000328516 0)
(-0.00241035 0.000291105 0)
(-0.00275669 0.000242931 0)
(-0.00303463 0.000187849 0)
(-0.00323815 0.000128151 0)
(-0.00336293 6.55024e-05 0)
(-0.00340631 1.32771e-06 0)
(-0.00336726 -6.30226e-05 0)
(-0.00324638 -0.000126182 0)
(-0.00304594 -0.000186679 0)
(-0.00276993 -0.000242769 0)
(-0.00242417 -0.000292046 0)
(-0.00201666 -0.000330508 0)
(-0.00155879 -0.000350552 0)
(-0.00106849 -0.000337833 0)
(-0.000577859 -0.000269619 0)
(-0.000139817 -0.000136429 0)
(-0.000288163 0.000567649 0)
(-0.00121436 0.00114941 0)
(-0.00224224 0.00138952 0)
(-0.00326131 0.00141726 0)
(-0.00420796 0.0013268 0)
(-0.00504862 0.00117047 0)
(-0.00576214 0.000974595 0)
(-0.00633338 0.000752754 0)
(-0.00675089 0.000513231 0)
(-0.00700644 0.000262268 0)
(-0.00709492 5.36097e-06 0)
(-0.00701436 -0.00025222 0)
(-0.00676595 -0.000505145 0)
(-0.00635409 -0.000747738 0)
(-0.00578644 -0.000973459 0)
(-0.00507406 -0.0011736 0)
(-0.00423196 -0.00133403 0)
(-0.00328146 -0.00142771 0)
(-0.00225669 -0.00140143 0)
(-0.0012222 -0.00115997 0)
(-0.000289826 -0.000572983 0)
(-0.000388813 0.00108212 0)
(-0.00158354 0.00218897 0)
(-0.00289939 0.00262299 0)
(-0.00420007 0.00266088 0)
(-0.00540599 0.00248302 0)
(-0.00647505 0.00218617 0)
(-0.00738097 0.00181801 0)
(-0.00810519 0.00140299 0)
(-0.00863391 0.00095599 0)
(-0.00895729 0.000488293 0)
(-0.00906925 9.8327e-06 0)
(-0.00896746 -0.000469863 0)
(-0.00865327 -0.000941159 0)
(-0.00813187 -0.0013938 0)
(-0.00741233 -0.00181597 0)
(-0.00650796 -0.00219201 0)
(-0.00543711 -0.00249646 0)
(-0.00422628 -0.00268031 0)
(-0.00291824 -0.00264517 0)
(-0.00159384 -0.00220867 0)
(-0.000391064 -0.00109199 0)
(-0.000455932 0.00165199 0)
(-0.00182668 0.00333041 0)
(-0.00332794 0.00397374 0)
(-0.00480847 0.00401991 0)
(-0.00617848 0.00374412 0)
(-0.0073906 0.00329194 0)
(-0.0084157 0.00273465 0)
(-0.00923373 0.00210867 0)
(-0.00983017 0.00143606 0)
(-0.0101949 0.000733373 0)
(-0.0103216 1.50386e-05 0)
(-0.0102078 -0.000705183 0)
(-0.0098549 -0.00141338 0)
(-0.00926788 -0.00209463 0)
(-0.00845596 -0.0027316 0)
(-0.00743299 -0.00330107 0)
(-0.00621871 -0.00376504 0)
(-0.00484248 -0.00405017 0)
(-0.00335251 -0.0040083 0)
(-0.00184018 -0.00336109 0)
(-0.000458952 -0.0016673 0)
(-0.000513244 0.0022736 0)
(-0.00204112 0.00456739 0)
(-0.00370777 0.00543471 0)
(-0.00534725 0.00548691 0)
(-0.00686025 0.00510229 0)
(-0.00819498 0.00447989 0)
(-0.00932045 0.0037171 0)
(-0.0102163 0.00286355 0)
(-0.0108683 0.00194904 0)
(-0.0112669 0.000995444 0)
(-0.0114063 2.15169e-05 0)
(-0.0112841 -0.000955087 0)
(-0.010901 -0.00191651 0)
(-0.0102616 -0.00284337 0)
(-0.00937409 -0.00371267 0)
(-0.0082517 -0.00449303 0)
(-0.00691435 -0.00513254 0)
(-0.0053932 -0.00553082 0)
(-0.00374113 -0.00548496 0)
(-0.00205957 -0.00461206 0)
(-0.00051745 -0.00229588 0)
(-0.000575377 0.00295749 0)
(-0.00228042 0.00592206 0)
(-0.00413401 0.00703085 0)
(-0.00595138 0.00708507 0)
(-0.00762199 0.00657691 0)
(-0.0090894 0.00576506 0)
(-0.0103215 0.00477631 0)
(-0.0112986 0.00367516 0)
(-0.0120079 0.00249969 0)
(-0.0124415 0.00127709 0)
(-0.0125944 2.99544e-05 0)
(-0.0124646 -0.00122085 0)
(-0.0120522 -0.00245419 0)
(-0.0113601 -0.00364669 0)
(-0.0103946 -0.00476973 0)
(-0.00916716 -0.00578308 0)
(-0.00769659 -0.00661911 0)
(-0.00601514 -0.00714678 0)
(-0.00418058 -0.00710182 0)
(-0.00230635 -0.00598535 0)
(-0.000581376 -0.00298913 0)
(-0.000650737 0.00372139 0)
(-0.00257432 0.00742926 0)
(-0.00465787 0.00880088 0)
(-0.00669152 0.00884998 0)
(-0.00855056 0.00819743 0)
(-0.0101735 0.00717008 0)
(-0.011528 0.00592866 0)
(-0.0125965 0.00455462 0)
(-0.0133694 0.00309501 0)
(-0.0138415 0.00158201 0)
(-0.0140098 4.11693e-05 0)
(-0.0138728 -0.00150458 0)
(-0.0134296 -0.00303202 0)
(-0.0126805 -0.00451466 0)
(-0.0116285 -0.00591858 0)
(-0.0102811 -0.00719395 0)
(-0.00865452 -0.0082551 0)
(-0.00678105 -0.00893534 0)
(-0.00472372 -0.00889982 0)
(-0.00261123 -0.00751797 0)
(-0.000659382 -0.00376593 0)
(-0.000745265 0.00458809 0)
(-0.00294413 0.00913217 0)
(-0.00531501 0.0107917 0)
(-0.0076148 0.0108234 0)
(-0.00970086 0.00999693 0)
(-0.0115065 0.00871904 0)
(-0.0130009 0.00719043 0)
(-0.0141712 0.00551225 0)
(-0.0150134 0.00374108 0)
(-0.0155271 0.00191339 0)
(-0.0157128 5.61695e-05 0)
(-0.0155695 -0.00180751 0)
(-0.0150951 -0.00365427 0)
(-0.0142859 -0.00545612 0)
(-0.013139 -0.0071746 0)
(-0.0116556 -0.00874967 0)
(-0.00984627 -0.0100746 0)
(-0.00774116 -0.0109404 0)
(-0.00540875 -0.0109288 0)
(-0.00299709 -0.00925608 0)
(-0.000757792 -0.00465073 0)
(-0.000864971 0.00558597 0)
(-0.00341208 0.0110827 0)
(-0.00614179 0.0130578 0)
(-0.00876707 0.0130515 0)
(-0.011123 0.0120094 0)
(-0.0131384 0.0104341 0)
(-0.0147872 0.00857448 0)
(-0.0160656 0.00655464 0)
(-0.0169789 0.00444102 0)
(-0.0175348 0.0022729 0)
(-0.0177388 7.62181e-05 0)
(-0.0175917 -0.0021288 0)
(-0.017089 -0.00432168 0)
(-0.0162211 -0.00647557 0)
(-0.0149763 -0.00854915 0)
(-0.0133447 -0.0104719 0)
(-0.0113266 -0.0121127 0)
(-0.00894612 -0.0132109 0)
(-0.00627607 -0.0132475 0)
(-0.00348862 -0.0112559 0)
(-0.000883237 -0.0056743 0)
(-0.00101754 0.00675124 0)
(-0.00400725 0.0133451 0)
(-0.00718486 0.0156636 0)
(-0.0102049 0.0155847 0)
(-0.0128752 0.0142676 0)
(-0.015123 0.0123324 0)
(-0.0169332 0.0100869 0)
(-0.0183174 0.00768173 0)
(-0.0192964 0.00519283 0)
(-0.0198902 0.00265956 0)
(-0.0201121 0.000102891 0)
(-0.0199656 -0.0024643 0)
(-0.0194431 -0.00502903 0)
(-0.0185266 -0.00756987 0)
(-0.0171905 -0.0100458 0)
(-0.0154078 -0.0123766 0)
(-0.0131605 -0.0144027 0)
(-0.0104596 -0.0158005 0)
(-0.00737862 -0.0159259 0)
(-0.00411895 -0.0135881 0)
(-0.00104442 -0.00687651 0)
(-0.00121348 0.00813186 0)
(-0.00477016 0.0160015 0)
(-0.00850771 0.0186864 0)
(-0.0120018 0.0184774 0)
(-0.0150287 0.0168 0)
(-0.0175208 0.0144215 0)
(-0.0194846 0.0117222 0)
(-0.0209578 0.00888276 0)
(-0.0219852 0.00598653 0)
(-0.022605 0.00306829 0)
(-0.0228421 0.000138102 0)
(-0.0227036 -0.00280496 0)
(-0.0221782 -0.00576207 0)
(-0.021236 -0.00872371 0)
(-0.0198318 -0.0116546 0)
(-0.017912 -0.014468 0)
(-0.0154284 -0.0169726 0)
(-0.0123658 -0.0187673 0)
(-0.00878969 -0.019049 0)
(-0.00493507 -0.0163441 0)
(-0.00125348 -0.00831105 0)
(-0.00146637 0.00979399 0)
(-0.00575487 0.0191612 0)
(-0.0101921 0.0222209 0)
(-0.0142459 0.0217861 0)
(-0.0176598 0.0196242 0)
(-0.0203856 0.0166914 0)
(-0.0224696 0.0134559 0)
(-0.0239917 0.0101303 0)
(-0.0250321 0.00680019 0)
(-0.0256548 0.0034879 0)
(-0.0259 0.000184044 0)
(-0.0257806 -0.00313488 0)
(-0.0252806 -0.00649333 0)
(-0.024355 -0.00990313 0)
(-0.0229315 -0.0133442 0)
(-0.0209176 -0.0167297 0)
(-0.0182171 -0.0198371 0)
(-0.0147668 -0.0221704 0)
(-0.0106053 -0.0227216 0)
(-0.00600111 -0.0196474 0)
(-0.00152663 -0.0100532 0)
(-0.00178969 0.0118315 0)
(-0.00702002 0.0229725 0)
(-0.0123188 0.0263815 0)
(-0.0170076 0.0255615 0)
(-0.0208043 0.0227347 0)
(-0.0237085 0.019101 0)
(-0.0258358 0.0152332 0)
(-0.0273301 0.0113721 0)
(-0.0283213 0.00759457 0)
(-0.028907 0.00389838 0)
(-0.0291472 0.000242908 0)
(-0.0290619 -0.00342911 0)
(-0.0286303 -0.00717694 0)
(-0.0277896 -0.0110467 0)
(-0.0264336 -0.0150481 0)
(-0.0244168 -0.0191088 0)
(-0.0215701 -0.0229813 0)
(-0.0177473 -0.0260599 0)
(-0.0129242 -0.0270697 0)
(-0.00738973 -0.023667 0)
(-0.00188109 -0.0122115 0)
(-0.00218219 0.0143774 0)
(-0.00858026 0.0276334 0)
(-0.0148809 0.0312948 0)
(-0.0202145 0.0298271 0)
(-0.0243029 0.0260763 0)
(-0.0272441 0.0215554 0)
(-0.0292646 0.0169517 0)
(-0.0305995 0.0125194 0)
(-0.0314414 0.0083064 0)
(-0.0319276 0.00426749 0)
(-0.0321397 0.000316043 0)
(-0.032106 -0.00365174 0)
(-0.0318022 -0.00774314 0)
(-0.0311475 -0.0120549 0)
(-0.0299988 -0.0166477 0)
(-0.0281453 -0.0214896 0)
(-0.0253172 -0.02633 0)
(-0.0212364 -0.0304485 0)
(-0.0157519 -0.0322282 0)
(-0.00913012 -0.0286279 0)
(-0.00232 -0.0149413 0)
(-0.00258187 0.017606 0)
(-0.0102466 0.0333761 0)
(-0.0175118 0.0370522 0)
(-0.02329 0.0345197 0)
(-0.0273806 0.029491 0)
(-0.0300563 0.023866 0)
(-0.0317032 0.0184362 0)
(-0.0326679 0.0134328 0)
(-0.0332106 0.00884056 0)
(-0.0335053 0.00454663 0)
(-0.0336517 0.000401923 0)
(-0.0336857 -0.00375596 0)
(-0.0335821 -0.00809454 0)
(-0.0332492 -0.0127787 0)
(-0.0325133 -0.017948 0)
(-0.0310993 -0.0236521 0)
(-0.0286191 -0.029686 0)
(-0.0246106 -0.035239 0)
(-0.0187017 -0.0382793 0)
(-0.0110343 -0.0347885 0)
(-0.00278367 -0.018449 0)
(-0.0027463 0.0216932 0)
(-0.0112081 0.0403582 0)
(-0.0188074 0.0435566 0)
(-0.0242986 0.0393447 0)
(-0.0276974 0.032612 0)
(-0.0295314 0.0256867 0)
(-0.0303675 0.0194047 0)
(-0.0306519 0.013906 0)
(-0.0306892 0.00906299 0)
(-0.0306682 0.00466678 0)
(-0.0306927 0.000492186 0)
(-0.0308008 -0.00368824 0)
(-0.030972 -0.00810839 0)
(-0.0311197 -0.0130143 0)
(-0.0310673 -0.0186539 0)
(-0.0305089 -0.0252139 0)
(-0.0289644 -0.0326203 0)
(-0.0257761 -0.040059 0)
(-0.0202592 -0.0450657 0)
(-0.0122454 -0.0423025 0)
(-0.00302381 -0.022947 0)
(-0.00197533 0.0266406 0)
(-0.00911109 0.0482945 0)
(-0.0149455 0.0501262 0)
(-0.0183303 0.0434771 0)
(-0.019657 0.034686 0)
(-0.01969 0.0264259 0)
(-0.0190862 0.0194349 0)
(-0.0182934 0.0136579 0)
(-0.0175823 0.00880055 0)
(-0.0171039 0.0045376 0)
(-0.0169348 0.000566103 0)
(-0.0171042 -0.00339959 0)
(-0.0176031 -0.00765147 0)
(-0.0183785 -0.0125145 0)
(-0.0193072 -0.0183606 0)
(-0.0201452 -0.025567 0)
(-0.0204484 -0.0343071 0)
(-0.0194953 -0.0439469 0)
(-0.0163305 -0.0517397 0)
(-0.0102683 -0.0507825 0)
(-0.00231728 -0.0284575 0)
(0.00151463 0.0318355 0)
(0.00169793 0.0556389 0)
(0.002556 0.0547672 0)
(0.00475305 0.0451216 0)
(0.00767524 0.03438 0)
(0.0107033 0.0251975 0)
(0.0134382 0.0179753 0)
(0.0156749 0.0123596 0)
(0.0173271 0.00786441 0)
(0.0183678 0.00405909 0)
(0.0187919 0.000587458 0)
(0.0185968 -0.002865 0)
(0.0177739 -0.00661663 0)
(0.0163084 -0.0110391 0)
(0.0141898 -0.0166031 0)
(0.0114417 -0.0238827 0)
(0.00819079 -0.0333927 0)
(0.0047929 -0.0449487 0)
(0.00198907 -0.0560009 0)
(0.000809547 -0.0583704 0)
(0.00116988 -0.0343175 0)
(0.0125212 0.0348435 0)
(0.0333798 0.0577923 0)
(0.0495201 0.0530975 0)
(0.061922 0.0411552 0)
(0.0712732 0.0298016 0)
(0.0782418 0.0209629 0)
(0.083375 0.0144921 0)
(0.0870709 0.00974694 0)
(0.0896047 0.00612341 0)
(0.0911548 0.00316086 0)
(0.0918238 0.000513501 0)
(0.0916494 -0.00210587 0)
(0.0906054 -0.00498364 0)
(0.0885899 -0.00846616 0)
(0.0853983 -0.0130278 0)
(0.0806759 -0.0193279 0)
(0.0738638 -0.0281559 0)
(0.0641832 -0.0399532 0)
(0.050821 -0.0531758 0)
(0.0334139 -0.0599399 0)
(0.0123189 -0.0379175 0)
(0.0470054 0.0308206 0)
(0.111552 0.0469724 0)
(0.151478 0.0393354 0)
(0.175466 0.0284537 0)
(0.190438 0.0196016 0)
(0.200078 0.0132858 0)
(0.206461 0.00893927 0)
(0.210729 0.00590078 0)
(0.213524 0.00366582 0)
(0.2152 0.00188809 0)
(0.215944 0.000325808 0)
(0.215824 -0.00121198 0)
(0.214807 -0.00291163 0)
(0.212737 -0.00500136 0)
(0.209269 -0.00780804 0)
(0.203717 -0.0118262 0)
(0.194774 -0.0177644 0)
(0.17999 -0.0264054 0)
(0.15511 -0.0377785 0)
(0.112949 -0.0473532 0)
(0.047124 -0.0338757 0)
(0.182039 0.00383619 0)
(0.292883 0.00544794 0)
(0.342483 0.0073926 0)
(0.364832 0.00649769 0)
(0.376582 0.00483027 0)
(0.383282 0.00337801 0)
(0.387382 0.00229937 0)
(0.389985 0.00152251 0)
(0.391636 0.000945238 0)
(0.39261 0.000485419 0)
(0.393045 8.21853e-05 0)
(0.39299 -0.000313032 0)
(0.392425 -0.0007459 0)
(0.391247 -0.00126729 0)
(0.389213 -0.00193834 0)
(0.385796 -0.00282407 0)
(0.379843 -0.00394489 0)
(0.368654 -0.00512166 0)
(0.345964 -0.00559385 0)
(0.294032 -0.00435719 0)
(0.18038 -0.00648689 0)
)
;

boundaryField
{
    movingWall
    {
        type            fixedValue;
        value           uniform (0.5 0 0);
    }
    fixedWalls
    {
        type            noSlip;
    }
    frontAndBack
    {
        type            empty;
    }
}


// ************************************************************************* //
