/*--------------------------------*- C++ -*----------------------------------*\
| =========                 |                                                 |
| \\      /  F ield         | OpenFOAM: The Open Source CFD Toolbox           |
|  \\    /   O peration     | Version:  4.1                                   |
|   \\  /    A nd           | Web:      www.OpenFOAM.org                      |
|    \\/     M anipulation  |                                                 |
\*---------------------------------------------------------------------------*/
FoamFile
{
    version     2.0;
    format      ascii;
    class       volScalarField;
    location    "3450";
    object      p;
}
// * * * * * * * * * * * * * * * * * * * * * * * * * * * * * * * * * * * * * //

dimensions      [1 -1 -2 0 0 0 0];

internalField   nonuniform List<scalar> 
1275
(
0.711995
0.711995
0.711994
0.711994
0.711993
0.711993
0.711992
0.711993
0.711992
0.711992
0.711992
0.711992
0.711992
0.711992
0.711992
0.711993
0.711993
0.711994
0.711995
0.711995
0.711996
0.711998
0.711999
0.712
0.712002
0.712004
0.712005
0.712007
0.712009
0.712012
0.712014
0.712017
0.71202
0.712023
0.712026
0.712029
0.712032
0.712036
0.71204
0.712044
0.712048
0.712052
0.712056
0.712061
0.712066
0.712071
0.712076
0.712081
0.712086
0.712092
0.712098
0.712104
0.71211
0.712117
0.712123
0.71213
0.712137
0.712144
0.712152
0.71216
0.712168
0.712176
0.712185
0.712194
0.712203
0.712213
0.712223
0.712234
0.712245
0.712256
0.712269
0.712282
0.712296
0.712311
0.712327
0.712344
0.712363
0.712383
0.712405
0.712429
0.712455
0.712483
0.712514
0.712547
0.712583
0.712622
0.712664
0.712709
0.712757
0.712808
0.712862
0.712918
0.712976
0.713035
0.713096
0.713157
0.713218
0.713278
0.713337
0.713393
0.713447
0.713497
0.713544
0.713586
0.713623
0.713656
0.713684
0.713707
0.713725
0.713738
0.713747
0.713752
0.713753
0.713751
0.713746
0.713738
0.713728
0.713717
0.713704
0.71369
0.713675
0.713661
0.711994
0.711994
0.711993
0.711994
0.711993
0.711993
0.711993
0.711993
0.711992
0.711993
0.711992
0.711993
0.711993
0.711993
0.711993
0.711994
0.711994
0.711995
0.711995
0.711996
0.711997
0.711998
0.712
0.712001
0.712002
0.712004
0.712006
0.712008
0.71201
0.712012
0.712015
0.712017
0.71202
0.712023
0.712026
0.712029
0.712033
0.712036
0.71204
0.712044
0.712048
0.712052
0.712057
0.712061
0.712066
0.712071
0.712076
0.712081
0.712087
0.712093
0.712098
0.712104
0.712111
0.712117
0.712124
0.712131
0.712138
0.712145
0.712153
0.71216
0.712168
0.712177
0.712186
0.712195
0.712204
0.712214
0.712224
0.712235
0.712246
0.712258
0.71227
0.712283
0.712297
0.712312
0.712328
0.712345
0.712364
0.712384
0.712405
0.712429
0.712454
0.712482
0.712512
0.712545
0.71258
0.712619
0.71266
0.712705
0.712752
0.712803
0.712856
0.712912
0.71297
0.713029
0.71309
0.713151
0.713212
0.713272
0.713331
0.713387
0.713441
0.713491
0.713538
0.71358
0.713618
0.71365
0.713678
0.713701
0.713719
0.713733
0.713742
0.713747
0.713748
0.713746
0.713741
0.713734
0.713724
0.713713
0.7137
0.713686
0.713672
0.713657
0.711997
0.711996
0.711995
0.711996
0.711994
0.711995
0.711993
0.711994
0.711993
0.711993
0.711992
0.711993
0.711992
0.711993
0.711993
0.711993
0.711994
0.711994
0.711995
0.711996
0.711997
0.711998
0.711999
0.712001
0.712002
0.712004
0.712006
0.712008
0.71201
0.712012
0.712015
0.712017
0.71202
0.712023
0.712026
0.712029
0.712033
0.712036
0.71204
0.712044
0.712048
0.712052
0.712057
0.712061
0.712066
0.712071
0.712076
0.712081
0.712087
0.712092
0.712098
0.712104
0.712111
0.712117
0.712124
0.71213
0.712138
0.712145
0.712152
0.71216
0.712168
0.712177
0.712185
0.712194
0.712204
0.712213
0.712223
0.712234
0.712245
0.712257
0.712269
0.712282
0.712296
0.712311
0.712327
0.712344
0.712362
0.712381
0.712403
0.712426
0.712451
0.712478
0.712508
0.71254
0.712576
0.712614
0.712655
0.712699
0.712747
0.712797
0.71285
0.712906
0.712964
0.713023
0.713084
0.713145
0.713206
0.713266
0.713325
0.713382
0.713435
0.713486
0.713532
0.713574
0.713612
0.713644
0.713672
0.713695
0.713713
0.713726
0.713735
0.71374
0.713741
0.713739
0.713734
0.713726
0.713717
0.713706
0.713693
0.71368
0.713665
0.713651
0.711993
0.711993
0.711992
0.711993
0.711992
0.711993
0.711992
0.711993
0.711992
0.711993
0.711992
0.711993
0.711993
0.711993
0.711993
0.711994
0.711994
0.711995
0.711995
0.711996
0.711997
0.711998
0.711999
0.712001
0.712002
0.712004
0.712006
0.712008
0.71201
0.712012
0.712015
0.712017
0.71202
0.712023
0.712026
0.712029
0.712033
0.712036
0.71204
0.712044
0.712048
0.712052
0.712056
0.712061
0.712066
0.712071
0.712076
0.712081
0.712087
0.712092
0.712098
0.712104
0.71211
0.712117
0.712124
0.71213
0.712137
0.712145
0.712152
0.71216
0.712168
0.712177
0.712185
0.712194
0.712204
0.712213
0.712223
0.712234
0.712245
0.712256
0.712269
0.712281
0.712295
0.71231
0.712325
0.712342
0.712359
0.712379
0.712399
0.712422
0.712447
0.712473
0.712503
0.712534
0.712569
0.712607
0.712648
0.712692
0.712739
0.712789
0.712842
0.712897
0.712955
0.713014
0.713075
0.713135
0.713196
0.713256
0.713314
0.71337
0.713423
0.713473
0.713518
0.71356
0.713597
0.713628
0.713655
0.713677
0.713695
0.713708
0.713716
0.713721
0.713722
0.713719
0.713714
0.713707
0.713698
0.713687
0.713675
0.713662
0.713648
0.713634
0.711999
0.711998
0.711996
0.711996
0.711994
0.711995
0.711993
0.711993
0.711992
0.711992
0.711991
0.711991
0.711991
0.711992
0.711992
0.711992
0.711992
0.711993
0.711994
0.711995
0.711996
0.711997
0.711998
0.712
0.712001
0.712003
0.712005
0.712007
0.712009
0.712011
0.712014
0.712016
0.712019
0.712022
0.712025
0.712028
0.712032
0.712035
0.712039
0.712043
0.712047
0.712051
0.712056
0.71206
0.712065
0.71207
0.712075
0.712081
0.712086
0.712092
0.712098
0.712104
0.71211
0.712116
0.712123
0.71213
0.712137
0.712144
0.712152
0.712159
0.712167
0.712176
0.712184
0.712193
0.712202
0.712212
0.712222
0.712232
0.712243
0.712255
0.712267
0.712279
0.712293
0.712307
0.712322
0.712339
0.712356
0.712375
0.712396
0.712419
0.712443
0.71247
0.712499
0.712531
0.712565
0.712603
0.712644
0.712688
0.712735
0.712785
0.712837
0.712893
0.71295
0.713008
0.713068
0.713128
0.713187
0.713246
0.713303
0.713357
0.713408
0.713456
0.7135
0.71354
0.713575
0.713605
0.71363
0.713651
0.713667
0.713678
0.713686
0.71369
0.71369
0.713688
0.713683
0.713676
0.713667
0.713656
0.713645
0.713632
0.71362
0.713607
0.711987
0.711989
0.711987
0.711991
0.711988
0.711991
0.71199
0.711992
0.71199
0.711991
0.711991
0.711991
0.711991
0.711992
0.711991
0.711992
0.711992
0.711993
0.711994
0.711995
0.711995
0.711997
0.711998
0.711999
0.712001
0.712002
0.712004
0.712006
0.712008
0.712011
0.712013
0.712016
0.712019
0.712022
0.712025
0.712028
0.712031
0.712035
0.712039
0.712043
0.712047
0.712051
0.712055
0.71206
0.712065
0.71207
0.712075
0.71208
0.712086
0.712091
0.712097
0.712103
0.712109
0.712116
0.712122
0.712129
0.712136
0.712143
0.712151
0.712159
0.712167
0.712175
0.712184
0.712192
0.712202
0.712211
0.712221
0.712231
0.712242
0.712254
0.712265
0.712278
0.712291
0.712306
0.712321
0.712337
0.712355
0.712374
0.712394
0.712417
0.712441
0.712468
0.712497
0.712529
0.712564
0.712602
0.712643
0.712686
0.712733
0.712783
0.712835
0.712889
0.712945
0.713002
0.71306
0.713118
0.713175
0.713231
0.713286
0.713337
0.713386
0.71343
0.713471
0.713508
0.71354
0.713567
0.71359
0.713608
0.713622
0.713632
0.713638
0.713641
0.713641
0.713638
0.713633
0.713626
0.713618
0.713608
0.713598
0.713587
0.713576
0.713565
0.711998
0.711998
0.711994
0.711995
0.711991
0.711992
0.711989
0.71199
0.711988
0.711989
0.711988
0.711989
0.711988
0.711989
0.711989
0.71199
0.71199
0.711991
0.711992
0.711993
0.711994
0.711995
0.711996
0.711998
0.712
0.712001
0.712003
0.712005
0.712008
0.71201
0.712012
0.712015
0.712018
0.712021
0.712024
0.712027
0.712031
0.712034
0.712038
0.712042
0.712046
0.71205
0.712055
0.712059
0.712064
0.712069
0.712074
0.71208
0.712085
0.712091
0.712096
0.712103
0.712109
0.712115
0.712122
0.712129
0.712136
0.712143
0.71215
0.712158
0.712166
0.712174
0.712183
0.712192
0.712201
0.71221
0.71222
0.712231
0.712242
0.712253
0.712265
0.712278
0.712291
0.712306
0.712321
0.712338
0.712356
0.712375
0.712396
0.712419
0.712444
0.712472
0.712501
0.712534
0.712569
0.712607
0.712648
0.712691
0.712737
0.712786
0.712837
0.71289
0.712944
0.712999
0.713054
0.713109
0.713163
0.713215
0.713265
0.713313
0.713357
0.713397
0.713434
0.713466
0.713494
0.713517
0.713536
0.713552
0.713563
0.713571
0.713575
0.713577
0.713576
0.713573
0.713568
0.713562
0.713554
0.713546
0.713537
0.713528
0.713519
0.71351
0.711966
0.711981
0.711975
0.711986
0.711982
0.711988
0.711986
0.711989
0.711988
0.711989
0.711989
0.71199
0.711989
0.71199
0.71199
0.711991
0.711991
0.711992
0.711992
0.711993
0.711994
0.711995
0.711997
0.711998
0.712
0.712001
0.712003
0.712005
0.712007
0.71201
0.712012
0.712015
0.712018
0.712021
0.712024
0.712027
0.71203
0.712034
0.712038
0.712042
0.712046
0.71205
0.712054
0.712059
0.712064
0.712069
0.712074
0.712079
0.712085
0.712091
0.712096
0.712102
0.712109
0.712115
0.712122
0.712129
0.712136
0.712143
0.71215
0.712158
0.712166
0.712175
0.712183
0.712192
0.712202
0.712211
0.712222
0.712232
0.712243
0.712255
0.712268
0.712281
0.712295
0.71231
0.712326
0.712343
0.712362
0.712382
0.712404
0.712428
0.712454
0.712482
0.712512
0.712545
0.71258
0.712618
0.712659
0.712702
0.712747
0.712795
0.712844
0.712894
0.712945
0.712997
0.713048
0.713099
0.713148
0.713195
0.713239
0.713281
0.713319
0.713354
0.713384
0.713411
0.713434
0.713453
0.713468
0.71348
0.713488
0.713494
0.713497
0.713497
0.713496
0.713493
0.713489
0.713483
0.713478
0.713471
0.713465
0.713458
0.713451
0.713445
0.711991
0.711997
0.71199
0.711992
0.711987
0.711988
0.711986
0.711987
0.711985
0.711986
0.711986
0.711987
0.711987
0.711988
0.711988
0.711989
0.711989
0.71199
0.711991
0.711992
0.711993
0.711995
0.711996
0.711998
0.711999
0.712001
0.712003
0.712005
0.712007
0.71201
0.712012
0.712015
0.712018
0.712021
0.712024
0.712027
0.712031
0.712034
0.712038
0.712042
0.712046
0.712051
0.712055
0.71206
0.712065
0.712069
0.712075
0.71208
0.712086
0.712091
0.712097
0.712103
0.71211
0.712116
0.712123
0.71213
0.712137
0.712145
0.712152
0.712161
0.712169
0.712178
0.712187
0.712196
0.712206
0.712216
0.712227
0.712238
0.71225
0.712262
0.712276
0.71229
0.712305
0.712321
0.712338
0.712357
0.712377
0.712398
0.712421
0.712446
0.712473
0.712502
0.712534
0.712567
0.712603
0.712641
0.712681
0.712723
0.712767
0.712812
0.712858
0.712905
0.712952
0.712999
0.713044
0.713089
0.713132
0.713172
0.71321
0.713244
0.713276
0.713304
0.713328
0.713349
0.713366
0.713381
0.713392
0.7134
0.713406
0.713409
0.713411
0.713411
0.71341
0.713407
0.713404
0.713401
0.713397
0.713393
0.713389
0.713385
0.713381
0.713378
0.711888
0.711969
0.711964
0.711988
0.711983
0.711992
0.711988
0.711992
0.71199
0.711992
0.711991
0.711992
0.711991
0.711992
0.711991
0.711992
0.711992
0.711993
0.711993
0.711994
0.711995
0.711996
0.711998
0.711999
0.712001
0.712002
0.712004
0.712006
0.712008
0.712011
0.712013
0.712016
0.712019
0.712022
0.712025
0.712028
0.712032
0.712035
0.712039
0.712043
0.712047
0.712052
0.712056
0.712061
0.712065
0.712071
0.712076
0.712082
0.712088
0.712094
0.7121
0.712106
0.712113
0.71212
0.712127
0.712134
0.712142
0.71215
0.712158
0.712167
0.712176
0.712185
0.712195
0.712205
0.712216
0.712227
0.712239
0.712251
0.712264
0.712278
0.712293
0.712308
0.712325
0.712342
0.712361
0.712381
0.712403
0.712426
0.712451
0.712477
0.712505
0.712536
0.712567
0.712601
0.712637
0.712674
0.712713
0.712753
0.712794
0.712836
0.712878
0.71292
0.712962
0.713002
0.713042
0.713079
0.713114
0.713147
0.713177
0.713204
0.713229
0.71325
0.713268
0.713283
0.713296
0.713306
0.713313
0.713319
0.713323
0.713325
0.713326
0.713327
0.713326
0.713325
0.713324
0.713322
0.713321
0.71332
0.713318
0.713318
0.713317
0.713317
0.712246
0.712204
0.712197
0.712155
0.712143
0.7121
0.712085
0.712033
0.712023
0.711951
0.711968
0.711995
0.711988
0.711994
0.711988
0.711991
0.711988
0.711989
0.711988
0.711989
0.711988
0.711989
0.711989
0.71199
0.71199
0.711991
0.711991
0.711992
0.711993
0.711994
0.711995
0.711996
0.711998
0.711999
0.712001
0.712003
0.712005
0.712007
0.712009
0.712012
0.712014
0.712017
0.71202
0.712023
0.712026
0.71203
0.712033
0.712037
0.712041
0.712046
0.71205
0.712055
0.712059
0.712064
0.71207
)
;

boundaryField
{
    inlet
    {
        type            zeroGradient;
    }
    outlet
    {
        type            fixedValue;
        value           nonuniform 0();
    }
    walls
    {
        type            zeroGradient;
    }
    symwall
    {
        type            empty;
    }
    procBoundary0to1
    {
        type            processor;
        value           nonuniform List<scalar> 10(0.713646 0.713643 0.713637 0.713621 0.713594 0.713554 0.713501 0.713439 0.713375 0.713317);
    }
    procBoundary0to2
    {
        type            processor;
        value           nonuniform List<scalar> 
133
(
0.712075
0.712081
0.712087
0.712093
0.712099
0.712106
0.712113
0.71212
0.712127
0.712135
0.712143
0.712152
0.712161
0.71217
0.71218
0.71219
0.7122
0.712211
0.712223
0.712235
0.712248
0.712261
0.712275
0.71229
0.712306
0.712323
0.71234
0.712359
0.712379
0.7124
0.712422
0.712445
0.71247
0.712496
0.712524
0.712553
0.712584
0.712616
0.71265
0.712684
0.71272
0.712756
0.712793
0.712831
0.712868
0.712905
0.712941
0.712976
0.713009
0.713041
0.713071
0.713099
0.713124
0.713147
0.713167
0.713185
0.7132
0.713213
0.713223
0.713232
0.713238
0.713244
0.713248
0.713251
0.713253
0.713255
0.713256
0.713257
0.713258
0.713259
0.71326
0.713261
0.713262
0.713263
0.713265
0.713267
0.71327
0.712255
0.712207
0.7122
0.712157
0.712145
0.712101
0.712085
0.712035
0.712019
0.711951
0.711927
0.711978
0.711971
0.711993
0.711988
0.711997
0.711993
0.711997
0.711994
0.711996
0.711994
0.711995
0.711994
0.711994
0.711994
0.711994
0.711994
0.711995
0.711995
0.711996
0.711997
0.711998
0.711999
0.712001
0.712003
0.712004
0.712006
0.712009
0.712011
0.712014
0.712016
0.712019
0.712022
0.712026
0.712029
0.712033
0.712037
0.712041
0.712045
0.71205
0.712054
0.71206
0.712065
0.712071
0.712075
0.712075
)
;
    }
}


// ************************************************************************* //
