/*--------------------------------*- C++ -*----------------------------------*\
| =========                 |                                                 |
| \\      /  F ield         | OpenFOAM: The Open Source CFD Toolbox           |
|  \\    /   O peration     | Version:  4.1                                   |
|   \\  /    A nd           | Web:      www.OpenFOAM.org                      |
|    \\/     M anipulation  |                                                 |
\*---------------------------------------------------------------------------*/
FoamFile
{
    version     2.0;
    format      ascii;
    class       volVectorField;
    location    "3570";
    object      U;
}
// * * * * * * * * * * * * * * * * * * * * * * * * * * * * * * * * * * * * * //

dimensions      [0 1 -1 0 0 0 0];

internalField   nonuniform List<vector> 
1275
(
(0.07641 -5.70415e-05 0)
(0.0766115 -0.000118197 0)
(0.0764735 -0.00021671 0)
(0.0767148 -0.000275318 0)
(0.0767026 -0.000328542 0)
(0.0770169 -0.00042079 0)
(0.077124 -0.000440675 0)
(0.0775472 -0.000603864 0)
(0.0777895 -0.000628036 0)
(0.0784344 -0.000856068 0)
(0.112436 -3.97824e-05 0)
(0.112616 -0.000130119 0)
(0.112484 -0.000258938 0)
(0.112671 -0.000342218 0)
(0.112622 -0.00045256 0)
(0.112852 -0.000552957 0)
(0.112874 -0.000666601 0)
(0.113169 -0.000802681 0)
(0.113243 -0.000981996 0)
(0.113588 -0.00113078 0)
(0.136447 -3.24181e-05 0)
(0.136616 -0.000149653 0)
(0.136478 -0.000282071 0)
(0.13663 -0.000401544 0)
(0.136549 -0.000520334 0)
(0.136712 -0.000663207 0)
(0.136681 -0.000778283 0)
(0.136871 -0.000964049 0)
(0.136876 -0.00110077 0)
(0.137074 -0.00131746 0)
(0.148452 -2.8113e-05 0)
(0.148612 -0.000150583 0)
(0.14846 -0.000281777 0)
(0.148579 -0.000406867 0)
(0.14846 -0.000538946 0)
(0.148557 -0.000678609 0)
(0.14846 -0.000823054 0)
(0.148547 -0.000986163 0)
(0.148447 -0.00116647 0)
(0.148509 -0.00134081 0)
(0.148453 -2.29756e-05 0)
(0.148607 -0.000147355 0)
(0.148438 -0.0002592 0)
(0.148526 -0.000392915 0)
(0.148369 -0.000508172 0)
(0.14841 -0.000657748 0)
(0.148255 -0.000780023 0)
(0.148255 -0.000949916 0)
(0.148086 -0.00108728 0)
(0.148034 -0.00126217 0)
(0.136449 -1.57374e-05 0)
(0.136598 -0.000124497 0)
(0.136407 -0.000208987 0)
(0.136467 -0.000329297 0)
(0.136271 -0.000426893 0)
(0.136259 -0.000557834 0)
(0.136045 -0.000668585 0)
(0.135968 -0.000810029 0)
(0.135716 -0.000936746 0)
(0.135568 -0.00107902 0)
(0.112439 -3.38257e-06 0)
(0.112585 -9.52649e-05 0)
(0.112369 -0.000141512 0)
(0.112403 -0.000248358 0)
(0.11217 -0.000312279 0)
(0.112114 -0.000426494 0)
(0.111849 -0.000500164 0)
(0.111707 -0.000618502 0)
(0.11139 -0.00069966 0)
(0.111161 -0.000811367 0)
(0.0764173 2.71596e-05 0)
(0.076563 -3.49068e-05 0)
(0.076316 -3.75832e-05 0)
(0.0763444 -0.000115116 0)
(0.0760814 -0.000145904 0)
(0.07601 -0.000224951 0)
(0.0757049 -0.000266384 0)
(0.0755341 -0.000343426 0)
(0.0751659 -0.000390243 0)
(0.0748945 -0.000460453 0)
(0.0284323 6.12568e-05 0)
(0.0286344 3.06982e-05 0)
(0.0284829 4.73634e-05 0)
(0.0286011 2.87188e-06 0)
(0.0284145 -9.11685e-08 0)
(0.0284232 -3.75837e-05 0)
(0.0281861 -4.11451e-05 0)
(0.0280925 -7.11119e-05 0)
(0.027798 -7.25479e-05 0)
(0.027614 -9.37804e-05 0)
(0.0761542 -0.00239475 0)
(0.0769237 -0.00248698 0)
(0.077704 -0.00258907 0)
(0.078498 -0.00269616 0)
(0.0793045 -0.00281243 0)
(0.0801273 -0.00293596 0)
(0.0809657 -0.00306917 0)
(0.0818229 -0.00321138 0)
(0.0826989 -0.00336427 0)
(0.0835961 -0.0035278 0)
(0.084515 -0.00370327 0)
(0.0854577 -0.00389105 0)
(0.086425 -0.00409224 0)
(0.0874184 -0.00430742 0)
(0.0884388 -0.00453764 0)
(0.0894874 -0.00478359 0)
(0.0905649 -0.00504626 0)
(0.0916722 -0.00532639 0)
(0.0928096 -0.00562491 0)
(0.0939775 -0.00594254 0)
(0.0951756 -0.00628008 0)
(0.0964038 -0.00663817 0)
(0.0976609 -0.00701742 0)
(0.098946 -0.00741826 0)
(0.100257 -0.00784099 0)
(0.101592 -0.0082857 0)
(0.102947 -0.00875228 0)
(0.10432 -0.00924028 0)
(0.105705 -0.00974898 0)
(0.107098 -0.0102773 0)
(0.108493 -0.0108235 0)
(0.109882 -0.0113858 0)
(0.111258 -0.0119616 0)
(0.112613 -0.0125476 0)
(0.113937 -0.0131403 0)
(0.11522 -0.0137352 0)
(0.116452 -0.0143274 0)
(0.117621 -0.0149112 0)
(0.118716 -0.0154807 0)
(0.119724 -0.016029 0)
(0.120634 -0.0165493 0)
(0.121434 -0.0170341 0)
(0.122113 -0.017476 0)
(0.122661 -0.0178677 0)
(0.123067 -0.0182021 0)
(0.123323 -0.0184724 0)
(0.123422 -0.0186725 0)
(0.12336 -0.0187973 0)
(0.123133 -0.0188425 0)
(0.12274 -0.0188052 0)
(0.122181 -0.0186837 0)
(0.121461 -0.0184779 0)
(0.120585 -0.018189 0)
(0.119561 -0.01782 0)
(0.118398 -0.0173749 0)
(0.11711 -0.0168595 0)
(0.115709 -0.0162803 0)
(0.114211 -0.0156451 0)
(0.112631 -0.014962 0)
(0.110988 -0.0142398 0)
(0.109298 -0.0134873 0)
(0.107578 -0.0127131 0)
(0.105846 -0.0119258 0)
(0.104118 -0.0111331 0)
(0.102411 -0.0103425 0)
(0.100739 -0.0095605 0)
(0.0991147 -0.00879288 0)
(0.0975504 -0.00804451 0)
(0.0960565 -0.00731934 0)
(0.0946407 -0.00662066 0)
(0.0933113 -0.00595038 0)
(0.0920708 -0.00531079 0)
(0.0909272 -0.0047013 0)
(0.0898758 -0.00412473 0)
(0.0889278 -0.00357628 0)
(0.0880681 -0.00306319 0)
(0.0873145 -0.00257112 0)
(0.0866435 -0.00212117 0)
(0.078918 -0.00117731 0)
(0.0787302 -0.00130316 0)
(0.0792086 -0.00139222 0)
(0.0794485 -0.00149461 0)
(0.080002 -0.00156068 0)
(0.0804488 -0.00164034 0)
(0.0810411 -0.00169351 0)
(0.0815812 -0.00175034 0)
(0.0821926 -0.00179031 0)
(0.0827745 -0.00182948 0)
(0.0833923 -0.00185846 0)
(0.0839904 -0.00188546 0)
(0.0846057 -0.00190648 0)
(0.0852058 -0.00192567 0)
(0.0858127 -0.0019415 0)
(0.0864069 -0.00195608 0)
(0.0870018 -0.00196899 0)
(0.0875856 -0.00198132 0)
(0.0881668 -0.00199311 0)
(0.088738 -0.00200495 0)
(0.0893048 -0.00201705 0)
(0.0898628 -0.00202975 0)
(0.0904158 -0.00204334 0)
(0.090961 -0.002058 0)
(0.0915012 -0.00207403 0)
(0.0920347 -0.00209155 0)
(0.0925637 -0.00211089 0)
(0.0930871 -0.00213209 0)
(0.0936066 -0.00215552 0)
(0.0941219 -0.00218114 0)
(0.0946341 -0.00220943 0)
(0.0951435 -0.00224025 0)
(0.0956507 -0.00227418 0)
(0.0961568 -0.00231099 0)
(0.0966609 -0.00235141 0)
(0.0971669 -0.0023951 0)
(0.0976697 -0.00244289 0)
(0.0981797 -0.00249454 0)
(0.0986815 -0.00255059 0)
(0.0992024 -0.00261155 0)
(0.0996997 -0.00267665 0)
(0.100244 -0.00274886 0)
(0.100724 -0.00282326 0)
(0.101321 -0.00291004 0)
(0.101747 -0.00299177 0)
(0.102348 -0.00309454 0)
(0.102907 -0.00319691 0)
(0.10346 -0.00330852 0)
(0.104031 -0.00342747 0)
(0.104608 -0.00355626 0)
(0.105198 -0.00369387 0)
(0.105799 -0.0038421 0)
(0.106413 -0.00400064 0)
(0.107039 -0.00417085 0)
(0.107681 -0.00435285 0)
(0.108336 -0.00454773 0)
(0.109006 -0.00475589 0)
(0.109691 -0.00497826 0)
(0.110391 -0.00521537 0)
(0.111107 -0.00546806 0)
(0.111839 -0.0057369 0)
(0.112585 -0.00602264 0)
(0.113345 -0.0063258 0)
(0.114119 -0.00664701 0)
(0.114905 -0.00698668 0)
(0.115702 -0.00734523 0)
(0.116507 -0.00772289 0)
(0.117319 -0.00811977 0)
(0.118134 -0.0085358 0)
(0.118948 -0.00897068 0)
(0.119759 -0.00942388 0)
(0.12056 -0.0098946 0)
(0.121347 -0.0103817 0)
(0.122114 -0.0108836 0)
(0.122854 -0.0113985 0)
(0.123559 -0.011924 0)
(0.124222 -0.0124574 0)
(0.124833 -0.0129952 0)
(0.125384 -0.0135338 0)
(0.125864 -0.0140686 0)
(0.126263 -0.014595 0)
(0.12657 -0.0151074 0)
(0.126776 -0.0156001 0)
(0.126868 -0.0160669 0)
(0.126836 -0.0165012 0)
(0.126671 -0.0168963 0)
(0.126363 -0.0172455 0)
(0.125904 -0.0175422 0)
(0.125286 -0.0177801 0)
(0.124505 -0.0179533 0)
(0.123555 -0.0180567 0)
(0.122436 -0.0180863 0)
(0.121148 -0.0180388 0)
(0.119693 -0.0179125 0)
(0.118076 -0.0177068 0)
(0.116303 -0.0174225 0)
(0.114385 -0.017062 0)
(0.112333 -0.0166288 0)
(0.110161 -0.016128 0)
(0.107885 -0.0155654 0)
(0.105522 -0.0149481 0)
(0.10309 -0.014284 0)
(0.10061 -0.0135815 0)
(0.0981021 -0.0128494 0)
(0.0955863 -0.0120968 0)
(0.0930835 -0.0113324 0)
(0.0906131 -0.0105649 0)
(0.088194 -0.00980192 0)
(0.0858432 -0.00905065 0)
(0.0835763 -0.00831718 0)
(0.0814069 -0.0076065 0)
(0.0793468 -0.00692267 0)
(0.0774051 -0.00626861 0)
(0.0755897 -0.00564632 0)
(0.0739051 -0.00505705 0)
(0.072356 -0.00450086 0)
(0.0709418 -0.00397818 0)
(0.0696653 -0.00348698 0)
(0.068521 -0.00302828 0)
(0.0675108 -0.00259699 0)
(0.0666251 -0.0021969 0)
(0.0658651 -0.00181859 0)
(0.0652215 -0.00146789 0)
(0.113676 -0.00165222 0)
(0.113782 -0.00175658 0)
(0.114012 -0.00194593 0)
(0.114171 -0.00199481 0)
(0.114441 -0.00207499 0)
(0.114651 -0.00211069 0)
(0.114931 -0.00215629 0)
(0.115171 -0.00218528 0)
(0.115453 -0.00221618 0)
(0.11571 -0.00223887 0)
(0.115991 -0.00226098 0)
(0.116256 -0.00227802 0)
(0.116535 -0.00229405 0)
(0.116802 -0.00230671 0)
(0.117075 -0.00231865 0)
(0.11734 -0.00232847 0)
(0.117608 -0.00233807 0)
(0.117868 -0.00234657 0)
(0.118129 -0.0023554 0)
(0.118383 -0.00236401 0)
(0.118637 -0.00237346 0)
(0.118885 -0.00238342 0)
(0.119131 -0.00239471 0)
(0.119373 -0.0024071 0)
(0.119613 -0.00242128 0)
(0.119849 -0.00243708 0)
(0.120083 -0.00245509 0)
(0.120314 -0.00247516 0)
(0.120544 -0.00249788 0)
(0.120771 -0.00252304 0)
(0.120997 -0.00255132 0)
(0.121221 -0.00258238 0)
(0.121445 -0.00261711 0)
(0.121668 -0.00265487 0)
(0.121892 -0.00269702 0)
(0.122113 -0.00274231 0)
(0.122338 -0.00279301 0)
(0.122559 -0.00284667 0)
(0.122788 -0.00290726 0)
(0.123009 -0.00297007 0)
(0.123244 -0.00304233 0)
(0.123466 -0.00311485 0)
(0.123707 -0.00320105 0)
(0.123934 -0.00328388 0)
(0.124177 -0.0033854 0)
(0.124418 -0.00348333 0)
(0.124663 -0.00359571 0)
(0.124911 -0.00371365 0)
(0.125164 -0.00384168 0)
(0.12542 -0.00397851 0)
(0.125681 -0.00412537 0)
(0.125945 -0.00428261 0)
(0.126215 -0.00445075 0)
(0.126487 -0.0046305 0)
(0.126764 -0.00482228 0)
(0.127043 -0.00502682 0)
(0.127326 -0.00524455 0)
(0.12761 -0.00547615 0)
(0.127896 -0.00572206 0)
(0.128183 -0.00598286 0)
(0.128468 -0.00625894 0)
(0.12875 -0.00655074 0)
(0.129028 -0.00685855 0)
(0.129299 -0.00718262 0)
(0.129562 -0.00752303 0)
(0.129812 -0.0078798 0)
(0.130047 -0.00825271 0)
(0.130263 -0.0086414 0)
(0.130456 -0.00904529 0)
(0.130621 -0.00946354 0)
(0.130752 -0.00989504 0)
(0.130845 -0.0103384 0)
(0.130892 -0.0107918 0)
(0.130886 -0.0112532 0)
(0.130821 -0.01172 0)
(0.130688 -0.0121892 0)
(0.130478 -0.0126577 0)
(0.130184 -0.0131214 0)
(0.129796 -0.0135761 0)
(0.129304 -0.0140172 0)
(0.128699 -0.0144396 0)
(0.127972 -0.0148378 0)
(0.127115 -0.0152062 0)
(0.126118 -0.0155389 0)
(0.124973 -0.01583 0)
(0.123675 -0.0160738 0)
(0.122218 -0.0162645 0)
(0.120596 -0.0163971 0)
(0.118809 -0.0164669 0)
(0.116854 -0.0164699 0)
(0.114734 -0.0164032 0)
(0.112452 -0.0162647 0)
(0.110014 -0.0160535 0)
(0.107428 -0.0157698 0)
(0.104706 -0.0154153 0)
(0.10186 -0.014993 0)
(0.0989069 -0.0145074 0)
(0.095864 -0.0139641 0)
(0.0927515 -0.01337 0)
(0.0895906 -0.0127333 0)
(0.086404 -0.0120624 0)
(0.0832149 -0.0113666 0)
(0.0800467 -0.0106551 0)
(0.0769224 -0.00993686 0)
(0.0738643 -0.00922046 0)
(0.0708935 -0.00851368 0)
(0.0680294 -0.00782341 0)
(0.0652895 -0.00715559 0)
(0.062689 -0.00651502 0)
(0.0602404 -0.00590554 0)
(0.0579533 -0.00532979 0)
(0.0558347 -0.00478952 0)
(0.053888 -0.00428541 0)
(0.0521151 -0.00381732 0)
(0.0505137 -0.00338444 0)
(0.0490818 -0.00298498 0)
(0.047812 -0.00261749 0)
(0.0467005 -0.00227866 0)
(0.0457363 -0.00196771 0)
(0.0449152 -0.00167923 0)
(0.0442243 -0.00141514 0)
(0.0436587 -0.00116644 0)
(0.043208 -0.000939908 0)
(0.13712 -0.0015507 0)
(0.137107 -0.00168014 0)
(0.137153 -0.00184405 0)
(0.137139 -0.00193923 0)
(0.137204 -0.00205306 0)
(0.137224 -0.00212726 0)
(0.137298 -0.00220707 0)
(0.137342 -0.00226236 0)
(0.137417 -0.00231725 0)
(0.137472 -0.00235595 0)
(0.137544 -0.0023924 0)
(0.137601 -0.00241791 0)
(0.137666 -0.00244119 0)
(0.13772 -0.0024572 0)
(0.137777 -0.00247164 0)
(0.137825 -0.00248149 0)
(0.137872 -0.00249062 0)
(0.137912 -0.00249715 0)
(0.13795 -0.00250375 0)
(0.137982 -0.00250927 0)
(0.138011 -0.00251557 0)
(0.138034 -0.00252193 0)
(0.138053 -0.00252967 0)
(0.138068 -0.00253836 0)
(0.138079 -0.00254896 0)
(0.138086 -0.00256121 0)
(0.13809 -0.00257581 0)
(0.138089 -0.00259265 0)
(0.138085 -0.00261228 0)
(0.138078 -0.00263464 0)
(0.138067 -0.00266019 0)
(0.138054 -0.00268897 0)
(0.138037 -0.00272132 0)
(0.138017 -0.00275742 0)
(0.137995 -0.00279745 0)
(0.13797 -0.00284186 0)
(0.137941 -0.00289046 0)
(0.137911 -0.00294428 0)
(0.137877 -0.00300236 0)
(0.137841 -0.0030669 0)
(0.137802 -0.00313541 0)
(0.137761 -0.00321211 0)
(0.137716 -0.00329219 0)
(0.137667 -0.00338234 0)
(0.137619 -0.00347586 0)
(0.137562 -0.00357953 0)
(0.137506 -0.00369056 0)
(0.137442 -0.00380927 0)
(0.137376 -0.00393706 0)
(0.137303 -0.00407357 0)
(0.137226 -0.0042199 0)
(0.137142 -0.00437609 0)
(0.137051 -0.00454288 0)
(0.136951 -0.00472056 0)
(0.136843 -0.00490967 0)
(0.136724 -0.00511058 0)
(0.136594 -0.00532374 0)
(0.13645 -0.00554949 0)
(0.136291 -0.00578816 0)
(0.136115 -0.00604001 0)
(0.13592 -0.00630523 0)
(0.135702 -0.00658395 0)
(0.13546 -0.00687614 0)
(0.13519 -0.00718171 0)
(0.134888 -0.00750038 0)
(0.134552 -0.00783172 0)
(0.134175 -0.00817513 0)
(0.133755 -0.00852978 0)
(0.133286 -0.0088946 0)
(0.132762 -0.00926826 0)
(0.132177 -0.00964916 0)
(0.131526 -0.0100354 0)
(0.130802 -0.0104247 0)
(0.129998 -0.0108144 0)
(0.129106 -0.0112017 0)
(0.128118 -0.0115833 0)
(0.127028 -0.0119554 0)
(0.125828 -0.0123142 0)
(0.124508 -0.0126553 0)
(0.123063 -0.0129741 0)
(0.121485 -0.0132658 0)
(0.119767 -0.0135256 0)
(0.117903 -0.0137482 0)
(0.115888 -0.0139287 0)
(0.113719 -0.0140622 0)
(0.111392 -0.0141441 0)
(0.108907 -0.0141701 0)
(0.106264 -0.0141367 0)
(0.103467 -0.014041 0)
(0.100522 -0.0138812 0)
(0.0974362 -0.0136566 0)
(0.0942199 -0.0133675 0)
(0.0908866 -0.013016 0)
(0.0874518 -0.012605 0)
(0.0839337 -0.0121392 0)
(0.0803524 -0.0116243 0)
(0.0767303 -0.0110671 0)
(0.0730912 -0.0104752 0)
(0.0694603 -0.0098567 0)
(0.0658637 -0.00922023 0)
(0.0623277 -0.00857447 0)
(0.0588786 -0.00792805 0)
(0.0555417 -0.00728936 0)
(0.0523404 -0.00666633 0)
(0.0492959 -0.00606617 0)
(0.0464258 -0.00549511 0)
(0.0437442 -0.00495808 0)
(0.0412606 -0.00445869 0)
(0.03898 -0.00399891 0)
(0.0369035 -0.00357934 0)
(0.0350278 -0.00319916 0)
(0.033347 -0.00285648 0)
(0.0318519 -0.00254859 0)
(0.0305329 -0.00227216 0)
(0.0293773 -0.00202386 0)
(0.0283752 -0.00179978 0)
(0.0275124 -0.0015972 0)
(0.0267806 -0.001412 0)
(0.0261657 -0.00124295 0)
(0.0256619 -0.00108549 0)
(0.0252558 -0.000940332 0)
(0.0249433 -0.000802551 0)
(0.0247143 -0.000673688 0)
(0.148385 -0.00159676 0)
(0.14833 -0.001743 0)
(0.14823 -0.00192679 0)
(0.148137 -0.00202317 0)
(0.148047 -0.00213821 0)
(0.147943 -0.00219964 0)
(0.147849 -0.00226985 0)
(0.147738 -0.00230816 0)
(0.147634 -0.00235007 0)
(0.147515 -0.00237252 0)
(0.1474 -0.0023962 0)
(0.147272 -0.00240774 0)
(0.147144 -0.00241967 0)
(0.147007 -0.00242406 0)
(0.146868 -0.00242879 0)
(0.146721 -0.00242905 0)
(0.146571 -0.00242993 0)
(0.146414 -0.00242848 0)
(0.146254 -0.00242807 0)
(0.146088 -0.00242687 0)
(0.145917 -0.00242714 0)
(0.145742 -0.00242774 0)
(0.145561 -0.00243023 0)
(0.145376 -0.00243389 0)
(0.145187 -0.00243981 0)
(0.144992 -0.00244754 0)
(0.144793 -0.0024579 0)
(0.14459 -0.00247057 0)
(0.144381 -0.00248624 0)
(0.144168 -0.00250462 0)
(0.143949 -0.00252638 0)
(0.143726 -0.0025512 0)
(0.143497 -0.00257986 0)
(0.143263 -0.00261184 0)
(0.143023 -0.00264823 0)
(0.142777 -0.0026881 0)
(0.142526 -0.00273314 0)
(0.142267 -0.00278167 0)
(0.142002 -0.0028364 0)
(0.14173 -0.00289443 0)
(0.14145 -0.00296001 0)
(0.141162 -0.00302844 0)
(0.140865 -0.00310606 0)
(0.140559 -0.00318619 0)
(0.140243 -0.00327653 0)
(0.139916 -0.00337066 0)
(0.139578 -0.00347401 0)
(0.139226 -0.00358346 0)
(0.138863 -0.00370182 0)
(0.138483 -0.00382768 0)
(0.138089 -0.00396263 0)
(0.137676 -0.00410612 0)
(0.137246 -0.00425911 0)
(0.136795 -0.00442145 0)
(0.136322 -0.00459375 0)
(0.135825 -0.00477603 0)
(0.135301 -0.00496867 0)
(0.13475 -0.00517171 0)
(0.134167 -0.00538534 0)
(0.13355 -0.00560951 0)
(0.132896 -0.00584422 0)
(0.132202 -0.00608924 0)
(0.131465 -0.00634433 0)
(0.13068 -0.00660903 0)
(0.129843 -0.00688278 0)
(0.12895 -0.00716481 0)
(0.127997 -0.00745417 0)
(0.126978 -0.0077497 0)
(0.125888 -0.00804998 0)
(0.124722 -0.00835337 0)
(0.123474 -0.00865794 0)
(0.122137 -0.00896149 0)
(0.120707 -0.0092615 0)
(0.119175 -0.00955519 0)
(0.117538 -0.00983948 0)
(0.115787 -0.010111 0)
(0.113917 -0.0103661 0)
(0.111923 -0.0106009 0)
(0.109799 -0.0108113 0)
(0.10754 -0.0109933 0)
(0.105143 -0.0111426 0)
(0.102605 -0.0112549 0)
(0.0999238 -0.0113263 0)
(0.0971005 -0.0113531 0)
(0.0941363 -0.0113318 0)
(0.0910349 -0.0112599 0)
(0.0878019 -0.0111352 0)
(0.0844456 -0.0109568 0)
(0.0809762 -0.0107243 0)
(0.077407 -0.0104386 0)
(0.0737536 -0.0101016 0)
(0.0700343 -0.0097164 0)
(0.06627 -0.00928693 0)
(0.0624844 -0.00881834 0)
(0.058703 -0.00831682 0)
(0.0549538 -0.00778961 0)
(0.0512657 -0.00724489 0)
(0.0476686 -0.00669158 0)
(0.0441919 -0.00613907 0)
(0.0408632 -0.00559676 0)
(0.0377072 -0.00507359 0)
(0.034744 -0.00457749 0)
(0.0319887 -0.0041149 0)
(0.0294501 -0.00369041 0)
(0.0271313 -0.00330649 0)
(0.0250294 -0.00296358 0)
(0.0231372 -0.00266022 0)
(0.0214438 -0.00239356 0)
(0.0199355 -0.00215973 0)
(0.0185979 -0.00195455 0)
(0.0174158 -0.00177378 0)
(0.0163751 -0.00161353 0)
(0.0154616 -0.00147051 0)
(0.0146638 -0.00134176 0)
(0.0139697 -0.00122527 0)
(0.0133708 -0.00111877 0)
(0.012857 -0.00102143 0)
(0.0124228 -0.000930972 0)
(0.0120595 -0.000847734 0)
(0.0117638 -0.000768817 0)
(0.0115286 -0.000695855 0)
(0.0113511 -0.000624931 0)
(0.0112267 -0.000558917 0)
(0.147835 -0.00142781 0)
(0.147684 -0.00155461 0)
(0.147457 -0.00169126 0)
(0.147244 -0.00177942 0)
(0.147 -0.00187947 0)
(0.146754 -0.0019407 0)
(0.146494 -0.00200952 0)
(0.146227 -0.00205052 0)
(0.145952 -0.00209496 0)
(0.145669 -0.00212018 0)
(0.145379 -0.00214642 0)
(0.145082 -0.00215968 0)
(0.144779 -0.00217298 0)
(0.144468 -0.00217777 0)
(0.144152 -0.00218246 0)
(0.14383 -0.00218185 0)
(0.143502 -0.00218144 0)
(0.143168 -0.00217807 0)
(0.142829 -0.00217533 0)
(0.142485 -0.00217132 0)
(0.142136 -0.00216843 0)
(0.141782 -0.0021655 0)
(0.141423 -0.00216414 0)
(0.141058 -0.00216364 0)
(0.140689 -0.00216511 0)
(0.140314 -0.00216814 0)
(0.139934 -0.00217348 0)
(0.139549 -0.00218092 0)
(0.139157 -0.002191 0)
(0.13876 -0.00220362 0)
(0.138356 -0.00221919 0)
(0.137946 -0.00223769 0)
(0.137528 -0.00225943 0)
(0.137104 -0.00228451 0)
(0.136671 -0.00231308 0)
(0.13623 -0.00234545 0)
(0.135779 -0.00238155 0)
(0.135319 -0.00242197 0)
(0.134849 -0.00246631 0)
(0.134368 -0.0025156 0)
(0.133874 -0.00256897 0)
(0.133368 -0.00262794 0)
(0.132849 -0.0026913 0)
(0.132314 -0.00276065 0)
(0.131764 -0.00283525 0)
(0.131196 -0.00291559 0)
(0.130612 -0.00300264 0)
(0.130006 -0.00309528 0)
(0.12938 -0.00319516 0)
(0.12873 -0.00330119 0)
(0.128057 -0.00341472 0)
(0.127356 -0.00353505 0)
(0.126627 -0.00366307 0)
(0.125868 -0.00379838 0)
(0.125075 -0.00394153 0)
(0.124247 -0.00409227 0)
(0.123381 -0.00425085 0)
(0.122474 -0.00441706 0)
(0.121523 -0.00459092 0)
(0.120524 -0.00477212 0)
(0.119475 -0.00496045 0)
(0.118371 -0.00515542 0)
(0.117209 -0.00535655 0)
(0.115985 -0.00556313 0)
(0.114694 -0.00577433 0)
(0.113333 -0.00598913 0)
(0.111896 -0.00620634 0)
(0.110379 -0.00642456 0)
(0.108778 -0.00664217 0)
(0.107087 -0.00685733 0)
(0.105302 -0.00706798 0)
(0.103418 -0.00727182 0)
(0.10143 -0.00746635 0)
(0.0993346 -0.00764884 0)
(0.0971275 -0.00781641 0)
(0.0948053 -0.007966 0)
(0.0923652 -0.00809449 0)
(0.0898051 -0.00819867 0)
(0.087124 -0.00827537 0)
(0.0843221 -0.0083215 0)
(0.0814008 -0.00833413 0)
(0.0783633 -0.00831056 0)
(0.0752144 -0.00824845 0)
(0.0719609 -0.00814588 0)
(0.068612 -0.0080015 0)
(0.065179 -0.00781462 0)
(0.0616762 -0.00758538 0)
(0.0581204 -0.0073149 0)
(0.0545314 -0.00700538 0)
(0.0509318 -0.00666026 0)
(0.0473471 -0.00628424 0)
(0.0438049 -0.00588333 0)
(0.0403341 -0.0054647 0)
(0.0369644 -0.00503656 0)
(0.0337244 -0.00460775 0)
(0.0306401 -0.00418729 0)
(0.0277339 -0.00378379 0)
(0.0250228 -0.0034047 0)
(0.0225176 -0.00305576 0)
(0.020223 -0.00274047 0)
(0.0181369 -0.00245998 0)
(0.016252 -0.00221328 0)
(0.0145569 -0.00199765 0)
(0.0130373 -0.00180936 0)
(0.0116779 -0.0016443 0)
(0.0104634 -0.00149868 0)
(0.00937876 -0.00136925 0)
(0.0084107 -0.00125361 0)
(0.00754656 -0.00115001 0)
(0.00677557 -0.00105732 0)
(0.0060876 -0.00097478 0)
(0.00547464 -0.000901688 0)
(0.00492883 -0.000837463 0)
(0.00444465 -0.000781141 0)
(0.00401586 -0.000732063 0)
(0.00363891 -0.000688779 0)
(0.00330847 -0.000650822 0)
(0.00302243 -0.000616343 0)
(0.00277608 -0.000585452 0)
(0.00256825 -0.000556025 0)
(0.00239499 -0.000528823 0)
(0.00225544 -0.000501754 0)
(0.00214701 -0.000475685 0)
(0.135263 -0.00122236 0)
(0.135021 -0.00134133 0)
(0.134678 -0.00146279 0)
(0.134366 -0.00154566 0)
(0.133992 -0.00163098 0)
(0.13363 -0.00168166 0)
(0.133229 -0.00173408 0)
(0.13283 -0.00176064 0)
(0.132405 -0.00178814 0)
(0.131978 -0.0017979 0)
(0.131533 -0.00180815 0)
(0.131083 -0.00180687 0)
(0.130621 -0.001806 0)
(0.130154 -0.00179802 0)
(0.129678 -0.00179065 0)
(0.129197 -0.00177923 0)
(0.12871 -0.00176874 0)
(0.128218 -0.0017563 0)
(0.12772 -0.00174513 0)
(0.127219 -0.00173345 0)
(0.126713 -0.00172335 0)
(0.126202 -0.00171373 0)
(0.125687 -0.00170595 0)
(0.125169 -0.00169933 0)
(0.124645 -0.00169479 0)
(0.124117 -0.00169187 0)
(0.123583 -0.00169124 0)
(0.123045 -0.00169258 0)
(0.122501 -0.00169639 0)
(0.121951 -0.00170243 0)
(0.121395 -0.00171115 0)
(0.120832 -0.00172228 0)
(0.120261 -0.00173635 0)
(0.119682 -0.00175297 0)
(0.119094 -0.00177283 0)
(0.118496 -0.00179534 0)
(0.117888 -0.00182147 0)
(0.117269 -0.00185027 0)
(0.116637 -0.00188321 0)
(0.115993 -0.00191875 0)
(0.115334 -0.00195904 0)
(0.11466 -0.00200186 0)
(0.113968 -0.00204999 0)
(0.113259 -0.00210077 0)
(0.112531 -0.00215711 0)
(0.111782 -0.00221665 0)
(0.11101 -0.00228163 0)
(0.110214 -0.00235037 0)
(0.109392 -0.00242457 0)
(0.108541 -0.002503 0)
(0.107661 -0.00258686 0)
(0.106749 -0.00267531 0)
(0.105802 -0.0027691 0)
(0.104818 -0.00286767 0)
(0.103794 -0.00297142 0)
(0.102729 -0.00307992 0)
(0.101618 -0.00319328 0)
(0.100459 -0.0033111 0)
(0.0992494 -0.00343326 0)
(0.0979852 -0.00355926 0)
(0.0966636 -0.00368875 0)
(0.0952808 -0.00382109 0)
(0.0938338 -0.00395566 0)
(0.0923187 -0.00409164 0)
(0.0907322 -0.00422812 0)
(0.0890708 -0.004364 0)
(0.0873311 -0.0044981 0)
(0.0855097 -0.00462901 0)
(0.0836036 -0.00475523 0)
(0.0816099 -0.00487505 0)
(0.0795262 -0.00498664 0)
(0.0773504 -0.00508801 0)
(0.075081 -0.00517708 0)
(0.0727172 -0.00525163 0)
(0.070259 -0.0053094 0)
(0.0677074 -0.00534812 0)
(0.0650646 -0.00536554 0)
(0.062334 -0.00535954 0)
(0.0595207 -0.00532818 0)
(0.0566316 -0.00526978 0)
(0.0536755 -0.00518306 0)
(0.0506634 -0.00506723 0)
(0.0476087 -0.00492209 0)
(0.0445272 -0.00474823 0)
(0.0414371 -0.00454708 0)
(0.0383588 -0.00432109 0)
(0.0353146 -0.0040738 0)
(0.032328 -0.00380982 0)
(0.029423 -0.00353471 0)
(0.0266231 -0.00325476 0)
(0.0239499 -0.00297655 0)
(0.0214223 -0.0027065 0)
(0.0190546 -0.00245025 0)
(0.0168565 -0.00221221 0)
(0.0148319 -0.00199515 0)
(0.0129796 -0.00180006 0)
(0.0112944 -0.00162627 0)
(0.00976765 -0.0014718 0)
(0.00838922 -0.00133386 0)
(0.00714769 -0.00120944 0)
(0.00603101 -0.00109588 0)
(0.00502693 -0.000991442 0)
(0.00412332 -0.000895521 0)
(0.00330895 -0.000808539 0)
(0.00257372 -0.000731407 0)
(0.00190916 -0.000664931 0)
(0.00130795 -0.000609253 0)
(0.000764105 -0.000563756 0)
(0.000271955 -0.00052719 0)
(-0.000173249 -0.000498025 0)
(-0.000576541 -0.000474801 0)
(-0.000941925 -0.000456181 0)
(-0.00127396 -0.00044126 0)
(-0.00157572 -0.000429072 0)
(-0.00185108 -0.00041926 0)
(-0.00210203 -0.000410918 0)
(-0.00233165 -0.000404149 0)
(-0.00254094 -0.000397853 0)
(-0.00273221 -0.000392634 0)
(-0.00290589 -0.000387067 0)
(-0.00306341 -0.00038225 0)
(-0.0032052 -0.000376484 0)
(-0.00333165 -0.000371112 0)
(0.110778 -0.000898243 0)
(0.110452 -0.00098156 0)
(0.11001 -0.00105337 0)
(0.1096 -0.00110697 0)
(0.109109 -0.00115733 0)
(0.108636 -0.00118811 0)
(0.108108 -0.00121876 0)
(0.10759 -0.00123334 0)
(0.107034 -0.00124835 0)
(0.106483 -0.0012516 0)
(0.105907 -0.00125513 0)
(0.105333 -0.00125063 0)
(0.104743 -0.0012463 0)
(0.104153 -0.00123683 0)
(0.103553 -0.00122764 0)
(0.102954 -0.00121542 0)
(0.102347 -0.0012037 0)
(0.101742 -0.00119049 0)
(0.101131 -0.00117807 0)
(0.100521 -0.00116524 0)
(0.0999086 -0.00115348 0)
(0.0992958 -0.00114206 0)
(0.0986808 -0.00113195 0)
(0.0980653 -0.00112271 0)
(0.0974477 -0.00111498 0)
(0.096829 -0.0011085 0)
(0.0962078 -0.00110369 0)
(0.0955845 -0.00110039 0)
(0.0949581 -0.00109888 0)
(0.0943284 -0.0010991 0)
(0.0936945 -0.00110122 0)
(0.0930561 -0.00110523 0)
(0.092412 -0.00111123 0)
(0.0917618 -0.00111929 0)
(0.0911043 -0.00112941 0)
(0.090439 -0.00114177 0)
(0.0897645 -0.00115624 0)
(0.08908 -0.00117314 0)
(0.0883843 -0.00119219 0)
(0.0876764 -0.00121387 0)
(0.0869547 -0.00123777 0)
(0.0862183 -0.00126443 0)
(0.0854655 -0.0012935 0)
(0.0846949 -0.00132527 0)
(0.0839051 -0.00135983 0)
(0.0830943 -0.00139685 0)
(0.0822609 -0.00143708 0)
(0.081403 -0.00147965 0)
(0.080519 -0.00152549 0)
(0.0796064 -0.00157371 0)
(0.0786639 -0.00162507 0)
(0.0776887 -0.00167884 0)
(0.0766791 -0.00173553 0)
(0.0756324 -0.00179455 0)
(0.0745467 -0.00185613 0)
(0.0734192 -0.00191978 0)
(0.0722479 -0.0019855 0)
(0.07103 -0.00205281 0)
(0.0697633 -0.0021215 0)
(0.0684452 -0.00219103 0)
(0.0670735 -0.00226101 0)
(0.0656457 -0.00233078 0)
(0.0641597 -0.00239975 0)
(0.0626135 -0.00246713 0)
(0.0610054 -0.00253212 0)
(0.0593337 -0.00259377 0)
(0.0575976 -0.00265109 0)
(0.0557961 -0.00270297 0)
(0.0539294 -0.00274825 0)
(0.0519977 -0.00278568 0)
(0.0500024 -0.00281399 0)
(0.0479457 -0.00283188 0)
(0.0458307 -0.00283809 0)
(0.0436615 -0.00283142 0)
(0.0414439 -0.00281082 0)
(0.0391845 -0.0027754 0)
(0.0368918 -0.0027246 0)
(0.0345756 -0.00265817 0)
(0.0322472 -0.00257634 0)
(0.0299196 -0.00247981 0)
(0.027607 -0.00236984 0)
(0.0253245 -0.00224824 0)
(0.0230879 -0.00211735 0)
(0.020913 -0.00197997 0)
(0.018815 -0.00183918 0)
(0.0168074 -0.00169821 0)
(0.0149016 -0.00156017 0)
(0.0131064 -0.0014278 0)
(0.0114276 -0.00130325 0)
(0.00986816 -0.00118781 0)
(0.00842879 -0.00108176 0)
(0.00710788 -0.000984298 0)
(0.00590191 -0.000893736 0)
(0.00480553 -0.000807996 0)
(0.00381177 -0.000725414 0)
(0.00291254 -0.000645543 0)
(0.00209925 -0.000569478 0)
(0.00136359 -0.000499438 0)
(0.000698002 -0.000437743 0)
(9.60124e-05 -0.000385807 0)
(-0.00044799 -0.000343647 0)
(-0.000938929 -0.000310152 0)
(-0.00138156 -0.00028371 0)
(-0.00178055 -0.000262842 0)
(-0.00214088 -0.000246437 0)
(-0.00246741 -0.000233724 0)
(-0.0027651 -0.000224064 0)
(-0.00303825 -0.000216863 0)
(-0.00329096 -0.000211572 0)
(-0.00352622 -0.00020775 0)
(-0.00374699 -0.000205176 0)
(-0.00395506 -0.000203699 0)
(-0.00415262 -0.000203411 0)
(-0.00434065 -0.000204174 0)
(-0.00452092 -0.000206144 0)
(-0.00469383 -0.000208918 0)
(-0.00486082 -0.000212674 0)
(-0.0050219 -0.000216715 0)
(-0.00517814 -0.000221357 0)
(-0.00532935 -0.000225736 0)
(-0.0054761 -0.000230312 0)
(-0.0056183 -0.000234281 0)
(-0.00575585 -0.000238029 0)
(0.0744524 -0.000509144 0)
(0.0740791 -0.00056306 0)
(0.0735723 -0.000602591 0)
(0.0731134 -0.000635379 0)
(0.072558 -0.000659094 0)
(0.0720354 -0.000672561 0)
(0.0714474 -0.000680625 0)
(0.0708822 -0.000679625 0)
(0.0702748 -0.000675663 0)
(0.0696845 -0.000665293 0)
(0.0690688 -0.000653591 0)
(0.0684667 -0.000638047 0)
(0.0678509 -0.000622273 0)
(0.0672469 -0.000604634 0)
(0.066637 -0.000587499 0)
(0.0660378 -0.000569857 0)
(0.0654375 -0.000553187 0)
(0.0648471 -0.000536869 0)
(0.0642585 -0.000521792 0)
(0.0636788 -0.000507572 0)
(0.0631024 -0.000494724 0)
(0.0625337 -0.000482997 0)
(0.0619688 -0.000472682 0)
(0.0614103 -0.000463603 0)
(0.0608552 -0.000455921 0)
(0.060305 -0.0004495 0)
(0.0597574 -0.000444435 0)
(0.0592129 -0.000440608 0)
(0.0586698 -0.000438089 0)
(0.0581281 -0.000436758 0)
(0.0575861 -0.000436701 0)
(0.0570436 -0.000437765 0)
(0.0564991 -0.000440091 0)
(0.055952 -0.000443456 0)
(0.0554009 -0.000448108 0)
(0.0548452 -0.000453696 0)
(0.0542833 -0.000460638 0)
(0.0537145 -0.000468387 0)
(0.0531373 -0.000477598 0)
(0.0525509 -0.000487463 0)
(0.0519535 -0.000498917 0)
(0.0513446 -0.000510881 0)
(0.050722 -0.000524511 0)
(0.0500853 -0.000538593 0)
(0.0494323 -0.000554269 0)
(0.0487623 -0.000570468 0)
(0.0480734 -0.000588067 0)
(0.0473644 -0.000606219 0)
(0.0466338 -0.000625604 0)
(0.04588 -0.00064552 0)
(0.0451018 -0.000666455 0)
(0.0442973 -0.000687835 0)
(0.0434655 -0.000709956 0)
(0.0426045 -0.000732346 0)
(0.0417134 -0.000755129 0)
(0.0407904 -0.000777895 0)
(0.0398348 -0.000800623 0)
(0.038845 -0.000822926 0)
(0.0378204 -0.000844663 0)
(0.03676 -0.000865441 0)
(0.0356635 -0.00088502 0)
(0.0345304 -0.000902987 0)
(0.033361 -0.000919026 0)
(0.0321554 -0.000932703 0)
(0.0309148 -0.000943653 0)
(0.0296404 -0.000951444 0)
(0.0283341 -0.000955704 0)
(0.0269984 -0.000956036 0)
(0.0256365 -0.000952117 0)
(0.0242522 -0.000943649 0)
(0.0228501 -0.000930431 0)
(0.0214354 -0.000912342 0)
(0.0200142 -0.000889396 0)
(0.0185928 -0.000861735 0)
(0.0171785 -0.000829681 0)
(0.0157786 -0.000793728 0)
(0.0144007 -0.000754563 0)
(0.0130523 -0.000713048 0)
(0.0117409 -0.00067019 0)
(0.0104732 -0.000627068 0)
(0.00925559 -0.000584727 0)
(0.00809364 -0.000544023 0)
(0.00699194 -0.000505458 0)
(0.00595411 -0.000469023 0)
(0.0049827 -0.000434138 0)
(0.0040791 -0.00039976 0)
(0.00324349 -0.000364705 0)
(0.00247493 -0.000328129 0)
(0.00177132 -0.000289979 0)
(0.00112964 -0.000251199 0)
(0.000546169 -0.000213524 0)
(1.68797e-05 -0.000178918 0)
(-0.00046216 -0.000148926 0)
(-0.00089442 -0.000124262 0)
(-0.0012828 -0.000104797 0)
(-0.00162984 -8.98978e-05 0)
(-0.00193819 -7.88102e-05 0)
(-0.00221109 -7.08509e-05 0)
(-0.00245257 -6.53362e-05 0)
(-0.00266713 -6.14578e-05 0)
(-0.00285926 -5.82919e-05 0)
(-0.00303283 -5.50336e-05 0)
(-0.00319105 -5.12682e-05 0)
(-0.00333635 -4.71197e-05 0)
(-0.00347088 -4.31335e-05 0)
(-0.00359639 -4.00059e-05 0)
(-0.00371478 -3.82912e-05 0)
(-0.00382748 -3.82318e-05 0)
(-0.00393608 -3.97738e-05 0)
(-0.00404152 -4.26245e-05 0)
(-0.00414502 -4.64625e-05 0)
(-0.0042471 -5.09005e-05 0)
(-0.00434882 -5.57401e-05 0)