/*--------------------------------*- C++ -*----------------------------------*\
| =========                 |                                                 |
| \\      /  F ield         | OpenFOAM: The Open Source CFD Toolbox           |
|  \\    /   O peration     | Version:  4.1                                   |
|   \\  /    A nd           | Web:      www.OpenFOAM.org                      |
|    \\/     M anipulation  |                                                 |
\*---------------------------------------------------------------------------*/
FoamFile
{
    version     2.0;
    format      ascii;
    class       volScalarField;
    location    "125";
    object      p;
}
// * * * * * * * * * * * * * * * * * * * * * * * * * * * * * * * * * * * * * //

dimensions      [1 -1 -2 0 0 0 0];

internalField   nonuniform List<scalar> 
3264
(
0.712762
0.71276
0.712756
0.712751
0.712745
0.712738
0.71273
0.712722
0.712713
0.712705
0.712697
0.712691
0.712687
0.712687
0.71269
0.712697
0.71271
0.712729
0.712755
0.712788
0.71283
0.712879
0.712938
0.713005
0.713081
0.713165
0.713257
0.713357
0.713462
0.713574
0.713689
0.713807
0.713926
0.714045
0.714163
0.714277
0.714387
0.714491
0.714587
0.714676
0.714757
0.714828
0.714889
0.714942
0.714985
0.71502
0.715048
0.715068
0.715083
0.715093
0.7151
0.715103
0.715105
0.715106
0.715107
0.715109
0.715112
0.715116
0.715123
0.715133
0.715146
0.715163
0.715183
0.715207
0.715235
0.715267
0.715301
0.715338
0.715376
0.715414
0.715452
0.715488
0.715521
0.715551
0.715576
0.715597
0.715613
0.715624
0.715631
0.715634
0.715634
0.71563
0.715625
0.715617
0.715608
0.715598
0.715587
0.715576
0.715564
0.715552
0.71554
0.715528
0.715516
0.715504
0.715492
0.71548
0.715468
0.715456
0.715444
0.715433
0.715421
0.715409
0.715398
0.715386
0.715375
0.715363
0.715352
0.715341
0.715329
0.715318
0.715306
0.715295
0.715284
0.715272
0.715261
0.715249
0.715238
0.715227
0.715215
0.715204
0.715192
0.715181
0.71517
0.715158
0.715147
0.715135
0.715124
0.715113
0.715101
0.71509
0.715078
0.715067
0.715056
0.715044
0.715033
0.715021
0.71501
0.714999
0.714987
0.714976
0.714964
0.714953
0.714942
0.71493
0.714919
0.714907
0.714896
0.714885
0.714873
0.714862
0.71485
0.714839
0.714828
0.714816
0.714805
0.714793
0.714782
0.714771
0.714759
0.714748
0.714736
0.714725
0.714714
0.714702
0.714691
0.714679
0.714668
0.714657
0.714645
0.714634
0.714622
0.714611
0.7146
0.714588
0.714577
0.714565
0.714554
0.714543
0.714531
0.71452
0.714508
0.714497
0.714486
0.714474
0.714463
0.714451
0.71444
0.714429
0.714417
0.714406
0.714394
0.714383
0.714372
0.71436
0.714349
0.714337
0.714326
0.714315
0.714303
0.714292
0.712764
0.712762
0.712759
0.712755
0.71275
0.712744
0.712737
0.712728
0.71272
0.712711
0.712704
0.712697
0.712693
0.712691
0.712693
0.712699
0.71271
0.712728
0.712752
0.712784
0.712824
0.712872
0.712929
0.712995
0.71307
0.713154
0.713245
0.713344
0.713449
0.71356
0.713675
0.713793
0.713912
0.714032
0.71415
0.714264
0.714375
0.714479
0.714577
0.714666
0.714748
0.71482
0.714882
0.714936
0.71498
0.715016
0.715044
0.715065
0.715081
0.715092
0.715099
0.715103
0.715105
0.715107
0.715108
0.715109
0.715112
0.715116
0.715123
0.715132
0.715144
0.71516
0.71518
0.715204
0.715232
0.715263
0.715297
0.715334
0.715373
0.715412
0.71545
0.715487
0.715521
0.715551
0.715577
0.715598
0.715614
0.715625
0.715632
0.715635
0.715635
0.715631
0.715625
0.715618
0.715609
0.715599
0.715588
0.715576
0.715564
0.715552
0.71554
0.715528
0.715516
0.715504
0.715492
0.71548
0.715468
0.715456
0.715444
0.715433
0.715421
0.715409
0.715398
0.715386
0.715375
0.715363
0.715352
0.715341
0.715329
0.715318
0.715306
0.715295
0.715284
0.715272
0.715261
0.715249
0.715238
0.715227
0.715215
0.715204
0.715192
0.715181
0.71517
0.715158
0.715147
0.715135
0.715124
0.715113
0.715101
0.71509
0.715078
0.715067
0.715056
0.715044
0.715033
0.715021
0.71501
0.714999
0.714987
0.714976
0.714964
0.714953
0.714942
0.71493
0.714919
0.714907
0.714896
0.714885
0.714873
0.714862
0.71485
0.714839
0.714828
0.714816
0.714805
0.714793
0.714782
0.714771
0.714759
0.714748
0.714736
0.714725
0.714714
0.714702
0.714691
0.714679
0.714668
0.714657
0.714645
0.714634
0.714622
0.714611
0.7146
0.714588
0.714577
0.714565
0.714554
0.714543
0.714531
0.71452
0.714508
0.714497
0.714486
0.714474
0.714463
0.714451
0.71444
0.714429
0.714417
0.714406
0.714394
0.714383
0.714372
0.71436
0.714349
0.714337
0.714326
0.714315
0.714303
0.714292
0.712769
0.712766
0.712762
0.712758
0.712753
0.712746
0.712737
0.712728
0.712719
0.712709
0.712701
0.712693
0.712687
0.712684
0.712685
0.71269
0.7127
0.712717
0.71274
0.712771
0.71281
0.712858
0.712914
0.71298
0.713055
0.713138
0.713229
0.713328
0.713433
0.713544
0.713659
0.713777
0.713896
0.714016
0.714134
0.714249
0.714359
0.714464
0.714562
0.714652
0.714734
0.714806
0.714869
0.714923
0.714968
0.715005
0.715034
0.715056
0.715073
0.715085
0.715092
0.715097
0.7151
0.715102
0.715103
0.715105
0.715108
0.715113
0.715119
0.715129
0.715142
0.715158
0.715178
0.715202
0.715229
0.715261
0.715296
0.715333
0.715372
0.715411
0.715451
0.715488
0.715523
0.715553
0.71558
0.715601
0.715617
0.715628
0.715635
0.715637
0.715636
0.715633
0.715627
0.715619
0.715609
0.715599
0.715588
0.715576
0.715564
0.715552
0.71554
0.715528
0.715516
0.715504
0.715491
0.71548
0.715468
0.715456
0.715444
0.715433
0.715421
0.715409
0.715398
0.715386
0.715375
0.715363
0.715352
0.715341
0.715329
0.715318
0.715306
0.715295
0.715284
0.715272
0.715261
0.715249
0.715238
0.715227
0.715215
0.715204
0.715192
0.715181
0.71517
0.715158
0.715147
0.715135
0.715124
0.715113
0.715101
0.71509
0.715078
0.715067
0.715056
0.715044
0.715033
0.715021
0.71501
0.714999
0.714987
0.714976
0.714964
0.714953
0.714942
0.71493
0.714919
0.714907
0.714896
0.714885
0.714873
0.714862
0.71485
0.714839
0.714828
0.714816
0.714805
0.714793
0.714782
0.714771
0.714759
0.714748
0.714736
0.714725
0.714714
0.714702
0.714691
0.714679
0.714668
0.714657
0.714645
0.714634
0.714622
0.714611
0.7146
0.714588
0.714577
0.714565
0.714554
0.714543
0.714531
0.71452
0.714508
0.714497
0.714486
0.714474
0.714463
0.714451
0.71444
0.714429
0.714417
0.714406
0.714394
0.714383
0.714372
0.71436
0.714349
0.714337
0.714326
0.714315
0.714303
0.714292
0.712766
0.712764
0.712761
0.712758
0.712752
0.712745
0.712737
0.712727
0.712717
0.712706
0.712696
0.712688
0.712681
0.712676
0.712676
0.71268
0.712689
0.712704
0.712726
0.712756
0.712794
0.712841
0.712897
0.712962
0.713036
0.713119
0.713209
0.713307
0.713412
0.713522
0.713636
0.713754
0.713872
0.71399
0.714107
0.714221
0.71433
0.714433
0.714529
0.714618
0.714697
0.714768
0.71483
0.714883
0.714927
0.714964
0.714993
0.715016
0.715035
0.715049
0.71506
0.715069
0.715077
0.715083
0.715089
0.715094
0.7151
0.715107
0.715115
0.715125
0.715139
0.715156
0.715176
0.715201
0.71523
0.715262
0.715297
0.715335
0.715374
0.715415
0.715454
0.715492
0.715527
0.715558
0.715584
0.715605
0.71562
0.715631
0.715637
0.715639
0.715638
0.715633
0.715627
0.715619
0.715609
0.715599
0.715587
0.715576
0.715564
0.715552
0.71554
0.715527
0.715515
0.715503
0.715491
0.715479
0.715468
0.715456
0.715444
0.715432
0.715421
0.715409
0.715398
0.715386
0.715375
0.715363
0.715352
0.715341
0.715329
0.715318
0.715306
0.715295
0.715284
0.715272
0.715261
0.715249
0.715238
0.715227
0.715215
0.715204
0.715192
0.715181
0.71517
0.715158
0.715147
0.715135
0.715124
0.715113
0.715101
0.71509
0.715078
0.715067
0.715056
0.715044
0.715033
0.715021
0.71501
0.714999
0.714987
0.714976
0.714964
0.714953
0.714942
0.71493
0.714919
0.714907
0.714896
0.714885
0.714873
0.714862
0.71485
0.714839
0.714828
0.714816
0.714805
0.714793
0.714782
0.714771
0.714759
0.714748
0.714736
0.714725
0.714714
0.714702
0.714691
0.714679
0.714668
0.714657
0.714645
0.714634
0.714622
0.714611
0.7146
0.714588
0.714577
0.714565
0.714554
0.714543
0.714531
0.71452
0.714508
0.714497
0.714486
0.714474
0.714463
0.714451
0.71444
0.714429
0.714417
0.714406
0.714394
0.714383
0.714372
0.71436
0.714349
0.714337
0.714326
0.714315
0.714303
0.714292
0.712765
0.712764
0.71276
0.712757
0.71275
0.712742
0.712733
0.712723
0.712712
0.712702
0.712691
0.712682
0.712674
0.712669
0.712668
0.712671
0.712679
0.712694
0.712716
0.712745
0.712783
0.712829
0.712885
0.712949
0.713023
0.713105
0.713194
0.713291
0.713395
0.713503
0.713615
0.71373
0.713846
0.713961
0.714074
0.714184
0.714289
0.714387
0.714478
0.714561
0.714636
0.714701
0.714758
0.714806
0.714846
0.714879
0.714907
0.71493
0.714949
0.714966
0.714981
0.714996
0.71501
0.715024
0.715039
0.715055
0.71507
0.715086
0.715103
0.715121
0.71514
0.715161
0.715184
0.71521
0.715239
0.715271
0.715307
0.715344
0.715384
0.715424
0.715463
0.715501
0.715535
0.715565
0.71559
0.71561
0.715625
0.715634
0.715639
0.71564
0.715638
0.715633
0.715626
0.715618
0.715608
0.715598
0.715586
0.715575
0.715563
0.715551
0.715539
0.715527
0.715515
0.715503
0.715491
0.715479
0.715467
0.715456
0.715444
0.715432
0.715421
0.715409
0.715398
0.715386
0.715375
0.715363
0.715352
0.715341
0.715329
0.715318
0.715306
0.715295
0.715284
0.715272
0.715261
0.715249
0.715238
0.715227
0.715215
0.715204
0.715192
0.715181
0.71517
0.715158
0.715147
0.715135
0.715124
0.715113
0.715101
0.71509
0.715078
0.715067
0.715056
0.715044
0.715033
0.715021
0.71501
0.714999
0.714987
0.714976
0.714964
0.714953
0.714942
0.71493
0.714919
0.714907
0.714896
0.714885
0.714873
0.714862
0.71485
0.714839
0.714828
0.714816
0.714805
0.714793
0.714782
0.714771
0.714759
0.714748
0.714736
0.714725
0.714714
0.714702
0.714691
0.714679
0.714668
0.714657
0.714645
0.714634
0.714622
0.714611
0.7146
0.714588
0.714577
0.714565
0.714554
0.714543
0.714531
0.71452
0.714508
0.714497
0.714486
0.714474
0.714463
0.714451
0.71444
0.714429
0.714417
0.714406
0.714394
0.714383
0.714372
0.71436
0.714349
0.714337
0.714326
0.714315
0.714303
0.714292
0.712733
0.712749
0.712748
0.712752
0.712747
0.712742
0.712734
0.712724
0.712713
0.712702
0.712691
0.712681
0.712673
0.712667
0.712665
0.712668
0.712676
0.712691
0.712712
0.712741
0.712779
0.712825
0.71288
0.712944
0.713017
0.713098
0.713186
0.713282
0.713383
0.713488
0.713597
0.713708
0.713819
0.713929
0.714036
0.714138
0.714235
0.714325
0.714407
0.71448
0.714545
0.7146
0.714647
0.714686
0.714719
0.714746
0.71477
0.71479
0.71481
0.714829
0.714849
0.714871
0.714895
0.71492
0.714948
0.714977
0.715007
0.715037
0.715068
0.7151
0.715131
0.715162
0.715194
0.715227
0.71526
0.715295
0.715331
0.715368
0.715407
0.715445
0.715482
0.715518
0.71555
0.715578
0.715601
0.715618
0.715631
0.715639
0.715642
0.715642
0.715639
0.715633
0.715625
0.715617
0.715607
0.715596
0.715585
0.715573
0.715562
0.71555
0.715538
0.715526
0.715514
0.715502
0.71549
0.715479
0.715467
0.715455
0.715444
0.715432
0.715421
0.715409
0.715398
0.715386
0.715375
0.715363
0.715352
0.715341
0.715329
0.715318
0.715306
0.715295
0.715284
0.715272
0.715261
0.715249
0.715238
0.715227
0.715215
0.715204
0.715192
0.715181
0.71517
0.715158
0.715147
0.715135
0.715124
0.715113
0.715101
0.71509
0.715078
0.715067
0.715056
0.715044
0.715033
0.715021
0.71501
0.714999
0.714987
0.714976
0.714964
0.714953
0.714942
0.71493
0.714919
0.714907
0.714896
0.714885
0.714873
0.714862
0.71485
0.714839
0.714828
0.714816
0.714805
0.714793
0.714782
0.714771
0.714759
0.714748
0.714736
0.714725
0.714714
0.714702
0.714691
0.714679
0.714668
0.714657
0.714645
0.714634
0.714622
0.714611
0.7146
0.714588
0.714577
0.714565
0.714554
0.714543
0.714531
0.71452
0.714508
0.714497
0.714486
0.714474
0.714463
0.714451
0.71444
0.714429
0.714417
0.714406
0.714394
0.714383
0.714372
0.71436
0.714349
0.714337
0.714326
0.714315
0.714303
0.714292
0.712736
0.712754
0.712753
0.712755
0.71275
0.712745
0.712737
0.712727
0.712716
0.712705
0.712694
0.712684
0.712676
0.712671
0.712669
0.712672
0.712681
0.712696
0.712718
0.712748
0.712786
0.712833
0.712888
0.712952
0.713025
0.713105
0.713192
0.713285
0.713383
0.713485
0.71359
0.713695
0.713799
0.7139
0.713998
0.71409
0.714176
0.714253
0.714321
0.714381
0.714431
0.714473
0.714506
0.714534
0.714556
0.714575
0.714593
0.714611
0.714631
0.714653
0.714679
0.714709
0.714744
0.714782
0.714824
0.714868
0.714915
0.714963
0.715012
0.715061
0.715108
0.715155
0.715201
0.715245
0.715287
0.715328
0.715369
0.715408
0.715445
0.715482
0.715516
0.715547
0.715575
0.715599
0.715618
0.715632
0.715641
0.715646
0.715646
0.715644
0.715639
0.715633
0.715624
0.715615
0.715605
0.715594
0.715583
0.715572
0.71556
0.715548
0.715537
0.715525
0.715513
0.715501
0.71549
0.715478
0.715467
0.715455
0.715444
0.715432
0.715421
0.715409
0.715398
0.715386
0.715375
0.715363
0.715352
0.715341
0.715329
0.715318
0.715306
0.715295
0.715284
0.715272
0.715261
0.715249
0.715238
0.715227
0.715215
0.715204
0.715192
0.715181
0.71517
0.715158
0.715147
0.715135
0.715124
0.715113
0.715101
0.71509
0.715078
0.715067
0.715056
0.715044
0.715033
0.715021
0.71501
0.714999
0.714987
0.714976
0.714964
0.714953
0.714942
0.71493
0.714919
0.714907
0.714896
0.714885
0.714873
0.714862
0.71485
0.714839
0.714828
0.714816
0.714805
0.714793
0.714782
0.714771
0.714759
0.714748
0.714736
0.714725
0.714714
0.714702
0.714691
0.714679
0.714668
0.714657
0.714645
0.714634
0.714622
0.714611
0.7146
0.714588
0.714577
0.714565
0.714554
0.714543
0.714531
0.71452
0.714508
0.714497
0.714486
0.714474
0.714463
0.714451
0.71444
0.714429
0.714417
0.714406
0.714394
0.714383
0.714372
0.71436
0.714349
0.714337
0.714326
0.714315
0.714303
0.714292
0.712578
0.712722
0.712742
0.712762
0.712761
0.712757
0.712748
0.712738
0.712726
0.712715
0.712704
0.712694
0.712687
0.712683
0.712683
0.712687
0.712698
0.712715
0.712739
0.712771
0.712811
0.71286
0.712916
0.712981
0.713054
0.713133
0.713219
0.71331
0.713405
0.713502
0.7136
0.713697
0.713792
0.713883
0.713969
0.714047
0.714117
0.714178
0.71423
0.714272
0.714305
0.71433
0.714349
0.714363
0.714375
0.714387
0.714401
0.714418
0.71444
0.714468
0.714501
0.714541
0.714587
0.714638
0.714694
0.714754
0.714817
0.714882
0.714948
0.715014
0.715078
0.715141
0.715202
0.71526
0.715314
0.715365
0.715412
0.715455
0.715495
0.71553
0.715562
0.715589
0.715611
0.715629
0.715642
0.71565
0.715655
0.715655
0.715653
0.715648
0.715641
0.715633
0.715624
0.715614
0.715603
0.715592
0.715581
0.71557
0.715558
0.715547
0.715535
0.715524
0.715512
0.715501
0.715489
0.715478
0.715466
0.715455
0.715443
0.715432
0.715421
0.715409
0.715398
0.715386
0.715375
0.715363
0.715352
0.715341
0.715329
0.715318
0.715306
0.715295
0.715284
0.715272
0.715261
0.715249
0.715238
0.715227
0.715215
0.715204
0.715192
0.715181
0.71517
0.715158
0.715147
0.715135
0.715124
0.715113
0.715101
0.71509
0.715078
0.715067
0.715056
0.715044
0.715033
0.715021
0.71501
0.714999
0.714987
0.714976
0.714964
0.714953
0.714942
0.71493
0.714919
0.714907
0.714896
0.714885
0.714873
0.714862
0.71485
0.714839
0.714828
0.714816
0.714805
0.714793
0.714782
0.714771
0.714759
0.714748
0.714736
0.714725
0.714714
0.714702
0.714691
0.714679
0.714668
0.714657
0.714645
0.714634
0.714622
0.714611
0.7146
0.714588
0.714577
0.714565
0.714554
0.714543
0.714531
0.71452
0.714508
0.714497
0.714486
0.714474
0.714463
0.714451
0.71444
0.714429
0.714417
0.714406
0.714394
0.714383
0.714372
0.71436
0.714349
0.714337
0.714326
0.714315
0.714303
0.714292
0.713331
0.713274
0.713211
0.713143
0.713069
0.712989
0.7129
0.712777
0.713338
0.713291
0.713227
0.713157
0.713083
0.713003
0.712911
0.712811
0.713343
0.713303
0.713245
0.713179
0.713109
0.713036
0.712964
0.712892
0.713354
0.71332
0.713267
0.713206
0.713141
0.713077
0.713013
0.712955
0.713368
0.713336
0.713287
0.713231
0.713172
0.713115
0.713062
0.713015
0.713384
0.713351
0.713303
0.71325
0.713197
0.713146
0.7131
0.713059
0.7134
0.713363
0.713314
0.713263
0.713213
0.713166
0.713124
0.713087
0.713409
0.713362
0.713313
0.713264
0.713216
0.713172
0.713132
0.713095
0.712708
0.712729
0.712751
0.712762
0.712764
0.712762
0.712755
0.712746
0.712737
0.712728
0.712719
0.712712
0.712708
0.712707
0.712711
0.71272
0.712734
0.712756
0.712784
0.71282
0.712864
0.712916
0.712975
0.713042
0.713115
0.713194
0.713278
0.713366
0.713456
0.713546
0.713636
0.713723
0.713806
0.713883
0.713953
0.714015
0.714067
0.714109
0.714141
0.714164
0.71418
0.714189
0.714195
0.714199
0.714205
0.714214
0.714228
0.714248
0.714275
0.71431
0.714352
0.714402
0.714458
0.714521
0.714589
0.714661
0.714737
0.714815
0.714895
0.714974
0.715053
0.715129
0.715203
0.715273
0.715339
0.7154
0.715454
0.715503
0.715546
0.715581
0.715611
0.715634
0.715651
0.715663
0.71567
0.715672
0.715671
0.715667
0.715661
0.715653
0.715644
0.715634
0.715624
0.715613
0.715602
0.715591
0.715579
0.715568
0.715557
0.715545
0.715534
0.715523
0.715511
0.7155
0.715489
0.715477
0.715466
0.715455
0.715443
0.715432
0.71542
0.715409
0.715398
0.715386
0.715375
0.715363
0.715352
0.715341
0.715329
0.715318
0.715306
0.715295
0.715284
0.715272
0.715261
0.715249
0.715238
0.715227
0.715215
0.715204
0.715192
0.715181
0.71517
0.715158
0.715147
0.715135
0.715124
0.715113
0.715101
0.71509
0.715078
0.715067
0.715056
0.715044
0.715033
0.715021
0.71501
0.714999
0.714987
0.714976
0.714964
0.714953
0.714942
0.71493
0.714919
0.714907
0.714896
0.714885
0.714873
0.714862
0.71485
0.714839
0.714828
0.714816
0.714805
0.714793
0.714782
0.714771
0.714759
0.714748
0.714736
0.714725
0.714714
0.714702
0.714691
0.714679
0.714668
0.714657
0.714645
0.714634
0.714622
0.714611
0.7146
0.714588
0.714577
0.714565
0.714554
0.714543
0.714531
0.71452
0.714508
0.714497
0.714486
0.714474
0.714463
0.714451
0.71444
0.714429
0.714417
0.714406
0.714394
0.714383
0.714372
0.71436
0.714349
0.714337
0.714326
0.714315
0.714303
0.714292
0.712734
0.712743
0.712756
0.712769
0.712775
0.712775
0.712773
0.712768
0.712762
0.712757
0.712753
0.712751
0.712752
0.712757
0.712767
0.712782
0.712803
0.712831
0.712866
0.712908
0.712957
0.713013
0.713076
0.713144
0.713217
0.713295
0.713375
0.713458
0.713541
0.713622
0.7137
0.713773
0.713841
0.713901
0.713952
0.713994
0.714026
0.714048
0.714062
0.714069
0.714071
0.71407
0.71407
0.714071
0.714078
0.714089
0.714108
0.714133
0.714167
0.714209
0.714258
0.714315
0.714378
0.714448
0.714524
0.714604
0.714688
0.714775
0.714863
0.714952
0.71504
0.715126
0.71521
0.715289
0.715363
0.715431
0.715492
0.715546
0.715591
0.715627
0.715656
0.715676
0.715689
0.715695
0.715696
0.715693
0.715687
0.715679
0.71567
0.715659
0.715648
0.715636
0.715624
0.715612
0.715601
0.715589
0.715578
0.715566
0.715555
0.715544
0.715533
0.715521
0.71551
0.715499
0.715488
0.715477
0.715465
0.715454
0.715443
0.715432
0.71542
0.715409
0.715398
0.715386
0.715375
0.715363
0.715352
0.715341
0.715329
0.715318
0.715306
0.715295
0.715284
0.715272
0.715261
0.715249
0.715238
0.715227
0.715215
0.715204
0.715192
0.715181
0.71517
0.715158
0.715147
0.715135
0.715124
0.715113
0.715101
0.71509
0.715078
0.715067
0.715056
0.715044
0.715033
0.715021
0.71501
0.714999
0.714987
0.714976
0.714964
0.714953
0.714942
0.71493
0.714919
0.714907
0.714896
0.714885
0.714873
0.714862
0.71485
0.714839
0.714828
0.714816
0.714805
0.714793
0.714782
0.714771
0.714759
0.714748
0.714736
0.714725
0.714714
0.714702
0.714691
0.714679
0.714668
0.714657
0.714645
0.714634
0.714622
0.714611
0.7146
0.714588
0.714577
0.714565
0.714554
0.714543
0.714531
0.71452
0.714508
0.714497
0.714486
0.714474
0.714463
0.714451
0.71444
0.714429
0.714417
0.714406
0.714394
0.714383
0.714372
0.71436
0.714349
0.714337
0.714326
0.714315
0.714303
0.714292
0.712838
0.712813
0.712808
0.712808
0.712809
0.712808
0.712807
0.712806
0.712804
0.712805
0.712807
0.712812
0.71282
0.712833
0.712851
0.712875
0.712904
0.71294
0.712983
0.713032
0.713087
0.713147
0.713212
0.713281
0.713352
0.713426
0.713501
0.713575
0.713647
0.713715
0.713777
0.713833
0.713882
0.713921
0.713952
0.713975
0.71399
0.713998
0.714001
0.714001
0.713999
0.713997
0.713997
0.714002
0.714012
0.714028
0.714051
0.714081
0.714119
0.714164
0.714216
0.714276
0.714343
0.714417
0.714496
0.71458
0.714669
0.71476
0.714854
0.714948
0.715042
0.715134
0.715223
0.715307
0.715387
0.715459
0.715524
0.715581
0.715627
0.715664
0.715691
0.715709
0.715719
0.715721
0.715719
0.715712
0.715702
0.71569
0.715678
0.715664
0.715651
0.715638
0.715625
0.715612
0.7156
0.715588
0.715576
0.715565
0.715553
0.715542
0.715531
0.71552
0.715509
0.715498
0.715487
0.715476
0.715465
0.715454
0.715443
0.715431
0.71542
0.715409
0.715398
0.715386
0.715375
0.715363
0.715352
0.715341
0.715329
0.715318
0.715306
0.715295
0.715284
0.715272
0.715261
0.715249
0.715238
0.715227
0.715215
0.715204
0.715192
0.715181
0.71517
0.715158
0.715147
0.715135
0.715124
0.715113
0.715101
0.71509
0.715078
0.715067
0.715056
0.715044
0.715033
0.715021
0.71501
0.714999
0.714987
0.714976
0.714964
0.714953
0.714942
0.71493
0.714919
0.714907
0.714896
0.714885
0.714873
0.714862
0.71485
0.714839
0.714828
0.714816
0.714805
0.714793
0.714782
0.714771
0.714759
0.714748
0.714736
0.714725
0.714714
0.714702
0.714691
0.714679
0.714668
0.714657
0.714645
0.714634
0.714622
0.714611
0.7146
0.714588
0.714577
0.714565
0.714554
0.714543
0.714531
0.71452
0.714508
0.714497
0.714486
0.714474
0.714463
0.714451
0.71444
0.714429
0.714417
0.714406
0.714394
0.714383
0.714372
0.71436
0.714349
0.714337
0.714326
0.714315
0.714303
0.714292
0.712908
0.712881
0.712867
0.712861
0.712858
0.712857
0.712856
0.712857
0.71286
0.712865
0.712873
0.712885
0.712902
0.712923
0.712949
0.712982
0.71302
0.713064
0.713115
0.71317
0.713231
0.713294
0.71336
0.713427
0.713494
0.71356
0.713625
0.713687
0.713743
0.713794
0.713837
0.713875
0.713905
0.71393
0.713949
0.713962
0.713968
0.713969
0.713967
0.713965
0.713965
0.713967
0.713974
0.713983
0.713997
0.714015
0.71404
0.714071
0.714109
0.714154
0.714208
0.714269
0.714337
0.714412
0.714493
0.714579
0.71467
0.714764
0.71486
0.714957
0.715054
0.715149
0.715241
0.715328
0.71541
0.715485
0.715551
0.715608
0.715655
0.715691
0.715717
0.715733
0.715741
0.715741
0.715736
0.715726
0.715714
0.7157
0.715685
0.715669
0.715654
0.715639
0.715625
0.715612
0.715599
0.715587
0.715575
0.715563
0.715552
0.715541
0.71553
0.715519
0.715509
0.715498
0.715487
0.715476
0.715465
0.715454
0.715443
0.715431
0.71542
0.715409
0.715398
0.715386
0.715375
0.715363
0.715352
0.715341
0.715329
0.715318
0.715306
0.715295
0.715284
0.715272
0.715261
0.715249
0.715238
0.715227
0.715215
0.715204
0.715192
0.715181
0.71517
0.715158
0.715147
0.715135
0.715124
0.715113
0.715101
0.71509
0.715078
0.715067
0.715056
0.715044
0.715033
0.715021
0.71501
0.714999
0.714987
0.714976
0.714964
0.714953
0.714942
0.71493
0.714919
0.714907
0.714896
0.714885
0.714873
0.714862
0.71485
0.714839
0.714828
0.714816
0.714805
0.714793
0.714782
0.714771
0.714759
0.714748
0.714736
0.714725
0.714714
0.714702
0.714691
0.714679
0.714668
0.714657
0.714645
0.714634
0.714622
0.714611
0.7146
0.714588
0.714577
0.714565
0.714554
0.714543
0.714531
0.71452
0.714508
0.714497
0.714486
0.714474
0.714463
0.714451
0.71444
0.714429
0.714417
0.714406
0.714394
0.714383
0.714372
0.71436
0.714349
0.714337
0.714326
0.714315
0.714303
0.714292
0.712977
0.71295
0.712933
0.712922
0.712915
0.712912
0.712911
0.712913
0.712918
0.712927
0.712941
0.712959
0.712982
0.71301
0.713044
0.713084
0.71313
0.713181
0.713237
0.713297
0.71336
0.713423
0.713486
0.713545
0.713602
0.713657
0.71371
0.713759
0.713804
0.713843
0.713875
0.713899
0.713915
0.713923
0.713928
0.713933
0.713941
0.713949
0.713956
0.713962
0.713967
0.713971
0.713977
0.713986
0.713999
0.714018
0.714042
0.714074
0.714113
0.714159
0.714214
0.714276
0.714345
0.714421
0.714503
0.714591
0.714683
0.714778
0.714876
0.714974
0.715072
0.715168
0.715261
0.715349
0.715432
0.715506
0.715572
0.715629
0.715674
0.71571
0.715734
0.715749
0.715756
0.715754
0.715748
0.715736
0.715722
0.715706
0.71569
0.715673
0.715656
0.71564
0.715625
0.715611
0.715598
0.715586
0.715574
0.715562
0.715551
0.71554
0.71553
0.715519
0.715508
0.715497
0.715486
0.715476
0.715465
0.715454
0.715442
0.715431
0.71542
0.715409
0.715397
0.715386
0.715375
0.715363
0.715352
0.715341
0.715329
0.715318
0.715306
0.715295
0.715284
0.715272
0.715261
0.715249
0.715238
0.715227
0.715215
0.715204
0.715192
0.715181
0.71517
0.715158
0.715147
0.715135
0.715124
0.715113
0.715101
0.71509
0.715078
0.715067
0.715056
0.715044
0.715033
0.715021
0.71501
0.714999
0.714987
0.714976
0.714964
0.714953
0.714942
0.71493
0.714919
0.714907
0.714896
0.714885
0.714873
0.714862
0.71485
0.714839
0.714828
0.714816
0.714805
0.714793
0.714782
0.714771
0.714759
0.714748
0.714736
0.714725
0.714714
0.714702
0.714691
0.714679
0.714668
0.714657
0.714645
0.714634
0.714622
0.714611
0.7146
0.714588
0.714577
0.714565
0.714554
0.714543
0.714531
0.71452
0.714508
0.714497
0.714486
0.714474
0.714463
0.714451
0.71444
0.714429
0.714417
0.714406
0.714394
0.714383
0.714372
0.71436
0.714349
0.714337
0.714326
0.714315
0.714303
0.714292
0.713026
0.713
0.712981
0.712967
0.712958
0.712953
0.712952
0.712954
0.712962
0.712974
0.712991
0.713013
0.713041
0.713074
0.713112
0.713156
0.713205
0.713259
0.713317
0.713378
0.71344
0.713501
0.71356
0.713615
0.713665
0.713711
0.713753
0.713788
0.713812
0.713829
0.713844
0.713862
0.713883
0.713904
0.713923
0.713938
0.713949
0.713956
0.713959
0.713962
0.713966
0.713971
0.713979
0.71399
0.714005
0.714026
0.714052
0.714085
0.714125
0.714173
0.714228
0.714291
0.714361
0.714438
0.714521
0.714609
0.714702
0.714798
0.714896
0.714995
0.715093
0.715189
0.715281
0.715369
0.71545
0.715523
0.715588
0.715642
0.715687
0.715721
0.715744
0.715758
0.715763
0.715761
0.715753
0.715741
0.715726
0.715709
0.715692
0.715674
0.715657
0.715641
0.715626
0.715611
0.715598
0.715585
0.715573
0.715562
0.715551
0.71554
0.715529
0.715518
0.715508
0.715497
0.715486
0.715475
0.715464
0.715453
0.715442
0.715431
0.71542
0.715409
0.715397
0.715386
0.715375
0.715363
0.715352
0.715341
0.715329
0.715318
0.715307
0.715295
0.715284
0.715272
0.715261
0.715249
0.715238
0.715227
0.715215
0.715204
0.715192
0.715181
0.71517
0.715158
0.715147
0.715135
0.715124
0.715113
0.715101
0.71509
0.715078
0.715067
0.715056
0.715044
0.715033
0.715021
0.71501
0.714999
0.714987
0.714976
0.714964
0.714953
0.714942
0.71493
0.714919
0.714907
0.714896
0.714885
0.714873
0.714862
0.71485
0.714839
0.714828
0.714816
0.714805
0.714793
0.714782
0.714771
0.714759
0.714748
0.714736
0.714725
0.714714
0.714702
0.714691
0.714679
0.714668
0.714657
0.714645
0.714634
0.714622
0.714611
0.7146
0.714588
0.714577
0.714565
0.714554
0.714543
0.714531
0.71452
0.714508
0.714497
0.714486
0.714474
0.714463
0.714451
0.71444
0.714429
0.714417
0.714406
0.714394
0.714383
0.714372
0.71436
0.714349
0.714337
0.714326
0.714315
0.714303
0.714292
0.713055
0.713029
0.713009
0.712993
0.712982
0.712976
0.712974
0.712978
0.712986
0.713
0.71302
0.713044
0.713075
0.71311
0.71315
0.713196
0.713247
0.713301
0.713359
0.713418
0.713476
0.71353
0.713575
0.713613
0.713647
0.713681
0.713718
0.713756
0.713793
0.713825
0.713853
0.713876
0.713895
0.71391
0.713921
0.713931
0.71394
0.713948
0.713954
0.713961
0.713967
0.713974
0.713983
0.713995
0.714012
0.714033
0.714061
0.714095
0.714136
0.714184
0.71424
0.714304
0.714374
0.714452
0.714535
0.714624
0.714716
0.714812
0.71491
0.715009
0.715106
0.715202
0.715293
0.71538
0.71546
0.715532
0.715595
0.715648
0.715691
0.715723
0.715745
0.715758
0.715763
0.715761
0.715753
0.715741
0.715726
0.715709
0.715692
0.715674
0.715658
0.715641
0.715626
0.715612
0.715598
0.715586
0.715574
0.715562
0.715551
0.71554
0.715529
0.715518
0.715508
0.715497
0.715486
0.715475
0.715464
0.715453
0.715442
0.715431
0.71542
0.715409
0.715397
0.715386
0.715375
0.715363
0.715352
0.715341
0.715329
0.715318
0.715307
0.715295
0.715284
0.715272
0.715261
0.715249
0.715238
0.715227
0.715215
0.715204
0.715192
0.715181
0.71517
0.715158
0.715147
0.715135
0.715124
0.715113
0.715101
0.71509
0.715078
0.715067
0.715056
0.715044
0.715033
0.715021
0.71501
0.714999
0.714987
0.714976
0.714964
0.714953
0.714942
0.71493
0.714919
0.714907
0.714896
0.714885
0.714873
0.714862
0.71485
0.714839
0.714828
0.714816
0.714805
0.714793
0.714782
0.714771
0.714759
0.714748
0.714736
0.714725
0.714714
0.714702
0.714691
0.714679
0.714668
0.714657
0.714645
0.714634
0.714622
0.714611
0.7146
0.714588
0.714577
0.714565
0.714554
0.714543
0.714531
0.71452
0.714508
0.714497
0.714486
0.714474
0.714463
0.714451
0.71444
0.714429
0.714417
0.714406
0.714394
0.714383
0.714372
0.71436
0.714349
0.714337
0.714326
0.714315
0.714303
0.714292
0.713063
0.713036
0.713013
0.712996
0.712983
0.712976
0.712974
0.712977
0.712986
0.713
0.713019
0.713043
0.713071
0.713105
0.713143
0.713185
0.713231
0.713281
0.713335
0.71339
0.713447
0.713501
0.713552
0.713599
0.713644
0.713686
0.713726
0.713762
0.713793
0.713819
0.713842
0.713863
0.713883
0.7139
0.713915
0.713928
0.713937
0.713945
0.713952
0.713958
0.713964
0.713972
0.713982
0.713996
0.714014
0.714037
0.714066
0.714101
0.714143
0.714193
0.71425
0.714314
0.714385
0.714463
0.714547
0.714636
0.714729
0.714825
0.714923
0.715021
0.715119
0.715213
0.715304
0.715389
0.715468
0.715538
0.715599
0.715651
0.715692
0.715723
0.715744
0.715756
0.715761
0.715758
0.715751
0.715739
0.715724
0.715708
0.715691
0.715674
0.715657
0.715641
0.715626
0.715612
0.715598
0.715586
0.715574
0.715562
0.715551
0.71554
0.715529
0.715518
0.715508
0.715497
0.715486
0.715475
0.715464
0.715453
0.715442
0.715431
0.71542
0.715409
0.715397
0.715386
0.715375
0.715363
0.715352
0.715341
0.715329
0.715318
0.715307
0.715295
0.715284
0.715272
0.715261
0.715249
0.715238
0.715227
0.715215
0.715204
0.715192
0.715181
0.71517
0.715158
0.715147
0.715135
0.715124
0.715113
0.715101
0.71509
0.715078
0.715067
0.715056
0.715044
0.715033
0.715021
0.71501
0.714999
0.714987
0.714976
0.714964
0.714953
0.714942
0.71493
0.714919
0.714907
0.714896
0.714885
0.714873
0.714862
0.71485
0.714839
0.714828
0.714816
0.714805
0.714793
0.714782
0.714771
0.714759
0.714748
0.714736
0.714725
0.714714
0.714702
0.714691
0.714679
0.714668
0.714657
0.714645
0.714634
0.714622
0.714611
0.7146
0.714588
0.714577
0.714565
0.714554
0.714543
0.714531
0.71452
0.714508
0.714497
0.714486
0.714474
0.714463
0.714451
0.71444
0.714429
0.714417
0.714406
0.714394
0.714383
0.714372
0.71436
0.714349
0.714337
0.714326
0.714315
0.714303
0.714292
)
;

boundaryField
{
    inlet
    {
        type            zeroGradient;
    }
    outlet
    {