/*--------------------------------*- C++ -*----------------------------------*\
| =========                 |                                                 |
| \\      /  F ield         | OpenFOAM: The Open Source CFD Toolbox           |
|  \\    /   O peration     | Version:  4.1                                   |
|   \\  /    A nd           | Web:      www.OpenFOAM.org                      |
|    \\/     M anipulation  |                                                 |
\*---------------------------------------------------------------------------*/
FoamFile
{
    version     2.0;
    format      ascii;
    class       volVectorField;
    location    "0.0333";
    object      U;
}
// * * * * * * * * * * * * * * * * * * * * * * * * * * * * * * * * * * * * * //

dimensions      [0 1 -1 0 0 0 0];

internalField   nonuniform List<vector> 
441
(
(-9.7561e-05 7.75219e-05 0)
(-0.000489773 0.000284176 0)
(-0.00109802 0.000497289 0)
(-0.00187421 0.000649227 0)
(-0.0027442 0.000724088 0)
(-0.00362884 0.000724254 0)
(-0.00445566 0.000659509 0)
(-0.00516399 0.000542416 0)
(-0.00570668 0.000386122 0)
(-0.00605005 0.000203457 0)
(-0.00617335 6.8265e-06 0)
(-0.00606836 -0.000191462 0)
(-0.00573959 -0.000378697 0)
(-0.00520496 -0.000541353 0)
(-0.00449694 -0.000665007 0)
(-0.00366342 -0.000734832 0)
(-0.0027676 -0.000736953 0)
(-0.00188558 -0.000661085 0)
(-0.00110014 -0.000505442 0)
(-0.000487687 -0.000287603 0)
(-9.63094e-05 -7.73931e-05 0)
(-0.000351012 0.000443213 0)
(-0.00155903 0.00137047 0)
(-0.00326344 0.0022033 0)
(-0.00533781 0.00277779 0)
(-0.00760602 0.00304624 0)
(-0.0098813 0.00301903 0)
(-0.0119913 0.00273426 0)
(-0.0137904 0.00224133 0)
(-0.0151645 0.00159231 0)
(-0.0160321 0.00083822 0)
(-0.0163428 2.84654e-05 0)
(-0.0160767 -0.000787919 0)
(-0.0152452 -0.0015603 0)
(-0.013892 -0.00223483 0)
(-0.0120957 -0.00275416 0)
(-0.00997187 -0.00305951 0)
(-0.00767134 -0.00309625 0)
(-0.0053746 -0.00282422 0)
(-0.00327671 -0.00223532 0)
(-0.00155938 -0.00138389 0)
(-0.000349711 -0.000443186 0)
(-0.00063298 0.00106311 0)
(-0.00265187 0.00303491 0)
(-0.00535734 0.00467053 0)
(-0.00855023 0.00575682 0)
(-0.0119778 0.00623429 0)
(-0.0153775 0.00613272 0)
(-0.0185079 0.00552868 0)
(-0.021165 0.00451879 0)
(-0.0231891 0.00320452 0)
(-0.0244656 0.0016853 0)
(-0.0249237 5.74328e-05 0)
(-0.0245355 -0.00158354 0)
(-0.0233164 -0.00313898 0)
(-0.0213273 -0.00450398 0)
(-0.0186781 -0.00556678 0)
(-0.0155297 -0.00621274 0)
(-0.0120934 -0.00633474 0)
(-0.00862194 -0.00585171 0)
(-0.00539031 -0.00473776 0)
(-0.00266031 -0.00306491 0)
(-0.000633257 -0.00106479 0)
(-0.000905338 0.00193684 0)
(-0.00370233 0.00527655 0)
(-0.00734568 0.00789268 0)
(-0.0115592 0.00956619 0)
(-0.0160177 0.0102526 0)
(-0.0203948 0.0100186 0)
(-0.0243962 0.00899247 0)
(-0.027776 0.00732918 0)
(-0.0303435 0.00518902 0)
(-0.0319622 0.002728 0)
(-0.0325477 9.6573e-05 0)
(-0.0320663 -0.0025563 0)
(-0.0305345 -0.00507675 0)
(-0.0280228 -0.00730068 0)
(-0.02466 -0.00905236 0)
(-0.0206378 -0.0101501 0)
(-0.0162106 -0.0104214 0)
(-0.011688 -0.00972943 0)
(-0.00741363 -0.00801237 0)
(-0.00372692 -0.0053339 0)
(-0.000909185 -0.00194317 0)
(-0.00116904 0.00306023 0)
(-0.00472558 0.00809362 0)
(-0.00928081 0.0118719 0)
(-0.0144755 0.014204 0)
(-0.0199085 0.0150896 0)
(-0.0251929 0.0146555 0)
(-0.0299892 0.0130991 0)
(-0.0340201 0.0106467 0)
(-0.0370736 0.00752701 0)
(-0.0390002 0.00395913 0)
(-0.0397072 0.000152456 0)
(-0.0391558 -0.00368668 0)
(-0.037361 -0.0073449 0)
(-0.0343958 -0.010593 0)
(-0.0303985 -0.013183 0)
(-0.0255799 -0.0148541 0)
(-0.0202275 -0.0153526 0)
(-0.0147006 -0.0144659 0)
(-0.00941065 -0.0120717 0)
(-0.00478048 -0.00819668 0)
(-0.00117993 -0.00307699 0)
(-0.00143517 0.00443673 0)
(-0.00576419 0.0114988 0)
(-0.0112443 0.0166271 0)
(-0.0174247 0.0196868 0)
(-0.0238227 0.0207533 0)
(-0.0299903 0.0200411 0)
(-0.0355473 0.0178389 0)
(-0.0401927 0.0144597 0)
(-0.0437024 0.0102104 0)
(-0.0459207 0.00537864 0)
(-0.0467515 0.000235019 0)
(-0.0461518 -0.00495588 0)
(-0.0441319 -0.00991988 0)
(-0.0407607 -0.0143591 0)
(-0.0361762 -0.0179455 0)
(-0.0305984 -0.020326 0)
(-0.0243396 -0.0211463 0)
(-0.0178053 -0.0200921 0)
(-0.0114774 -0.01695 0)
(-0.0058716 -0.0116781 0)
(-0.00145862 -0.00447468 0)
(-0.00171575 0.00608185 0)
(-0.00686283 0.0155264 0)
(-0.0133137 0.0221977 0)
(-0.0205138 0.0260481 0)
(-0.0278913 0.0272645 0)
(-0.0349365 0.0261826 0)
(-0.0412338 0.0232086 0)
(-0.0464671 0.0187607 0)
(-0.0504097 0.0132342 0)
(-0.0529083 0.00698927 0)
(-0.0538682 0.000356997 0)
(-0.0532437 -0.00634242 0)
(-0.0510369 -0.0127762 0)
(-0.0473049 -0.0185769 0)
(-0.0421749 -0.0233298 0)
(-0.0358643 -0.0265754 0)
(-0.0287003 -0.0278348 0)
(-0.0211294 -0.0266597 0)
(-0.0137071 -0.0227074 0)
(-0.00705415 -0.0158296 0)
(-0.00175966 -0.00615936 0)
(-0.00201993 0.00802256 0)
(-0.00805483 0.020229 0)
(-0.0155415 0.028638 0)
(-0.023804 0.0333276 0)
(-0.0321736 0.0346417 0)
(-0.0400806 0.0330783 0)
(-0.0470826 0.0291933 0)
(-0.0528609 0.0235309 0)
(-0.0571989 0.0165849 0)
(-0.0599566 0.00878976 0)
(-0.0610479 0.000532858 0)
(-0.0604264 -0.0078171 0)
(-0.0580823 -0.0158754 0)
(-0.0540522 -0.0232084 0)
(-0.0484389 -0.0293102 0)
(-0.0414415 -0.0336001 0)
(-0.0333868 -0.0354471 0)
(-0.0247526 -0.0342285 0)
(-0.0161679 -0.029423 0)
(-0.00837113 -0.0207261 0)
(-0.00209477 -0.00816845 0)
(-0.00235151 0.010294 0)
(-0.00935275 0.0256685 0)
(-0.017937 0.036001 0)
(-0.0272852 0.0415505 0)
(-0.036625 0.042877 0)
(-0.0453332 0.0406931 0)
(-0.0529561 0.0357428 0)
(-0.0591908 0.0287194 0)
(-0.0638494 0.0202249 0)
(-0.0668198 0.0107658 0)
(-0.0680343 0.000776872 0)
(-0.0674492 -0.00933745 0)
(-0.0650399 -0.0191535 0)
(-0.0608116 -0.0281799 0)
(-0.0548262 -0.03582 0)
(-0.0472421 -0.0413585 0)
(-0.0383624 -0.0439815 0)
(-0.0286773 -0.0428428 0)
(-0.018882 -0.0371777 0)
(-0.00984415 -0.0264565 0)
(-0.00247033 -0.0105505 0)
(-0.00270656 0.0129345 0)
(-0.010739 0.0319014 0)
(-0.0204484 0.0443162 0)
(-0.030848 0.0506979 0)
(-0.0410592 0.051903 0)
(-0.0504212 0.048925 0)
(-0.0584941 0.0427414 0)
(-0.0650187 0.0342188 0)
(-0.0698601 0.0240738 0)
(-0.072954 0.0128786 0)
(-0.0742638 0.00109994 0)
(-0.0737544 -0.0108423 0)
(-0.0713837 -0.0225059 0)
(-0.0671148 -0.0333586 0)
(-0.0609475 -0.0427204 0)
(-0.0529709 -0.0497325 0)
(-0.0434297 -0.0533671 0)
(-0.0327937 -0.0524956 0)
(-0.0218041 -0.0460262 0)
(-0.0114623 -0.0331063 0)
(-0.00288459 -0.0133599 0)
(-0.00307021 0.0159787 0)
(-0.0121538 0.0389584 0)
(-0.0229396 0.0535563 0)
(-0.0342477 0.0606663 0)
(-0.0451013 0.0615499 0)
(-0.0548326 0.0575642 0)
(-0.0630542 0.0499718 0)
(-0.0695885 0.0398355 0)
(-0.0743857 0.0279876 0)
(-0.0774531 0.0150523 0)
(-0.0788009 0.00150489 0)
(-0.0784103 -0.0122472 0)
(-0.0762213 -0.0257734 0)
(-0.0721444 -0.0385274 0)
(-0.0660954 -0.049764 0)
(-0.0580582 -0.0584821 0)
(-0.048172 -0.0634126 0)
(-0.0368344 -0.0630794 0)
(-0.024791 -0.055957 0)
(-0.0131672 -0.0407332 0)
(-0.00332386 -0.0166488 0)
(-0.00341186 0.0194484 0)
(-0.0134782 0.0468174 0)
(-0.0251564 0.063595 0)
(-0.0370556 0.0712161 0)
(-0.0481276 0.0714925 0)
(-0.0577496 0.0662455 0)
(-0.0656434 0.0570762 0)
(-0.0717613 0.0452605 0)
(-0.0761757 0.0317375 0)
(-0.0789905 0.01716 0)
(-0.0802797 0.00198037 0)
(-0.0800502 -0.0134433 0)
(-0.0782271 -0.028731 0)
(-0.0746614 -0.0433613 0)
(-0.0691654 -0.0565575 0)
(-0.0615794 -0.0671933 0)
(-0.0518783 -0.0737442 0)
(-0.040313 -0.0743216 0)
(-0.0275607 -0.0668376 0)
(-0.0148316 -0.0493321 0)
(-0.00375683 -0.0204563 0)
(-0.00367704 0.0233413 0)
(-0.0145047 0.0553673 0)
(-0.026676 0.0741499 0)
(-0.0385889 0.0819062 0)
(-0.0491846 0.0811891 0)
(-0.0579679 0.0743983 0)
(-0.0648446 0.0635202 0)
(-0.069953 0.0500447 0)
(-0.0735232 0.0349941 0)
(-0.0757775 0.019014 0)
(-0.0768668 0.00249393 0)
(-0.0768331 -0.0143001 0)
(-0.0755935 -0.0310849 0)
(-0.0729421 -0.0474143 0)
(-0.0685769 -0.0625315 0)
(-0.0621633 -0.0752275 0)
(-0.0534483 -0.0837348 0)
(-0.0424385 -0.0857038 0)
(-0.0296282 -0.0783402 0)
(-0.0162237 -0.0587867 0)
(-0.00412499 -0.0247932 0)
(-0.00377221 0.0276145 0)
(-0.0148852 0.064358 0)
(-0.0268178 0.084708 0)
(-0.0377985 0.0920156 0)
(-0.046873 0.0898165 0)
(-0.0537933 0.081203 0)
(-0.0587384 0.0685691 0)
(-0.0620841 0.0535903 0)
(-0.0642412 0.0373252 0)
(-0.0655578 0.0203634 0)
(-0.0662643 0.00298613 0)
(-0.0664443 -0.0146761 0)
(-0.0660187 -0.0324844 0)
(-0.0647402 -0.0501254 0)
(-0.0622039 -0.0669314 0)
(-0.0578899 -0.081686 0)
(-0.0512668 -0.0924366 0)
(-0.0419885 -0.0963675 0)
(-0.0302028 -0.0898451 0)
(-0.0169471 -0.0688011 0)
(-0.00432577 -0.0296196 0)
(-0.00353368 0.032158 0)
(-0.0140255 0.0733254 0)
(-0.0244792 0.0944232 0)
(-0.0330808 0.100451 0)
(-0.0391735 0.0962123 0)
(-0.0429094 0.0855721 0)
(-0.044823 0.0712978 0)
(-0.045552 0.0551745 0)
(-0.0456785 0.0382202 0)
(-0.045655 0.0209088 0)
(-0.0457749 0.00336899 0)
(-0.0461603 -0.0144389 0)
(-0.0467525 -0.0325579 0)
(-0.0472969 -0.0508611 0)
(-0.0473297 -0.0688505 0)
(-0.0461816 -0.0854132 0)
(-0.0430377 -0.0985354 0)
(-0.0371121 -0.105016 0)
(-0.0280096 -0.100316 0)
(-0.0163252 -0.0788011 0)
(-0.00417962 -0.0348099 0)
(-0.0026591 0.0367462 0)
(-0.0108597 0.0814697 0)
(-0.0178149 0.101975 0)
(-0.0219472 0.105653 0)
(-0.0231777 0.0988508 0)
(-0.0222033 0.0861856 0)
(-0.01994 0.0706607 0)
(-0.0172435 0.0540272 0)
(-0.0147984 0.0371567 0)
(-0.0130966 0.0203434 0)
(-0.0124489 0.003534 0)
(-0.0129998 -0.0134942 0)
(-0.0147276 -0.0309785 0)
(-0.0174238 -0.0490104 0)
(-0.0206522 -0.0673356 0)
(-0.023701 -0.0850801 0)
(-0.0255621 -0.10037 0)
(-0.0250167 -0.109842 0)
(-0.0209611 -0.108143 0)
(-0.0131668 -0.0877816 0)
(-0.00336027 -0.0400924 0)
(-0.000535923 0.0409248 0)
(-0.00333878 0.0874254 0)
(-0.00359389 0.105365 0)
(-0.000449653 0.105522 0)
(0.00531298 0.0959053 0)
(0.0124416 0.0816361 0)
(0.0197672 0.0656632 0)
(0.0263831 0.0494909 0)
(0.0316546 0.0337241 0)
(0.0351669 0.0184309 0)
(0.0366664 0.00337603 0)
(0.0360196 -0.0118207 0)
(0.0331992 -0.0275612 0)
(0.0283049 -0.0441434 0)
(0.0216212 -0.0615927 0)
(0.0137123 -0.079399 0)
(0.00553869 -0.0960864 0)
(-0.00146885 -0.108527 0)
(-0.00553783 -0.110972 0)
(-0.00525295 -0.0940518 0)
(-0.00122367 -0.0449212 0)
(0.00425088 0.0437729 0)
(0.0127989 0.0888743 0)
(0.0240974 0.101709 0)
(0.0377795 0.0974969 0)
(0.052322 0.0855209 0)
(0.0663266 0.0707704 0)
(0.0787912 0.0556845 0)
(0.0890886 0.0412814 0)
(0.0968637 0.0278122 0)
(0.101927 0.0151202 0)
(0.10417 0.00283777 0)
(0.103512 -0.00950012 0)
(0.0998795 -0.0223787 0)
(0.0932145 -0.036228 0)
(0.083525 -0.0513137 0)
(0.0709862 -0.067538 0)
(0.0561073 -0.0840531 0)
(0.0399615 -0.0985022 0)
(0.0243999 -0.105608 0)
(0.0118619 -0.0948554 0)
(0.00368544 -0.048215 0)
(0.0158329 0.0430489 0)
(0.0471299 0.0815059 0)
(0.0763414 0.0869995 0)
(0.102897 0.0789691 0)
(0.126179 0.0664711 0)
(0.145878 0.0533142 0)
(0.16193 0.0409664 0)
(0.174412 0.0298321 0)
(0.183472 0.0198346 0)
(0.189252 0.0106784 0)
(0.191845 0.00196966 0)
(0.191256 -0.0067273 0)
(0.187384 -0.0158585 0)
(0.180017 -0.025853 0)
(0.168839 -0.0370783 0)
(0.153468 -0.0497414 0)
(0.13353 -0.0636534 0)
(0.108839 -0.0776437 0)
(0.0797758 -0.0881207 0)
(0.0478144 -0.0854983 0)
(0.0155486 -0.0475134 0)
(0.0495733 0.0348604 0)
(0.122772 0.0595009 0)
(0.173937 0.0577906 0)
(0.210281 0.0492223 0)
(0.237361 0.0397162 0)
(0.257885 0.0309205 0)
(0.273403 0.0232443 0)
(0.284862 0.0166436 0)
(0.292891 0.0109114 0)
(0.297905 0.00578317 0)
(0.300144 0.000976241 0)
(0.299687 -0.00379594 0)
(0.296443 -0.00881936 0)
(0.290138 -0.0143768 0)
(0.280273 -0.0207407 0)
(0.266041 -0.0281534 0)
(0.246168 -0.0367673 0)
(0.2186 -0.0464485 0)
(0.180081 -0.0560912 0)
(0.125147 -0.0603523 0)
(0.049689 -0.0385146 0)
(0.182886 0.00468657 0)
(0.296873 0.00837552 0)
(0.350973 0.0119683 0)
(0.378561 0.0117584 0)
(0.39555 0.00996176 0)
(0.406956 0.00787924 0)
(0.414958 0.00593839 0)
(0.420579 0.0042366 0)
(0.424381 0.00275279 0)
(0.426692 0.00142712 0)
(0.427693 0.000188294 0)
(0.427451 -0.00103652 0)
(0.42593 -0.00231704 0)
(0.422974 -0.00371443 0)
(0.418267 -0.00526919 0)
(0.411218 -0.00697155 0)
(0.400675 -0.00868753 0)
(0.384104 -0.00999573 0)
(0.355688 -0.00985797 0)
(0.298498 -0.00713964 0)
(0.181162 -0.00732724 0)
)
;

boundaryField
{
    movingWall
    {
        type            fixedValue;
        value           uniform (0.5 0 0);
    }
    fixedWalls
    {
        type            noSlip;
    }
    frontAndBack
    {
        type            empty;
    }
}


// ************************************************************************* //
