/*--------------------------------*- C++ -*----------------------------------*\
| =========                 |                                                 |
| \\      /  F ield         | OpenFOAM: The Open Source CFD Toolbox           |
|  \\    /   O peration     | Version:  4.1                                   |
|   \\  /    A nd           | Web:      www.OpenFOAM.org                      |
|    \\/     M anipulation  |                                                 |
\*---------------------------------------------------------------------------*/
FoamFile
{
    version     2.0;
    format      ascii;
    class       volScalarField;
    location    "258";
    object      p;
}
// * * * * * * * * * * * * * * * * * * * * * * * * * * * * * * * * * * * * * //

dimensions      [1 -1 -2 0 0 0 0];

internalField   nonuniform List<scalar> 
3264
(
0.712522
0.71252
0.712519
0.712519
0.712518
0.712519
0.71252
0.712522
0.712524
0.712527
0.712531
0.712535
0.71254
0.712546
0.712553
0.712561
0.71257
0.71258
0.712591
0.712603
0.712618
0.712634
0.712652
0.712672
0.712695
0.712722
0.712751
0.712785
0.712822
0.712864
0.71291
0.712961
0.713016
0.713076
0.713141
0.71321
0.713283
0.713359
0.713439
0.713521
0.713605
0.71369
0.713775
0.71386
0.713944
0.714025
0.714104
0.714179
0.714249
0.714315
0.714375
0.71443
0.714478
0.71452
0.714556
0.714586
0.714611
0.71463
0.714644
0.714654
0.71466
0.714663
0.714663
0.714661
0.714658
0.714653
0.714649
0.714644
0.71464
0.714636
0.714633
0.71463
0.714629
0.714628
0.714628
0.714629
0.714631
0.714632
0.714635
0.714637
0.714639
0.714641
0.714643
0.714645
0.714647
0.714649
0.71465
0.714651
0.714652
0.714653
0.714653
0.714654
0.714654
0.714655
0.714656
0.714656
0.714658
0.714659
0.714662
0.714665
0.714668
0.714673
0.714679
0.714686
0.714695
0.714704
0.714715
0.714727
0.71474
0.714754
0.714769
0.714784
0.7148
0.714816
0.714832
0.714847
0.714862
0.714875
0.714888
0.7149
0.71491
0.714919
0.714927
0.714933
0.714937
0.71494
0.714941
0.714941
0.714939
0.714936
0.714932
0.714927
0.714921
0.714914
0.714907
0.714899
0.71489
0.714881
0.714872
0.714863
0.714854
0.714844
0.714835
0.714826
0.714817
0.714808
0.714799
0.71479
0.714781
0.714772
0.714764
0.714755
0.714746
0.714738
0.714729
0.71472
0.714711
0.714702
0.714693
0.714684
0.714675
0.714665
0.714656
0.714646
0.714636
0.714627
0.714617
0.714607
0.714597
0.714587
0.714577
0.714567
0.714557
0.714547
0.714537
0.714527
0.714517
0.714507
0.714497
0.714487
0.714478
0.714468
0.714458
0.714448
0.714438
0.714428
0.714419
0.714409
0.714399
0.714389
0.714379
0.71437
0.71436
0.71435
0.71434
0.71433
0.71432
0.714311
0.714301
0.714291
0.712523
0.712522
0.712521
0.712521
0.712521
0.712521
0.712522
0.712524
0.712526
0.712529
0.712533
0.712537
0.712543
0.712549
0.712556
0.712564
0.712572
0.712582
0.712594
0.712606
0.71262
0.712636
0.712653
0.712674
0.712696
0.712722
0.712751
0.712784
0.71282
0.712861
0.712906
0.712956
0.713011
0.71307
0.713134
0.713202
0.713275
0.713351
0.71343
0.713512
0.713595
0.71368
0.713766
0.71385
0.713934
0.714015
0.714094
0.714169
0.714239
0.714305
0.714365
0.71442
0.714469
0.714511
0.714548
0.714578
0.714603
0.714622
0.714637
0.714647
0.714654
0.714657
0.714658
0.714657
0.714654
0.714651
0.714647
0.714643
0.71464
0.714637
0.714635
0.714633
0.714633
0.714633
0.714633
0.714634
0.714636
0.714637
0.714639
0.714641
0.714643
0.714645
0.714647
0.714649
0.71465
0.714651
0.714653
0.714653
0.714654
0.714655
0.714655
0.714655
0.714656
0.714656
0.714656
0.714657
0.714658
0.714659
0.714661
0.714664
0.714668
0.714672
0.714678
0.714685
0.714693
0.714702
0.714713
0.714725
0.714737
0.714751
0.714766
0.714781
0.714797
0.714813
0.714828
0.714844
0.714859
0.714873
0.714886
0.714898
0.714908
0.714917
0.714925
0.714931
0.714936
0.714939
0.71494
0.71494
0.714939
0.714936
0.714932
0.714927
0.714921
0.714914
0.714907
0.714899
0.714891
0.714882
0.714873
0.714863
0.714854
0.714845
0.714835
0.714826
0.714817
0.714808
0.714799
0.71479
0.714781
0.714772
0.714764
0.714755
0.714746
0.714738
0.714729
0.71472
0.714711
0.714702
0.714693
0.714684
0.714675
0.714665
0.714656
0.714646
0.714636
0.714627
0.714617
0.714607
0.714597
0.714587
0.714577
0.714567
0.714557
0.714547
0.714537
0.714527
0.714517
0.714507
0.714497
0.714487
0.714478
0.714468
0.714458
0.714448
0.714438
0.714428
0.714419
0.714409
0.714399
0.714389
0.714379
0.71437
0.71436
0.71435
0.71434
0.71433
0.71432
0.714311
0.714301
0.714291
0.712525
0.712523
0.712521
0.712521
0.712521
0.712521
0.712522
0.712523
0.712525
0.712528
0.712532
0.712537
0.712542
0.712548
0.712555
0.712563
0.712572
0.712581
0.712592
0.712604
0.712618
0.712633
0.712651
0.71267
0.712692
0.712717
0.712746
0.712778
0.712814
0.712854
0.712899
0.712948
0.713003
0.713062
0.713125
0.713193
0.713265
0.713341
0.71342
0.713502
0.713585
0.71367
0.713755
0.71384
0.713923
0.714004
0.714083
0.714157
0.714228
0.714293
0.714353
0.714408
0.714456
0.714499
0.714535
0.714565
0.71459
0.714609
0.714624
0.714634
0.71464
0.714644
0.714645
0.714644
0.714642
0.714639
0.714636
0.714633
0.71463
0.714628
0.714627
0.714626
0.714626
0.714628
0.714629
0.714632
0.714634
0.714637
0.71464
0.714643
0.714645
0.714647
0.714649
0.714651
0.714652
0.714653
0.714654
0.714655
0.714656
0.714656
0.714656
0.714657
0.714657
0.714657
0.714657
0.714658
0.714658
0.714659
0.714661
0.714664
0.714667
0.714671
0.714677
0.714683
0.714691
0.714701
0.714711
0.714723
0.714736
0.714749
0.714764
0.714779
0.714795
0.714811
0.714826
0.714842
0.714857
0.714871
0.714884
0.714896
0.714907
0.714916
0.714924
0.71493
0.714935
0.714938
0.714939
0.714939
0.714938
0.714935
0.714932
0.714927
0.714921
0.714914
0.714907
0.714899
0.714891
0.714882
0.714873
0.714864
0.714854
0.714845
0.714835
0.714826
0.714817
0.714808
0.714799
0.71479
0.714781
0.714772
0.714764
0.714755
0.714746
0.714738
0.714729
0.71472
0.714711
0.714702
0.714693
0.714684
0.714675
0.714665
0.714656
0.714646
0.714636
0.714627
0.714617
0.714607
0.714597
0.714587
0.714577
0.714567
0.714557
0.714547
0.714537
0.714527
0.714517
0.714507
0.714497
0.714487
0.714478
0.714468
0.714458
0.714448
0.714438
0.714428
0.714419
0.714409
0.714399
0.714389
0.714379
0.71437
0.71436
0.71435
0.71434
0.71433
0.71432
0.714311
0.714301
0.714291
0.712519
0.712519
0.712517
0.712518
0.712518
0.712519
0.712519
0.712521
0.712523
0.712526
0.71253
0.712535
0.71254
0.712546
0.712553
0.712561
0.71257
0.71258
0.71259
0.712602
0.712615
0.71263
0.712647
0.712666
0.712687
0.712712
0.712739
0.712771
0.712806
0.712846
0.71289
0.712939
0.712992
0.713051
0.713114
0.713182
0.713253
0.713329
0.713407
0.713488
0.713571
0.713655
0.713739
0.713823
0.713906
0.713986
0.714063
0.714136
0.714206
0.71427
0.714329
0.714382
0.714429
0.71447
0.714505
0.714534
0.714557
0.714576
0.71459
0.7146
0.714606
0.71461
0.714611
0.714611
0.71461
0.714608
0.714606
0.714604
0.714603
0.714603
0.714603
0.714604
0.714607
0.71461
0.714614
0.714618
0.714623
0.714628
0.714633
0.714638
0.714643
0.714647
0.71465
0.714653
0.714656
0.714658
0.714659
0.71466
0.71466
0.71466
0.71466
0.71466
0.71466
0.71466
0.71466
0.71466
0.71466
0.714661
0.714662
0.714665
0.714668
0.714672
0.714677
0.714683
0.714691
0.7147
0.71471
0.714721
0.714734
0.714747
0.714762
0.714777
0.714792
0.714808
0.714823
0.714839
0.714853
0.714867
0.71488
0.714892
0.714903
0.714912
0.71492
0.714926
0.714931
0.714934
0.714936
0.714936
0.714935
0.714933
0.714929
0.714925
0.714919
0.714913
0.714906
0.714898
0.71489
0.714882
0.714873
0.714864
0.714854
0.714845
0.714836
0.714827
0.714817
0.714808
0.714799
0.71479
0.714781
0.714773
0.714764
0.714755
0.714747
0.714738
0.714729
0.71472
0.714712
0.714703
0.714693
0.714684
0.714675
0.714665
0.714656
0.714646
0.714636
0.714627
0.714617
0.714607
0.714597
0.714587
0.714577
0.714567
0.714557
0.714547
0.714537
0.714527
0.714517
0.714507
0.714497
0.714487
0.714478
0.714468
0.714458
0.714448
0.714438
0.714428
0.714419
0.714409
0.714399
0.714389
0.714379
0.71437
0.71436
0.71435
0.71434
0.71433
0.71432
0.714311
0.714301
0.714291
0.712517
0.712516
0.712514
0.712514
0.712513
0.712514
0.712515
0.712516
0.712519
0.712522
0.712527
0.712531
0.712537
0.712544
0.712551
0.712559
0.712567
0.712577
0.712587
0.712599
0.712612
0.712627
0.712643
0.712662
0.712683
0.712707
0.712734
0.712765
0.7128
0.71284
0.712884
0.712932
0.712986
0.713044
0.713106
0.713173
0.713245
0.713319
0.713397
0.713477
0.713559
0.713641
0.713724
0.713806
0.713886
0.713964
0.714039
0.714109
0.714176
0.714237
0.714293
0.714343
0.714387
0.714425
0.714457
0.714483
0.714505
0.714521
0.714533
0.714542
0.714548
0.714551
0.714552
0.714552
0.714552
0.714551
0.71455
0.71455
0.714551
0.714553
0.714556
0.71456
0.714565
0.714572
0.714579
0.714587
0.714595
0.714604
0.714613
0.714622
0.71463
0.714637
0.714644
0.71465
0.714655
0.71466
0.714663
0.714665
0.714667
0.714668
0.714668
0.714668
0.714668
0.714667
0.714667
0.714667
0.714667
0.714667
0.714668
0.71467
0.714672
0.714676
0.714681
0.714687
0.714694
0.714703
0.714712
0.714723
0.714735
0.714748
0.714762
0.714777
0.714792
0.714807
0.714822
0.714836
0.71485
0.714864
0.714876
0.714888
0.714898
0.714907
0.714914
0.71492
0.714925
0.714928
0.71493
0.71493
0.714929
0.714927
0.714924
0.71492
0.714915
0.714909
0.714903
0.714896
0.714888
0.71488
0.714872
0.714863
0.714854
0.714846
0.714836
0.714827
0.714818
0.714809
0.7148
0.714791
0.714782
0.714774
0.714765
0.714756
0.714747
0.714738
0.71473
0.714721
0.714712
0.714703
0.714694
0.714684
0.714675
0.714665
0.714656
0.714646
0.714636
0.714627
0.714617
0.714607
0.714597
0.714587
0.714577
0.714567
0.714557
0.714547
0.714537
0.714527
0.714517
0.714507
0.714497
0.714487
0.714478
0.714468
0.714458
0.714448
0.714438
0.714428
0.714419
0.714409
0.714399
0.714389
0.714379
0.71437
0.71436
0.71435
0.71434
0.71433
0.71432
0.714311
0.714301
0.714291
0.712484
0.712499
0.712499
0.712505
0.712506
0.712509
0.712511
0.712513
0.712516
0.71252
0.712525
0.71253
0.712536
0.712542
0.712549
0.712557
0.712566
0.712576
0.712586
0.712598
0.712611
0.712625
0.712642
0.71266
0.712681
0.712705
0.712733
0.712764
0.712799
0.712838
0.712882
0.712931
0.712984
0.713042
0.713104
0.713171
0.713241
0.713315
0.713391
0.713469
0.713549
0.713629
0.713709
0.713788
0.713865
0.713939
0.714009
0.714075
0.714137
0.714193
0.714244
0.714289
0.714328
0.714361
0.714389
0.714412
0.714429
0.714443
0.714453
0.71446
0.714464
0.714467
0.714468
0.714469
0.714469
0.71447
0.714472
0.714474
0.714478
0.714483
0.714489
0.714496
0.714505
0.714515
0.714527
0.714539
0.714552
0.714565
0.714578
0.714592
0.714605
0.714618
0.71463
0.71464
0.71465
0.714659
0.714666
0.714671
0.714676
0.714679
0.714682
0.714683
0.714684
0.714684
0.714683
0.714683
0.714683
0.714682
0.714683
0.714684
0.714686
0.714689
0.714693
0.714698
0.714704
0.714712
0.714721
0.714731
0.714742
0.714754
0.714767
0.71478
0.714794
0.714808
0.714821
0.714835
0.714848
0.71486
0.714871
0.714882
0.714891
0.714899
0.714906
0.714911
0.714915
0.714918
0.71492
0.71492
0.71492
0.714918
0.714916
0.714912
0.714908
0.714903
0.714898
0.714892
0.714885
0.714878
0.71487
0.714862
0.714854
0.714846
0.714837
0.714828
0.71482
0.714811
0.714802
0.714793
0.714784
0.714775
0.714766
0.714757
0.714748
0.714739
0.71473
0.714721
0.714712
0.714703
0.714694
0.714684
0.714675
0.714665
0.714656
0.714646
0.714636
0.714626
0.714616
0.714606
0.714597
0.714587
0.714577
0.714567
0.714557
0.714547
0.714537
0.714527
0.714517
0.714507
0.714497
0.714487
0.714478
0.714468
0.714458
0.714448
0.714438
0.714428
0.714419
0.714409
0.714399
0.714389
0.714379
0.71437
0.71436
0.71435
0.71434
0.71433
0.71432
0.714311
0.714301
0.714291
0.712484
0.7125
0.712499
0.712502
0.712503
0.712505
0.712507
0.712511
0.712514
0.712519
0.712523
0.712529
0.712535
0.712542
0.712549
0.712558
0.712567
0.712576
0.712587
0.712599
0.712612
0.712627
0.712644
0.712663
0.712685
0.71271
0.712738
0.71277
0.712806
0.712846
0.71289
0.712939
0.712993
0.713051
0.713113
0.713179
0.713248
0.713321
0.713395
0.713471
0.713548
0.713624
0.7137
0.713775
0.713846
0.713915
0.713979
0.714039
0.714094
0.714144
0.714187
0.714225
0.714258
0.714285
0.714307
0.714325
0.714338
0.714348
0.714355
0.71436
0.714364
0.714366
0.714368
0.71437
0.714373
0.714376
0.71438
0.714386
0.714393
0.714401
0.714411
0.714422
0.714435
0.714449
0.714464
0.714481
0.714498
0.714516
0.714535
0.714554
0.714572
0.71459
0.714608
0.714624
0.71464
0.714654
0.714666
0.714677
0.714686
0.714693
0.714699
0.714704
0.714707
0.714709
0.71471
0.71471
0.71471
0.71471
0.71471
0.714711
0.714712
0.714714
0.714717
0.714721
0.714726
0.714732
0.714739
0.714747
0.714757
0.714767
0.714778
0.714789
0.714801
0.714813
0.714824
0.714836
0.714846
0.714857
0.714866
0.714875
0.714882
0.714889
0.714895
0.714899
0.714903
0.714905
0.714907
0.714908
0.714907
0.714906
0.714905
0.714902
0.714899
0.714895
0.714891
0.714886
0.71488
0.714874
0.714868
0.714861
0.714854
0.714846
0.714838
0.71483
0.714821
0.714813
0.714804
0.714795
0.714786
0.714777
0.714768
0.714759
0.71475
0.714741
0.714731
0.714722
0.714713
0.714703
0.714694
0.714684
0.714675
0.714665
0.714655
0.714645
0.714636
0.714626
0.714616
0.714606
0.714596
0.714586
0.714576
0.714567
0.714557
0.714547
0.714537
0.714527
0.714517
0.714507
0.714497
0.714488
0.714478
0.714468
0.714458
0.714448
0.714438
0.714429
0.714419
0.714409
0.714399
0.714389
0.714379
0.71437
0.71436
0.71435
0.71434
0.71433
0.71432
0.714311
0.714301
0.714291
0.712328
0.712467
0.712485
0.712506
0.712509
0.712512
0.712514
0.712517
0.71252
0.712523
0.712528
0.712533
0.712539
0.712546
0.712554
0.712562
0.712572
0.712582
0.712593
0.712606
0.71262
0.712636
0.712655
0.712675
0.712698
0.712725
0.712755
0.712788
0.712826
0.712867
0.712913
0.712963
0.713018
0.713076
0.713138
0.713203
0.713272
0.713342
0.713414
0.713487
0.71356
0.713632
0.713702
0.71377
0.713835
0.713896
0.713952
0.714004
0.71405
0.714091
0.714126
0.714156
0.714181
0.714201
0.714217
0.71423
0.71424
0.714247
0.714252
0.714257
0.714261
0.714264
0.714268
0.714273
0.714278
0.714285
0.714292
0.714301
0.714311
0.714323
0.714337
0.714351
0.714368
0.714386
0.714405
0.714425
0.714447
0.714469
0.714492
0.714516
0.714539
0.714562
0.714585
0.714607
0.714628
0.714648
0.714666
0.714682
0.714697
0.714709
0.71472
0.714729
0.714736
0.714741
0.714745
0.714747
0.714749
0.71475
0.71475
0.714751
0.714751
0.714752
0.714754
0.714756
0.714759
0.714763
0.714768
0.714774
0.714781
0.714789
0.714797
0.714805
0.714814
0.714822
0.714831
0.714839
0.714847
0.714855
0.714861
0.714868
0.714873
0.714878
0.714882
0.714885
0.714888
0.71489
0.714891
0.714892
0.714892
0.714892
0.714891
0.71489
0.714888
0.714886
0.714883
0.714879
0.714875
0.71487
0.714865
0.714859
0.714853
0.714846
0.714839
0.714831
0.714824
0.714815
0.714807
0.714798
0.714789
0.71478
0.71477
0.714761
0.714752
0.714742
0.714733
0.714723
0.714713
0.714704
0.714694
0.714684
0.714674
0.714665
0.714655
0.714645
0.714635
0.714625
0.714616
0.714606
0.714596
0.714586
0.714576
0.714566
0.714556
0.714547
0.714537
0.714527
0.714517
0.714507
0.714497
0.714488
0.714478
0.714468
0.714458
0.714448
0.714438
0.714429
0.714419
0.714409
0.714399
0.714389
0.714379
0.71437
0.71436
0.71435
0.71434
0.71433
0.71432
0.714311
0.714301
0.714291
0.71306
0.713003
0.712941
0.712874
0.712801
0.712723
0.712635
0.712516
0.713066
0.71302
0.712957
0.712888
0.712814
0.712736
0.712645
0.712548
0.71307
0.713031
0.712973
0.712908
0.712838
0.712767
0.712696
0.712625
0.713081
0.713046
0.712994
0.712933
0.712868
0.712804
0.712741
0.712683
0.713093
0.713061
0.713012
0.712955
0.712897
0.71284
0.712786
0.712738
0.713108
0.713075
0.713027
0.712973
0.712919
0.712867
0.71282
0.712778
0.713123
0.713086
0.713036
0.712984
0.712933
0.712885
0.712841
0.712802
0.713131
0.713084
0.713034
0.712984
0.712936
0.712891
0.712848
0.712809
0.712454
0.712474
0.712494
0.712505
0.712511
0.712515
0.712517
0.71252
0.712524
0.712528
0.712533
0.712539
0.712545
0.712553
0.712562
0.712571
0.712582
0.712594
0.712607
0.712621
0.712638
0.712656
0.712677
0.7127
0.712726
0.712756
0.712788
0.712825
0.712865
0.712909
0.712957
0.713009
0.713065
0.713124
0.713186
0.71325
0.713317
0.713385
0.713453
0.713522
0.713589
0.713654
0.713718
0.713777
0.713833
0.713885
0.713931
0.713973
0.714009
0.71404
0.714067
0.714088
0.714106
0.71412
0.714132
0.714141
0.714148
0.714155
0.714161
0.714166
0.714172
0.714179
0.714186
0.714194
0.714202
0.714212
0.714223
0.714235
0.714248
0.714263
0.714279
0.714297
0.714316
0.714337
0.714359
0.714382
0.714406
0.714432
0.714459
0.714486
0.714513
0.714541
0.714568
0.714594
0.71462
0.714645
0.714668
0.71469
0.714709
0.714727
0.714742
0.714756
0.714767
0.714776
0.714783
0.714789
0.714793
0.714795
0.714797
0.714798
0.714799
0.714799
0.7148
0.714801
0.714802
0.714804
0.714807
0.71481
0.714813
0.714817
0.714822
0.714826
0.714831
0.714836
0.714841
0.714845
0.71485
0.714854
0.714857
0.71486
0.714863
0.714866
0.714868
0.71487
0.714871
0.714873
0.714874
0.714875
0.714876
0.714876
0.714877
0.714877
0.714876
0.714876
0.714874
0.714872
0.71487
0.714867
0.714863
0.714858
0.714853
0.714847
0.714841
0.714834
0.714826
0.714818
0.71481
0.714801
0.714792
0.714783
0.714773
0.714763
0.714754
0.714744
0.714734
0.714724
0.714714
0.714704
0.714694
0.714684
0.714674
0.714664
0.714655
0.714645
0.714635
0.714625
0.714615
0.714605
0.714596
0.714586
0.714576
0.714566
0.714556
0.714546
0.714537
0.714527
0.714517
0.714507
0.714497
0.714488
0.714478
0.714468
0.714458
0.714448
0.714438
0.714429
0.714419
0.714409
0.714399
0.714389
0.714379
0.71437
0.71436
0.71435
0.71434
0.71433
0.71432
0.714311
0.714301
0.714291
0.712476
0.712485
0.712498
0.712511
0.712519
0.712524
0.712528
0.712532
0.712536
0.71254
0.712546
0.712552
0.71256
0.712569
0.712579
0.71259
0.712603
0.712617
0.712633
0.71265
0.71267
0.712692
0.712716
0.712743
0.712773
0.712807
0.712843
0.712884
0.712927
0.712975
0.713025
0.713079
0.713136
0.713196
0.713257
0.71332
0.713384
0.713448
0.713511
0.713574
0.713634
0.713691
0.713744
0.713794
0.713839
0.71388
0.713915
0.713946
0.713973
0.713995
0.714013
0.714028
0.714041
0.714052
0.714061
0.71407
0.714078
0.714087
0.714095
0.714104
0.714113
0.714123
0.714133
0.714144
0.714155
0.714167
0.714181
0.714195
0.71421
0.714226
0.714244
0.714263
0.714284
0.714306
0.71433
0.714355
0.714381
0.714409
0.714438
0.714467
0.714498
0.714528
0.714558
0.714589
0.714618
0.714647
0.714674
0.7147
0.714724
0.714746
0.714765
0.714783
0.714798
0.714811
0.714821
0.71483
0.714836
0.714841
0.714845
0.714847
0.714848
0.714848
0.714848
0.714848
0.714848
0.714847
0.714847
0.714847
0.714847
0.714848
0.714848
0.714849
0.71485
0.714851
0.714851
0.714852
0.714852
0.714853
0.714853
0.714853
0.714853
0.714854
0.714854
0.714855
0.714855
0.714856
0.714858
0.714859
0.71486
0.714862
0.714864
0.714865
0.714866
0.714867
0.714867
0.714866
0.714865
0.714864
0.714861
0.714857
0.714853
0.714848
0.714842
0.714836
0.714829
0.714821
0.714813
0.714804
0.714795
0.714785
0.714776
0.714766
0.714756
0.714746
0.714735
0.714725
0.714715
0.714705
0.714694
0.714684
0.714674
0.714664
0.714654
0.714644
0.714634
0.714625
0.714615
0.714605
0.714595
0.714585
0.714576
0.714566
0.714556
0.714546
0.714537
0.714527
0.714517
0.714507
0.714497
0.714488
0.714478
0.714468
0.714458
0.714448
0.714438
0.714429
0.714419
0.714409
0.714399
0.714389
0.714379
0.71437
0.71436
0.71435
0.71434
0.71433
0.71432
0.714311
0.714301
0.714291
0.712573
0.712549
0.712543
0.712543
0.712544
0.712546
0.712549
0.712551
0.712555
0.71256
0.712566
0.712573
0.712582
0.712592
0.712604
0.712618
0.712633
0.71265
0.71267
0.712691
0.712715
0.712741
0.71277
0.712802
0.712837
0.712876
0.712917
0.712961
0.713009
0.71306
0.713113
0.713169
0.713226
0.713285
0.713344
0.713404
0.713464
0.713522
0.713579
0.713633
0.713683
0.71373
0.713773
0.713811
0.713845
0.713875
0.7139
0.713922
0.713941
0.713957
0.713971
0.713984
0.713996
0.714007
0.714018
0.714029
0.714039
0.71405
0.714061
0.714072
0.714084
0.714096
0.714108
0.71412
0.714133
0.714147
0.714161
0.714176
0.714192
0.714209
0.714227
0.714247
0.714269
0.714291
0.714316
0.714342
0.714369
0.714398
0.714428
0.71446
0.714491
0.714524
0.714557
0.714589
0.714621
0.714653
0.714683
0.714712
0.714739
0.714764
0.714787
0.714808
0.714826
0.714842
0.714855
0.714866
0.714875
0.714882
0.714886
0.714889
0.714891
0.714892
0.714891
0.71489
0.714888
0.714886
0.714883
0.714881
0.714878
0.714875
0.714872
0.714869
0.714866
0.714863
0.71486
0.714857
0.714854
0.714851
0.714849
0.714846
0.714844
0.714843
0.714842
0.714842
0.714842
0.714843
0.714844
0.714846
0.714848
0.714851
0.714853
0.714856
0.714858
0.71486
0.714861
0.714862
0.714862
0.714862
0.71486
0.714857
0.714854
0.71485
0.714844
0.714838
0.714831
0.714824
0.714815
0.714807
0.714797
0.714788
0.714778
0.714768
0.714757
0.714747
0.714736
0.714726
0.714715
0.714705
0.714695
0.714684
0.714674
0.714664
0.714654
0.714644
0.714634
0.714624
0.714614
0.714605
0.714595
0.714585
0.714575
0.714566
0.714556
0.714546
0.714537
0.714527
0.714517
0.714507
0.714497
0.714488
0.714478
0.714468
0.714458
0.714448
0.714438
0.714429
0.714419
0.714409
0.714399
0.714389
0.714379
0.71437
0.71436
0.71435
0.71434
0.71433
0.71432
0.714311
0.714301
0.714291
0.712636
0.712609
0.712594
0.712587
0.712583
0.712581
0.71258
0.712581
0.712583
0.712587
0.712593
0.712601
0.71261
0.712622
0.712636
0.712651
0.712669
0.71269
0.712713
0.712738
0.712766
0.712797
0.712831
0.712867
0.712907
0.71295
0.712996
0.713044
0.713095
0.713148
0.713203
0.713259
0.713316
0.713373
0.713429
0.713484
0.713537
0.713588
0.713636
0.71368
0.71372
0.713757
0.713789
0.713817
0.713843
0.713866
0.713886
0.713904
0.713919
0.713934
0.713947
0.71396
0.713972
0.713985
0.713998
0.714011
0.714024
0.714037
0.71405
0.714062
0.714075
0.714087
0.7141
0.714113
0.714126
0.71414
0.714154
0.71417
0.714186
0.714203
0.714222
0.714242
0.714264
0.714287
0.714312
0.714338
0.714366
0.714396
0.714427
0.714459
0.714492
0.714526
0.71456
0.714594
0.714628
0.714661
0.714693
0.714724
0.714753
0.71478
0.714805
0.714828
0.714849
0.714866
0.714882
0.714894
0.714905
0.714913
0.714918
0.714922
0.714924
0.714925
0.714924
0.714922
0.714919
0.714915
0.71491
0.714905
0.7149
0.714894
0.714889
0.714883
0.714877
0.714871
0.714865
0.714859
0.714854
0.714849
0.714845
0.714841
0.714838
0.714835
0.714834
0.714833
0.714833
0.714834
0.714836
0.714838
0.714841
0.714844
0.714847
0.71485
0.714853
0.714856
0.714858
0.71486
0.714861
0.714861
0.71486
0.714858
0.714855
0.714851
0.714846
0.71484
0.714833
0.714826
0.714818
0.714809
0.714799
0.71479
0.71478
0.714769
0.714759
0.714748
0.714737
0.714727
0.714716
0.714705
0.714695
0.714684
0.714674
0.714664
0.714654
0.714644
0.714634
0.714624
0.714614
0.714604
0.714595
0.714585
0.714575
0.714566
0.714556
0.714546
0.714536
0.714527
0.714517
0.714507
0.714497
0.714488
0.714478
0.714468
0.714458
0.714448
0.714439
0.714429
0.714419
0.714409
0.714399
0.714389
0.714379
0.71437
0.71436
0.71435
0.71434
0.71433
0.71432
0.714311
0.714301
0.714291
0.712699
0.71267
0.712651
0.712637
0.712628
0.712621
0.712616
0.712614
0.712614
0.712616
0.712621
0.712629
0.712638
0.712651
0.712666
0.712684
0.712704
0.712727
0.712753
0.712782
0.712814
0.712848
0.712886
0.712927
0.71297
0.713017
0.713065
0.713116
0.713169
0.713223
0.713278
0.713332
0.713386
0.713438
0.713489
0.713537
0.713584
0.713627
0.713668
0.713705
0.713738
0.713767
0.713793
0.713815
0.713835
0.713853
0.71387
0.713887
0.713903
0.71392
0.713936
0.713951
0.713966
0.713981
0.713995
0.714008
0.714022
0.714034
0.714047
0.71406
0.714072
0.714085
0.714098
0.714111
0.714125
0.714139
0.714153
0.714169
0.714185
0.714203
0.714222
0.714242
0.714264
0.714287
0.714313
0.71434
0.714368
0.714398
0.71443
0.714462
0.714496
0.71453
0.714565
0.7146
0.714635
0.714669
0.714702
0.714734
0.714764
0.714792
0.714819
0.714843
0.714864
0.714883
0.7149
0.714913
0.714924
0.714933
0.714939
0.714943
0.714945
0.714945
0.714944
0.714941
0.714937
0.714932
0.714926
0.71492
0.714913
0.714905
0.714898
0.71489
0.714882
0.714874
0.714867
0.71486
0.714853
0.714847
0.714842
0.714837
0.714833
0.714831
0.714829
0.714828
0.714828
0.714829
0.714831
0.714834
0.714837
0.71484
0.714844
0.714847
0.714851
0.714854
0.714857
0.714859
0.71486
0.714861
0.71486
0.714858
0.714856
0.714852
0.714847
0.714841
0.714835
0.714827
0.714819
0.71481
0.714801
0.714791
0.714781
0.71477
0.714759
0.714749
0.714738
0.714727
0.714716
0.714705
0.714695
0.714684
0.714674
0.714664
0.714654
0.714644
0.714634
0.714624
0.714614
0.714604
0.714595
0.714585
0.714575
0.714566
0.714556
0.714546
0.714536
0.714527
0.714517
0.714507
0.714497
0.714488
0.714478
0.714468
0.714458
0.714448
0.714439
0.714429
0.714419
0.714409
0.714399
0.714389
0.714379
0.71437
0.71436
0.71435
0.71434
0.71433
0.71432
0.714311
0.714301
0.714291
0.712742
0.712714
0.712691
0.712674
0.71266
0.712649
0.712641
0.712636
0.712635
0.712636
0.71264
0.712647
0.712657
0.712671
0.712687
0.712706
0.712728
0.712753
0.712781
0.712812
0.712846
0.712883
0.712923
0.712966
0.713011
0.713059
0.713109
0.71316
0.713212
0.713265
0.713318
0.71337
0.713421
0.713469
0.713515
0.713559
0.713599
0.713636
0.71367
0.7137
0.713728
0.713753
0.713777
0.7138
0.713823
0.713845
0.713866
0.713885
0.713903
0.71392
0.713935
0.71395
0.713965
0.713979
0.713993
0.714006
0.71402
0.714033
0.714046
0.714059
0.714072
0.714085
0.714098
0.714111
0.714125
0.714139
0.714154
0.71417
0.714187
0.714205
0.714224
0.714245
0.714267
0.714291
0.714316
0.714344
0.714372
0.714403
0.714435
0.714468
0.714502
0.714536
0.714571
0.714607
0.714642
0.714676
0.71471
0.714742
0.714773
0.714801
0.714828
0.714853
0.714874
0.714894
0.71491
0.714924
0.714935
0.714944
0.71495
0.714954
0.714956
0.714956
0.714954
0.71495
0.714946
0.71494
0.714933
0.714926
0.714918
0.714909
0.714901
0.714892
0.714883
0.714875
0.714867
0.714859
0.714852
0.714846
0.71484
0.714836
0.714832
0.714829
0.714827
0.714827
0.714827
0.714828
0.71483
0.714832
0.714836
0.714839
0.714843
0.714847
0.71485
0.714854
0.714856
0.714859
0.71486
0.71486
0.71486
0.714858
0.714856
0.714852
0.714847
0.714842
0.714835
0.714828
0.714819
0.71481
0.714801
0.714791
0.714781
0.71477
0.71476
0.714749
0.714738
0.714727
0.714716
0.714706
0.714695
0.714684
0.714674
0.714664
0.714654
0.714644
0.714634
0.714624
0.714614
0.714604
0.714595
0.714585
0.714575
0.714565
0.714556
0.714546
0.714536
0.714527
0.714517
0.714507
0.714497
0.714488
0.714478
0.714468
0.714458
0.714448
0.714439
0.714429
0.714419
0.714409
0.714399
0.714389
0.714379
0.71437
0.71436
0.71435
0.71434
0.71433
0.71432
0.714311
0.714301
0.714291
0.712768
0.712739
0.712714
0.712694
0.712677
0.712664
0.712654
0.712647
0.712645
0.712645
0.712649
0.712657
0.712667
0.712681
0.712698
0.712718
0.712741
0.712767
0.712796
0.712828
0.712863
0.712901
0.712941
0.712985
0.71303
0.713077
0.713127
0.713177
0.713227
0.713278
0.713327
0.713375
0.713421
0.713465
0.713507
0.713547
0.713586
0.713624
0.71366
0.713694
0.713725
0.713753
0.713779
0.713802
0.713824
0.713845
0.713864
0.713882
0.7139
0.713916
0.713933
0.713948
0.713963
0.713978
0.713992
0.714006
0.714019
0.714033
0.714046
0.714059
0.714072
0.714085
0.714098
0.714112
0.714125
0.71414
0.714155
0.714171
0.714188
0.714206
0.714226
0.714247
0.71427
0.714294
0.714319
0.714347
0.714376
0.714407
0.714439
0.714472
0.714506
0.714541
0.714576
0.714611
0.714646
0.714681
0.714714
0.714746
0.714777
0.714806
0.714833
0.714857
0.714879
0.714898
0.714914
0.714928
0.714939
0.714948
0.714954
0.714957
0.714959
0.714959
0.714956
0.714953
0.714948
0.714942
0.714934
0.714927
0.714918
0.71491
0.714901
0.714892
0.714883
0.714875
0.714867
0.714859
0.714852
0.714846
0.71484
0.714836
0.714832
0.714829
0.714827
0.714827
0.714827
0.714828
0.71483
0.714833
0.714836
0.714839
0.714843
0.714847
0.71485
0.714854
0.714856
0.714859
0.71486
0.71486
0.71486
0.714858
0.714856
0.714852
0.714847
0.714841
0.714835
0.714827
0.714819
0.71481
0.714801
0.714791
0.714781
0.71477
0.71476
0.714749
0.714738
0.714727
0.714716
0.714706
0.714695
0.714684
0.714674
0.714664
0.714654
0.714644
0.714634
0.714624
0.714614
0.714604
0.714595
0.714585
0.714575
0.714565
0.714556
0.714546
0.714536
0.714527
0.714517
0.714507
0.714497
0.714488
0.714478
0.714468
0.714458
0.714448
0.714439
0.714429
0.714419
0.714409
0.714399
0.714389
0.714379
0.71437
0.71436
0.71435
0.71434
0.71433
0.71432
0.714311
0.714301
0.714291
0.712775
0.712744
0.712717
0.712694
0.712676
0.712661
0.71265
0.712643
0.71264
0.712641
0.712645
0.712652
0.712663
0.712677
0.712694
0.712714
0.712737
0.712762
0.712791
0.712823
0.712857
0.712894
0.712934
0.712976
0.71302
0.713067
0.713114
0.713164
0.713214
0.713264
0.713314
0.713363
0.71341
0.713457
0.713501
0.713543
0.713583
0.713621
0.713657
0.713689
0.713719
0.713747
0.713772
0.713797
0.71382
0.713841
0.713862
0.713881
0.713899
0.713916
0.713932
0.713948
0.713963
0.713977
0.713991
0.714005
0.714019
0.714032
0.714045
0.714058
0.714071
0.714084
0.714098
0.714111
0.714125
0.71414
0.714155
0.714172
0.714189
0.714208
0.714228
0.714249
0.714272
0.714296
0.714323
0.71435
0.71438
0.714411
0.714443
0.714476
0.714511
0.714546
0.714581
0.714616
0.714652
0.714686
0.71472
0.714752
0.714782
0.714811
0.714837
0.714862
0.714883
0.714902
0.714918
0.714932
0.714942
0.71495
0.714956
0.714959
0.71496
0.714959
0.714957
0.714953
0.714947
0.714941
0.714933
0.714926
0.714917
0.714908
0.7149
0.714891
0.714882
0.714874
0.714866
0.714858
0.714851
0.714845
0.71484
0.714836
0.714832
0.71483
0.714828
0.714828
0.714828
0.714829
0.714831
0.714834
0.714837
0.714841
0.714844
0.714848
0.714852
0.714855
0.714857
0.714859
0.714861
0.714861
0.71486
0.714858
0.714856
0.714852
0.714847
0.714841
0.714835
0.714827
0.714819
0.71481
0.714801
0.714791
0.714781
0.71477
0.714759
0.714749
0.714738
0.714727
0.714716
0.714706
0.714695
0.714684
0.714674
0.714664
0.714654
0.714644
0.714634
0.714624
0.714614
0.714604
0.714595
0.714585
0.714575
0.714565
0.714556
0.714546
0.714536
0.714527
0.714517
0.714507
0.714497
0.714488
0.714478
0.714468
0.714458
0.714448
0.714439
0.714429
0.714419
0.714409
0.714399
0.714389
0.714379
0.71437
0.71436
0.71435
0.71434
0.71433
0.71432
0.714311
0.714301
0.714291
)
;

boundaryField
{
    inlet
    {
        type            zeroGradient;
    }
    outlet
    {
        type            fixedValue;