/*--------------------------------*- C++ -*----------------------------------*\
| =========                 |                                                 |
| \\      /  F ield         | OpenFOAM: The Open Source CFD Toolbox           |
|  \\    /   O peration     | Version:  4.1                                   |
|   \\  /    A nd           | Web:      www.OpenFOAM.org                      |
|    \\/     M anipulation  |                                                 |
\*---------------------------------------------------------------------------*/
FoamFile
{
    version     2.0;
    format      ascii;
    class       volVectorField;
    location    "4740";
    object      U;
}
// * * * * * * * * * * * * * * * * * * * * * * * * * * * * * * * * * * * * * //

dimensions      [0 1 -1 0 0 0 0];

internalField   nonuniform List<vector> 
1275
(
(0.0902809 -0.000663101 0)
(0.0901847 -0.000668364 0)
(0.0900532 -0.000662744 0)
(0.0899777 -0.000669766 0)
(0.0898197 -0.00065976 0)
(0.0882625 -0.00240599 0)
(0.0876438 -0.00195735 0)
(0.0871116 -0.00153786 0)
(0.0866609 -0.00113973 0)
(0.0862895 -0.000765453 0)
(0.0859925 -0.000411332 0)
(0.0857666 -7.74715e-05 0)
(0.085607 0.000238479 0)
(0.08551 0.000537143 0)
(0.085471 0.00082027 0)
(0.0854861 0.00108869 0)
(0.085551 0.00134378 0)
(0.0856621 0.0015864 0)
(0.0858152 0.00181766 0)
(0.086007 0.00203834 0)
(0.0862337 0.00224936 0)
(0.0864922 0.00245137 0)
(0.0867793 0.00264513 0)
(0.0870919 0.00283119 0)
(0.0874272 0.00301012 0)
(0.0877825 0.00318238 0)
(0.0881553 0.0033484 0)
(0.0885431 0.00350852 0)
(0.0889438 0.00366304 0)
(0.089355 0.0038122 0)
(0.0897748 0.00395619 0)
(0.0902011 0.00409514 0)
(0.0906323 0.00422914 0)
(0.0910664 0.00435823 0)
(0.0915017 0.00448241 0)
(0.0919368 0.00460163 0)
(0.0923701 0.00471581 0)
(0.0928 0.00482483 0)
(0.0932252 0.00492855 0)
(0.0936444 0.00502679 0)
(0.0940563 0.00511934 0)
(0.0944597 0.00520598 0)
(0.0948534 0.00528648 0)
(0.0952364 0.00536058 0)
(0.0956077 0.00542802 0)
(0.0959663 0.00548854 0)
(0.0963114 0.00554188 0)
(0.0966421 0.00558778 0)
(0.0969578 0.005626 0)
(0.0972577 0.0056563 0)
(0.0975413 0.00567848 0)
(0.0978081 0.00569235 0)
(0.0980577 0.00569775 0)
(0.0982897 0.00569455 0)
(0.0985039 0.00568266 0)
(0.0987002 0.00566202 0)
(0.0988784 0.00563262 0)
(0.0990385 0.00559448 0)
(0.0991806 0.00554768 0)
(0.0993049 0.00549232 0)
(0.0994115 0.00542856 0)
(0.0995008 0.0053566 0)
(0.0995731 0.00527668 0)
(0.0996288 0.00518909 0)
(0.0996685 0.00509414 0)
(0.0996925 0.00499218 0)
(0.0997016 0.00488362 0)
(0.0996963 0.00476887 0)
(0.0996772 0.00464837 0)
(0.099645 0.0045226 0)
(0.0996004 0.00439202 0)
(0.0995442 0.00425716 0)
(0.0994769 0.00411851 0)
(0.0993994 0.00397659 0)
(0.0993123 0.00383192 0)
(0.0992163 0.00368502 0)
(0.0991121 0.00353639 0)
(0.0990005 0.00338653 0)
(0.098882 0.00323594 0)
(0.0987574 0.00308509 0)
(0.0986271 0.00293444 0)
(0.0984918 0.00278442 0)
(0.098352 0.00263546 0)
(0.0982083 0.00248794 0)
(0.0980611 0.00234224 0)
(0.097911 0.0021987 0)
(0.0977582 0.00205764 0)
(0.0976032 0.00191935 0)
(0.0974464 0.00178411 0)
(0.0972881 0.00165214 0)
(0.0971286 0.00152367 0)
(0.0969682 0.00139889 0)
(0.096807 0.00127795 0)
(0.0966454 0.00116099 0)
(0.0964834 0.00104814 0)
(0.0963214 0.00093949 0)
(0.0961593 0.000835107 0)
(0.0959975 0.000735044 0)
(0.0958359 0.000639335 0)
(0.0956746 0.000547994 0)
(0.0955138 0.000461018 0)
(0.0953536 0.000378389 0)
(0.0951938 0.000300072 0)
(0.0950347 0.000226024 0)
(0.0948763 0.000156178 0)
(0.0947186 9.04767e-05 0)
(0.0945615 2.88174e-05 0)
(0.0944052 -2.88577e-05 0)
(0.0942497 -8.2696e-05 0)
(0.0940949 -0.000132732 0)
(0.0939408 -0.000179183 0)
(0.0937877 -0.000222015 0)
(0.0936351 -0.000261573 0)
(0.0934837 -0.000297663 0)
(0.0933325 -0.000330874 0)
(0.0931831 -0.00036069 0)
(0.0930328 -0.000388161 0)
(0.0928859 -0.000412143 0)
(0.0927358 -0.000434546 0)
(0.0925929 -0.000453076 0)
(0.0924408 -0.000471168 0)
(0.0923052 -0.000484537 0)
(0.0921459 -0.00049915 0)
(0.0920259 -0.00050759 0)
(0.0918465 -0.000519502 0)
(0.0917623 -0.00052345 0)
(0.0915323 -0.00053266 0)
(0.0914365 -0.000533207 0)
(0.0913213 -0.000540391 0)
(0.0911525 -0.000536723 0)
(0.0910607 -0.000542388 0)
(0.0908578 -0.000536337 0)
(0.0671959 -0.00170484 0)
(0.0665991 -0.00135866 0)
(0.0661048 -0.00103503 0)
(0.065712 -0.000729715 0)
(0.0654131 -0.000442944 0)
(0.0652029 -0.000171805 0)
(0.0650756 8.41637e-05 0)
(0.0650254 0.000327063 0)
(0.0650471 0.000557598 0)
(0.0651354 0.000777335 0)
(0.0652852 0.000987015 0)
(0.0654919 0.00118783 0)
(0.0657508 0.00138046 0)
(0.0660579 0.00156582 0)
(0.0664091 0.0017445 0)
(0.0668007 0.0019172 0)
(0.0672291 0.00208442 0)
(0.0676911 0.00224667 0)
(0.0681837 0.00240436 0)
(0.0687038 0.00255787 0)
(0.0692489 0.0027075 0)
(0.0698163 0.00285352 0)
(0.0704036 0.00299613 0)
(0.0710086 0.00313551 0)
(0.0716292 0.00327176 0)
(0.0722632 0.00340497 0)
(0.0729087 0.00353517 0)
(0.0735639 0.00366236 0)
(0.0742269 0.00378649 0)
(0.0748961 0.00390748 0)
(0.0755698 0.00402521 0)
(0.0762464 0.00413953 0)
(0.0769243 0.00425027 0)
(0.0776021 0.0043572 0)
(0.0782783 0.00446011 0)
(0.0789514 0.00455872 0)
(0.0796202 0.00465276 0)
(0.0802832 0.00474193 0)
(0.0809391 0.00482593 0)
(0.0815867 0.00490443 0)
(0.0822249 0.0049771 0)
(0.0828523 0.00504363 0)
(0.083468 0.0051037 0)
(0.0840709 0.00515698 0)
(0.0846598 0.00520317 0)
(0.085234 0.005242 0)
(0.0857925 0.0052732 0)
(0.0863345 0.00529652 0)
(0.0868592 0.00531177 0)
(0.087366 0.00531877 0)
(0.0878542 0.00531738 0)
(0.0883234 0.0053075 0)
(0.0887731 0.00528908 0)
(0.0892028 0.0052621 0)
(0.0896124 0.00522659 0)
(0.0900016 0.00518264 0)
(0.0903702 0.00513037 0)
(0.0907183 0.00506994 0)
(0.0910457 0.00500157 0)
(0.0913527 0.00492553 0)
(0.0916393 0.00484209 0)
(0.0919058 0.00475161 0)
(0.0921524 0.00465445 0)
(0.0923795 0.00455101 0)
(0.0925875 0.00444173 0)
(0.0927767 0.00432706 0)
(0.0929477 0.00420747 0)
(0.093101 0.00408345 0)
(0.093237 0.0039555 0)
(0.0933564 0.00382413 0)
(0.0934597 0.00368986 0)
(0.0935475 0.00355319 0)
(0.0936204 0.00341463 0)
(0.093679 0.00327468 0)
(0.093724 0.00313382 0)
(0.093756 0.00299254 0)
(0.0937754 0.00285127 0)
(0.0937831 0.00271047 0)
(0.0937794 0.00257055 0)
(0.0937651 0.00243191 0)
(0.0937407 0.0022949 0)
(0.0937067 0.00215988 0)
(0.0936636 0.00202716 0)
(0.093612 0.00189705 0)
(0.0935524 0.00176979 0)
(0.0934851 0.00164564 0)
(0.0934108 0.00152481 0)
(0.0933298 0.00140748 0)
(0.0932425 0.00129382 0)
(0.0931494 0.00118396 0)
(0.0930507 0.00107803 0)
(0.092947 0.000976104 0)
(0.0928385 0.000878261 0)
(0.0927255 0.000784549 0)
(0.0926084 0.000694999 0)
(0.0924875 0.000609623 0)
(0.092363 0.000528416 0)
(0.0922353 0.000451356 0)
(0.0921046 0.000378409 0)
(0.0919711 0.000309524 0)
(0.0918351 0.000244643 0)
(0.0916968 0.00018369 0)
(0.0915564 0.000126586 0)
(0.0914141 7.32322e-05 0)
(0.0912702 2.35447e-05 0)
(0.0911248 -2.26126e-05 0)
(0.090978 -6.53041e-05 0)
(0.0908302 -0.000104725 0)
(0.0906812 -0.000140877 0)
(0.0905318 -0.000174075 0)
(0.0903812 -0.000204157 0)
(0.0902308 -0.000231699 0)
(0.0900789 -0.000256157 0)
(0.0899283 -0.000278694 0)
(0.0897754 -0.000297881 0)
(0.0896255 -0.000316224 0)
(0.0894714 -0.000330261 0)
(0.0893235 -0.000345554 0)
(0.0891677 -0.00035409 0)
(0.0890232 -0.000368038 0)
(0.0888651 -0.000370282 0)
(0.0887246 -0.000383977 0)
(0.0885628 -0.000383344 0)
(0.0884348 -0.000390818 0)
(0.088256 -0.000390376 0)
(0.0881586 -0.000394526 0)
(0.0879404 -0.000393072 0)
(0.045096 -0.00109384 0)
(0.0446749 -0.000864767 0)
(0.044356 -0.000649704 0)
(0.0441334 -0.00044687 0)
(0.0439992 -0.000255321 0)
(0.0439474 -7.29089e-05 0)
(0.0439717 0.000100887 0)
(0.0440666 0.000267694 0)
(0.0442266 0.000427988 0)
(0.0444471 0.000582923 0)
(0.0447233 0.000732932 0)
(0.0450513 0.00087883 0)
(0.0454271 0.00102099 0)
(0.0458472 0.00115999 0)
(0.0463084 0.00129614 0)
(0.0468075 0.00142985 0)
(0.0473418 0.00156137 0)
(0.0479086 0.00169098 0)
(0.0485055 0.00181887 0)
(0.0491303 0.00194524 0)
(0.0497807 0.0020702 0)
(0.0504548 0.00219388 0)
(0.0511507 0.00231633 0)
(0.0518665 0.00243762 0)
(0.0526005 0.00255775 0)
(0.0533511 0.0026767 0)
(0.0541167 0.00279442 0)
(0.0548957 0.00291085 0)
(0.0556866 0.00302587 0)
(0.056488 0.00313935 0)
(0.0572985 0.00325113 0)
(0.0581166 0.00336103 0)
(0.0589409 0.00346882 0)
(0.05977 0.00357427 0)
(0.0606026 0.00367712 0)
(0.0614374 0.00377708 0)
(0.0622729 0.00387385 0)
(0.0631078 0.0039671 0)
(0.0639407 0.00405651 0)
(0.0647705 0.00414172 0)
(0.0655956 0.00422239 0)
(0.0664149 0.00429816 0)
(0.0672271 0.00436867 0)
(0.0680308 0.00443356 0)
(0.0688249 0.0044925 0)
(0.0696082 0.00454514 0)
(0.0703795 0.00459118 0)
(0.0711377 0.00463032 0)
(0.0718816 0.00466229 0)
(0.0726104 0.00468686 0)
(0.0733229 0.00470381 0)
(0.0740183 0.00471299 0)
(0.0746958 0.00471424 0)
(0.0753545 0.0047075 0)
(0.0759938 0.00469272 0)
(0.076613 0.00466988 0)
(0.0772115 0.00463905 0)
(0.0777889 0.00460031 0)
(0.0783448 0.0045538 0)
(0.0788787 0.00449969 0)
(0.0793905 0.00443822 0)
(0.0798799 0.00436966 0)
(0.0803469 0.00429429 0)
(0.0807915 0.00421247 0)
(0.0812135 0.00412457 0)
(0.0816132 0.00403098 0)
(0.0819906 0.00393212 0)
(0.0823461 0.00382845 0)
(0.0826797 0.00372042 0)
(0.082992 0.00360851 0)
(0.0832832 0.00349319 0)
(0.0835537 0.00337495 0)
(0.083804 0.00325427 0)
(0.0840345 0.00313164 0)
(0.0842457 0.00300753 0)
(0.0844381 0.0028824 0)
(0.0846124 0.00275671 0)
(0.084769 0.00263088 0)
(0.0849085 0.00250533 0)
(0.0850314 0.00238046 0)
(0.0851385 0.00225665 0)
(0.0852302 0.00213425 0)
(0.0853072 0.00201357 0)
(0.08537 0.00189493 0)
(0.0854192 0.00177861 0)
(0.0854555 0.00166485 0)
(0.0854793 0.00155388 0)
(0.0854913 0.00144591 0)
(0.085492 0.00134111 0)
(0.085482 0.00123963 0)
(0.0854618 0.0011416 0)
(0.085432 0.00104713 0)
(0.085393 0.000956298 0)
(0.0853453 0.000869177 0)
(0.0852896 0.000785809 0)
(0.0852261 0.000706217 0)
(0.0851555 0.000630413 0)
(0.0850781 0.000558387 0)
(0.0849944 0.000490119 0)
(0.0849049 0.00042557 0)
(0.0848099 0.000364697 0)
(0.0847098 0.00030743 0)
(0.084605 0.000253712 0)
(0.0844959 0.000203446 0)
(0.0843829 0.000156568 0)
(0.0842663 0.000112947 0)
(0.0841464 7.25335e-05 0)
(0.0840235 3.51461e-05 0)
(0.083898 7.74952e-07 0)
(0.0837701 -3.08325e-05 0)
(0.0836401 -5.96145e-05 0)
(0.0835083 -8.59239e-05 0)
(0.083375 -0.000109595 0)
(0.0832402 -0.000131097 0)
(0.0831044 -0.000150161 0)
(0.0829679 -0.000167328 0)
(0.0828301 -0.000182332 0)
(0.0826931 -0.000195579 0)
(0.0825531 -0.000207121 0)
(0.082418 -0.000216816 0)
(0.082274 -0.000225406 0)
(0.0821455 -0.000232129 0)
(0.0819928 -0.000237575 0)
(0.0818771 -0.000242826 0)
(0.0817089 -0.000246477 0)
(0.0816204 -0.000248491 0)
(0.0814163 -0.000251844 0)
(0.0261554 -0.00075031 0)
(0.0259453 -0.0006187 0)
(0.0258104 -0.000493255 0)
(0.0257475 -0.000372769 0)
(0.0257497 -0.000256807 0)
(0.0258137 -0.00014424 0)
(0.0259345 -3.48382e-05 0)
(0.0261089 7.22618e-05 0)
(0.0263331 0.000177241 0)
(0.0266042 0.000280718 0)
(0.0269192 0.000382857 0)
(0.0272756 0.000484092 0)
(0.027671 0.000584567 0)
(0.0281032 0.000684587 0)
(0.0285701 0.000784269 0)
(0.0290699 0.000883826 0)
(0.0296008 0.000983346 0)
(0.0301611 0.00108297 0)
(0.0307494 0.00118276 0)
(0.0313641 0.0012828 0)
(0.0320039 0.00138312 0)
(0.0326676 0.00148375 0)
(0.0333537 0.00158469 0)
(0.0340612 0.00168593 0)
(0.0347889 0.00178743 0)
(0.0355355 0.00188913 0)
(0.0363001 0.00199096 0)
(0.0370815 0.00209281 0)
(0.0378786 0.00219456 0)
(0.0386902 0.00229608 0)
(0.0395154 0.00239718 0)
(0.0403529 0.00249769 0)
(0.0412017 0.00259738 0)
(0.0420606 0.00269603 0)
(0.0429284 0.00279337 0)
(0.043804 0.00288914 0)
(0.0446862 0.00298303 0)
(0.0455737 0.00307473 0)
(0.0464654 0.00316392 0)
(0.0473598 0.00325025 0)
(0.0482559 0.00333336 0)
(0.0491521 0.00341292 0)
(0.0500474 0.00348853 0)
(0.0509402 0.00355986 0)
(0.0518294 0.00362653 0)
(0.0527136 0.00368819 0)
(0.0535915 0.00374451 0)
(0.0544617 0.00379516 0)
(0.0553231 0.00383984 0)
(0.0561743 0.00387826 0)
(0.0570141 0.00391017 0)
(0.0578414 0.00393535 0)
(0.0586549 0.00395362 0)
(0.0594537 0.00396483 0)
(0.0602365 0.00396885 0)
(0.0610025 0.00396564 0)
(0.0617507 0.00395515 0)
(0.0624803 0.00393741 0)
(0.0631904 0.00391248 0)
(0.0638803 0.00388046 0)
(0.0645494 0.00384151 0)
(0.0651971 0.0037958 0)
(0.0658229 0.00374356 0)
(0.0664264 0.00368506 0)
(0.0670073 0.0036206 0)
(0.0675652 0.00355051 0)
(0.0681 0.00347513 0)
(0.0686115 0.00339485 0)
(0.0690997 0.00331006 0)
(0.0695647 0.00322119 0)
(0.0700065 0.00312865 0)
(0.0704251 0.00303287 0)
(0.070821 0.00293431 0)
(0.0711942 0.00283339 0)
(0.0715451 0.00273054 0)
(0.0718741 0.00262621 0)
(0.0721815 0.00252081 0)
(0.0724677 0.00241475 0)
(0.0727333 0.00230841 0)
(0.0729788 0.00220219 0)
(0.0732045 0.00209643 0)
(0.0734112 0.00199148 0)
(0.0735993 0.00188765 0)
(0.0737695 0.00178524 0)
(0.0739223 0.00168453 0)
(0.0740584 0.00158576 0)
(0.0741784 0.00148916 0)
(0.0742828 0.00139494 0)
(0.0743724 0.00130327 0)
(0.0744478 0.00121432 0)
(0.0745095 0.00112822 0)
(0.0745582 0.00104508 0)
(0.0745945 0.000965 0)
(0.0746191 0.000888055 0)
(0.0746325 0.000814298 0)
(0.0746353 0.000743769 0)
(0.0746281 0.00067649 0)
(0.0746116 0.000612465 0)
(0.0745862 0.000551688 0)
(0.0745525 0.000494135 0)
(0.074511 0.000439775 0)
(0.0744623 0.000388557 0)
(0.0744068 0.000340437 0)
(0.0743451 0.000295333 0)
(0.0742776 0.000253198 0)
(0.0742048 0.000213915 0)
(0.0741272 0.000177456 0)
(0.074045 0.00014364 0)
(0.0739588 0.000112506 0)
(0.073869 8.37559e-05 0)
(0.0737758 5.75764e-05 0)
(0.0736798 3.34412e-05 0)
(0.073581 1.18506e-05 0)
(0.0734802 -8.17368e-06 0)
(0.0733769 -2.55094e-05 0)
(0.0732728 -4.19923e-05 0)
(0.0731659 -5.53541e-05 0)
(0.07306 -6.89202e-05 0)
(0.0729497 -7.85914e-05 0)
(0.072844 -8.97551e-05 0)
(0.0727296 -9.64062e-05 0)
(0.0726276 -0.000104872 0)
(0.0725062 -0.000110643 0)
(0.0724145 -0.000114654 0)
(0.0722786 -0.000121372 0)
(0.0722087 -0.000121323 0)
(0.072045 -0.000129084 0)
(0.0121933 -0.000588757 0)
(0.0120843 -0.000519532 0)
(0.0120248 -0.000451938 0)
(0.0120126 -0.000386263 0)
(0.0120446 -0.000321723 0)
(0.0121188 -0.00025787 0)
(0.0122328 -0.000194462 0)
(0.012385 -0.000131011 0)
(0.0125734 -6.74132e-05 0)
(0.0127967 -3.29583e-06 0)
(0.0130533 6.14054e-05 0)
(0.0133421 0.000126947 0)
(0.0136617 0.000193375 0)
(0.0140112 0.000260858 0)
(0.0143895 0.000329425 0)
(0.0147957 0.000399182 0)
(0.0152289 0.000470145 0)
(0.0156883 0.000542374 0)
(0.0161732 0.000615868 0)
(0.0166828 0.000690655 0)
(0.0172164 0.000766716 0)
(0.0177734 0.000844048 0)
(0.018353 0.000922617 0)
(0.0189547 0.00100239 0)
(0.0195777 0.00108331 0)
(0.0202215 0.00116531 0)
(0.0208853 0.00124831 0)
(0.0215685 0.00133222 0)
(0.0222704 0.00141693 0)
(0.0229903 0.00150229 0)
(0.0237274 0.00158817 0)
(0.0244811 0.00167441 0)
(0.0252503 0.0017608 0)
(0.0260345 0.00184716 0)
(0.0268326 0.00193326 0)
(0.0276437 0.00201884 0)
(0.0284668 0.00210367 0)
(0.029301 0.00218744 0)
(0.0301452 0.00226988 0)
(0.0309984 0.00235068 0)
(0.0318592 0.0024295 0)
(0.0327267 0.00250603 0)
(0.0335995 0.00257992 0)
(0.0344764 0.00265084 0)
(0.0353562 0.00271844 0)
(0.0362375 0.00278237 0)
(0.037119 0.00284232 0)
(0.0379994 0.00289794 0)
(0.0388773 0.00294893 0)
(0.0397514 0.00299501 0)
(0.0406203 0.00303588 0)
(0.0414827 0.00307132 0)
(0.0423372 0.0031011 0)
(0.0431826 0.00312502 0)
(0.0440177 0.00314295 0)
(0.044841 0.00315475 0)
(0.0456516 0.00316035 0)
(0.0464482 0.0031597 0)
(0.0472298 0.0031528 0)
(0.0479953 0.00313968 0)
(0.0487438 0.00312043 0)
(0.0494744 0.00309515 0)
(0.0501862 0.00306399 0)
(0.0508785 0.00302715 0)
(0.0515507 0.00298483 0)
(0.0522021 0.0029373 0)
(0.0528323 0.00288482 0)
(0.0534407 0.0028277 0)
(0.0540271 0.00276626 0)
(0.0545911 0.00270085 0)
(0.0551325 0.0026318 0)
(0.0556513 0.0025595 0)
(0.0561473 0.00248432 0)
(0.0566205 0.00240662 0)
(0.057071 0.0023268 0)
(0.057499 0.00224521 0)
(0.0579047 0.00216224 0)
(0.0582882 0.00207824 0)
(0.0586499 0.00199356 0)
(0.0589902 0.00190854 0)
(0.0593094 0.00182351 0)
(0.0596081 0.00173877 0)
(0.0598865 0.00165461 0)
(0.0601454 0.0015713 0)
(0.0603851 0.0014891 0)
(0.0606063 0.00140824 0)
(0.0608095 0.00132893 0)
(0.0609953 0.00125136 0)
(0.0611644 0.00117571 0)
(0.0613174 0.00110213 0)
(0.0614548 0.00103075 0)
(0.0615774 0.000961687 0)
(0.0616858 0.000895034 0)
(0.0617805 0.000830871 0)
(0.0618624 0.000769259 0)
(0.0619319 0.000710242 0)
(0.0619898 0.000653852 0)
(0.0620366 0.000600103 0)
(0.0620729 0.000549001 0)
(0.0620994 0.000500535 0)
(0.0621167 0.000454687 0)
(0.0621253 0.000411422 0)
(0.0621258 0.000370708 0)
(0.0621187 0.000332486 0)
(0.0621046 0.000296716 0)
(0.0620839 0.000263314 0)
(0.0620573 0.000232243 0)
(0.062025 0.000203389 0)
(0.0619877 0.000176729 0)
(0.0619457 0.000152111 0)
(0.0618995 0.000129539 0)
(0.0618494 0.000108827 0)
(0.0617959 8.99892e-05 0)
(0.0617394 7.28491e-05 0)
(0.0616799 5.73515e-05 0)
(0.0616185 4.34773e-05 0)
(0.0615539 3.08642e-05 0)
(0.0614894 2.00176e-05 0)
(0.0614202 9.73124e-06 0)
(0.0613546 1.78423e-06 0)
(0.0612805 -6.88678e-06 0)
(0.0612168 -1.19014e-05 0)
(0.0611359 -1.99915e-05 0)
(0.061078 -2.16839e-05 0)
(0.0609875 -3.11329e-05 0)
(0.0609418 -2.899e-05 0)
(0.0608349 -3.99286e-05 0)
(0.00274262 -0.000479714 0)
(0.00264754 -0.000451037 0)
(0.00258225 -0.000422291 0)
(0.00254652 -0.000393148 0)
(0.00253833 -0.00036347 0)
(0.00255749 -0.000332896 0)
(0.00260264 -0.000301402 0)
(0.00267357 -0.000268704 0)
(0.00276938 -0.000234804 0)
(0.00288985 -0.000199503 0)
(0.00303439 -0.000162803 0)
(0.0032028 -0.000124574 0)
(0.00339467 -8.48159e-05 0)
(0.00360983 -4.34463e-05 0)
(0.003848 -4.67143e-07 0)
(0.00410902 4.41724e-05 0)
(0.00439268 9.04673e-05 0)
(0.00469884 0.000138445 0)
(0.00502733 0.000188094 0)
(0.005378 0.000239425 0)
(0.00575071 0.00029242 0)
(0.0061453 0.00034707 0)
(0.00656161 0.000403349 0)
(0.00699946 0.00046123 0)
(0.00745867 0.000520672 0)
(0.00793902 0.000581631 0)
(0.00844029 0.000644045 0)
(0.00896221 0.000707849 0)
(0.00950448 0.000772958 0)
(0.0100668 0.000839278 0)
(0.0106488 0.000906699 0)
(0.01125 0.000975097 0)
(0.01187 0.00104433 0)
(0.0125082 0.00111424 0)
(0.0131642 0.00118465 0)
(0.0138374 0.00125537 0)
(0.0145269 0.0013262 0)
(0.0152321 0.0013969 0)
(0.0159523 0.00146723 0)
(0.0166865 0.00153694 0)
(0.0174339 0.00160575 0)
(0.0181935 0.00167339 0)
(0.0189643 0.00173956 0)
(0.0197451 0.00180397 0)
(0.020535 0.0018663 0)
(0.0213326 0.00192625 0)
(0.0221368 0.00198352 0)
(0.0229463 0.0020378 0)
(0.0237599 0.00208881 0)
(0.0245762 0.00213626 0)
(0.0253938 0.00217989 0)
(0.0262115 0.00221944 0)
(0.0270278 0.0022547 0)
(0.0278414 0.00228545 0)
(0.0286509 0.00231151 0)
(0.0294551 0.00233275 0)
(0.0302525 0.00234904 0)
(0.0310418 0.00236029 0)
(0.0318219 0.00236646 0)
(0.0325915 0.00236752 0)
(0.0333495 0.0023635 0)
(0.0340946 0.00235444 0)
(0.0348259 0.00234042 0)
(0.0355424 0.00232156 0)
(0.0362431 0.002298 0)
(0.0369271 0.00226991 0)
(0.0375938 0.0022375 0)
(0.0382424 0.00220099 0)
(0.0388722 0.00216061 0)
(0.0394828 0.00211664 0)
(0.0400736 0.00206934 0)
(0.0406442 0.002019 0)
(0.0411944 0.00196593 0)
(0.0417239 0.00191042 0)
(0.0422325 0.00185278 0)
(0.0427201 0.00179332 0)
(0.0431868 0.00173235 0)
(0.0436325 0.00167015 0)
(0.0440574 0.00160704 0)
(0.0444616 0.00154328 0)
(0.0448454 0.00147916 0)
(0.045209 0.00141494 0)
(0.0455527 0.00135087 0)
(0.045877 0.00128718 0)
(0.0461822 0.00122409 0)
(0.0464687 0.00116181 0)
(0.0467371 0.00110053 0)
(0.0469878 0.00104041 0)
(0.0472213 0.000981607 0)
(0.0474383 0.000924265 0)
(0.0476393 0.000868503 0)
(0.0478248 0.000814428 0)
(0.0479954 0.00076213 0)
(0.0481517 0.000711685 0)
(0.0482944 0.000663156 0)
(0.0484241 0.000616589 0)
(0.0485413 0.000572021 0)
(0.0486466 0.000529474 0)
(0.0487407 0.000488961 0)
(0.0488241 0.000450482 0)
(0.0488974 0.000414032 0)
(0.0489612 0.000379589 0)
(0.049016 0.000347134 0)
(0.0490624 0.000316625 0)
(0.049101 0.000288039 0)
(0.0491322 0.000261305 0)
(0.0491565 0.000236414 0)
(0.0491745 0.000213249 0)
(0.0491866 0.000191842 0)
(0.0491932 0.000172003 0)
(0.0491948 0.000153846 0)
(0.049192 0.000137059 0)
(0.0491847 0.000121902 0)
(0.049174 0.000107874 0)
(0.0491593 9.54485e-05 0)
(0.0491422 8.38911e-05 0)
(0.0491213 7.38754e-05 0)
(0.0490995 6.45741e-05 0)
(0.0490732 5.64795e-05 0)
(0.0490483 4.94693e-05 0)
(0.0490171 4.23666e-05 0)
(0.0489908 3.82358e-05 0)
(0.0489546 3.04455e-05 0)
(0.0489292 3.02736e-05 0)
(0.0488875 2.00813e-05 0)
(0.0488647 2.36283e-05 0)
(0.0488172 1.15472e-05 0)
(-0.00300296 -0.000365773 0)
(-0.00311955 -0.000358634 0)
(-0.00322082 -0.000350587 0)
(-0.0033065 -0.000341996 0)
(-0.00337713 -0.000332457 0)
(-0.00343238 -0.000321959 0)
(-0.0034725 -0.000310373 0)
(-0.00349717 -0.000297582 0)
(-0.00350642 -0.000283548 0)
(-0.00349992 -0.000268157 0)
(-0.00347758 -0.000251398 0)
(-0.00343905 -0.000233184 0)
(-0.00338416 -0.000213512 0)
(-0.00331258 -0.000192324 0)
(-0.00322406 -0.000169619 0)
(-0.00311828 -0.000145359 0)
(-0.00299497 -0.000119545 0)
(-0.00285383 -9.21549e-05 0)
(-0.00269458 -6.31915e-05 0)
(-0.00251692 -3.26432e-05 0)
(-0.00232061 -5.1603e-07 0)
(-0.00210536 3.31923e-05 0)
(-0.00187094 6.84706e-05 0)
(-0.00161713 0.000105311 0)
(-0.00134372 0.000143696 0)
(-0.00105053 0.000183605 0)
(-0.000737404 0.000225007 0)
(-0.000404228 0.00026787 0)
(-5.09137e-05 0.000312146 0)
(0.000322587 0.000357784 0)
(0.000716279 0.000404717 0)
(0.00113012 0.00045287 0)
(0.00156402 0.000502152 0)
(0.00201785 0.000552464 0)
(0.00249138 0.000603687 0)
(0.00298438 0.000655691 0)
(0.00349651 0.000708329 0)
(0.00402739 0.000761442 0)
(0.00457656 0.000814854 0)
(0.0051435 0.000868374 0)
(0.00572762 0.0009218 0)
(0.00632824 0.000974916 0)
(0.00694464 0.00102749 0)
(0.00757601 0.0010793 0)
(0.00822147 0.00113009 0)
(0.00888008 0.00117961 0)
(0.00955084 0.00122762 0)
(0.0102327 0.00127386 0)
(0.0109245 0.00131808 0)
(0.0116251 0.00136003 0)
(0.0123332 0.00139949 0)
(0.0130477 0.00143623 0)
(0.0137673 0.00147003 0)
(0.0144905 0.00150071 0)
(0.0152161 0.00152809 0)
(0.0159428 0.00155201 0)
(0.0166691 0.00157234 0)
(0.0173938 0.00158898 0)
(0.0181155 0.00160186 0)
(0.0188329 0.0016109 0)
(0.0195448 0.0016161 0)
(0.0202498 0.00161744 0)
(0.0209468 0.00161497 0)
(0.0216346 0.00160873 0)
(0.022312 0.0015988 0)
(0.0229781 0.00158529 0)
(0.0236319 0.00156833 0)
(0.0242724 0.00154807 0)
(0.0248988 0.00152467 0)
(0.0255103 0.00149831 0)
(0.0261061 0.00146919 0)
(0.0266858 0.00143753 0)
(0.0272486 0.00140353 0)
(0.0277942 0.00136743 0)
(0.0283221 0.00132946 0)
(0.028832 0.00128985 0)
(0.0293237 0.00124883 0)
(0.0297969 0.00120664 0)
(0.0302516 0.00116349 0)
(0.0306877 0.00111963 0)
(0.0311052 0.00107525 0)
(0.0315042 0.00103057 0)
(0.0318848 0.000985781 0)
(0.0322473 0.000941079 0)
(0.0325918 0.000896636 0)
(0.0329186 0.000852617 0)
(0.033228 0.000809175 0)
(0.0335205 0.000766449 0)
(0.0337964 0.000724566 0)
(0.034056 0.000683641 0)
(0.0343 0.000643774 0)
(0.0345286 0.000605057 0)
(0.0347425 0.000567564 0)
(0.0349422 0.000531363 0)
(0.035128 0.000496506 0)
(0.0353007 0.000463037 0)
(0.0354607 0.000430989 0)
(0.0356086 0.000400385 0)
(0.0357448 0.00037124 0)
(0.0358701 0.000343558 0)
(0.0359848 0.000317338 0)
(0.0360896 0.00029257 0)
(0.036185 0.00026924 0)
(0.0362715 0.000247323 0)
(0.0363496 0.000226798 0)
(0.0364198 0.000207624 0)
(0.0364827 0.000189777 0)
(0.0365387 0.000173202 0)
(0.0365882 0.000157875 0)
(0.0366318 0.000143731 0)
(0.0366699 0.000130737 0)
(0.0367029 0.000118844 0)
(0.0367312 0.000107966 0)
(0.0367552 9.81509e-05 0)
(0.0367752 8.91303e-05 0)
(0.0367918 8.12574e-05 0)
(0.0368048 7.37581e-05 0)
(0.0368155 6.77797e-05 0)
(0.0368226 6.13269e-05 0)
(0.0368287 5.7356e-05 0)
(0.0368309 5.1228e-05 0)
(0.0368335 4.96333e-05 0)
(0.0368321 4.27124e-05 0)
(0.0368311 4.41108e-05 0)
(0.0368282 3.50058e-05 0)
(0.0368222 3.91817e-05 0)
(0.0368212 2.8669e-05 0)
(-0.00561064 -0.00023113 0)
(-0.00574235 -0.000233835 0)
(-0.00586906 -0.000235954 0)
(-0.00598993 -0.00023738 0)
(-0.00610526 -0.000238099 0)
(-0.00621424 -0.000237979 0)
(-0.0063169 -0.000237046 0)
(-0.0064125 -0.000235192 0)
(-0.00650084 -0.00023244 0)
(-0.00658126 -0.000228715 0)
(-0.00665341 -0.000224031 0)
(-0.00671666 -0.000218334 0)
(-0.00677057 -0.000211629 0)
(-0.00681454 -0.00020388 0)
(-0.00684807 -0.000195084 0)
(-0.0068706 -0.000185214 0)
(-0.00688159 -0.000174264 0)
(-0.00688049 -0.000162211 0)
(-0.00686675 -0.000149047 0)
(-0.00683984 -0.000134754 0)
(-0.00679922 -0.000119322 0)
(-0.00674437 -0.000102736 0)
(-0.00667477 -8.4986e-05 0)
(-0.0065899 -6.60613e-05 0)
(-0.00648928 -4.59564e-05 0)
(-0.00637244 -2.46649e-05 0)
(-0.00623891 -2.18748e-06 0)
(-0.00608826 2.14737e-05 0)
(-0.00592007 4.63089e-05 0)
(-0.00573397 7.23043e-05 0)
(-0.00552961 9.94373e-05 0)
(-0.00530667 0.000127679 0)
(-0.00506489 0.00015699 0)
(-0.00480403 0.000187322 0)
(-0.00452394 0.000218617 0)
(-0.00422447 0.000250804 0)
(-0.00390558 0.000283803 0)
(-0.00356726 0.00031752 0)
(-0.00320958 0.000351849 0)
(-0.00283268 0.000386672 0)
(-0.00243678 0.00042186 0)
(-0.00202215 0.000457272 0)
(-0.00158917 0.000492756 0)
(-0.00113829 0.000528151 0)
(-0.000670031 0.000563288 0)
(-0.000185004 0.00059799 0)
(0.000316102 0.000632075 0)
(0.000832517 0.00066536 0)
(0.0013634 0.000697657 0)
(0.00190783 0.000728781 0)
(0.00246482 0.000758551 0)
(0.00303333 0.000786789 0)
(0.00361224 0.000813326 0)
(0.00420039 0.000838002 0)
(0.00479657 0.000860671 0)
(0.00539954 0.000881197 0)
(0.00600803 0.000899461 0)
(0.00662072 0.000915362 0)
(0.00723632 0.000928815 0)
(0.00785349 0.000939756 0)
(0.00847093 0.000948139 0)
(0.00908732 0.000953938 0)
(0.00970137 0.000957149 0)
(0.0103118 0.000957785 0)
(0.0109174 0.00095588 0)
(0.011517 0.000951487 0)
(0.0121095 0.000944675 0)
(0.0126937 0.000935531 0)
(0.0132686 0.000924155 0)
(0.0138332 0.000910662 0)
(0.0143867 0.000895178 0)
(0.0149282 0.000877841 0)
(0.015457 0.000858794 0)
(0.0159723 0.000838188 0)
(0.0164735 0.000816182 0)
(0.0169601 0.000792932 0)
(0.0174317 0.0007686 0)
(0.0178878 0.000743347 0)
(0.0183281 0.000717331 0)
(0.0187524 0.000690708 0)
(0.0191605 0.000663631 0)
(0.0195523 0.000636245 0)
(0.0199277 0.000608692 0)
(0.0202868 0.000581103 0)
(0.0206297 0.000553606 0)
(0.0209564 0.000526317 0)
(0.0212671 0.000499345 0)
(0.0215622 0.000472789 0)
(0.0218418 0.000446742 0)
(0.0221062 0.000421284 0)
(0.0223559 0.000396487 0)
(0.0225912 0.000372415 0)
(0.0228124 0.000349124 0)
(0.0230201 0.000326658 0)
(0.0232146 0.000305056 0)
(0.0233966 0.000284349 0)
(0.0235663 0.000264558 0)
(0.0237244 0.0002457 0)
(0.0238713 0.000227785 0)
(0.0240076 0.000210814 0)
(0.0241338 0.000194787 0)
(0.0242503 0.000179694 0)
(0.0243578 0.000165528 0)
(0.0244566 0.000152264 0)
(0.0245473 0.000139897 0)
(0.0246305 0.000128383 0)
(0.0247065 0.000117725 0)
(0.0247758 0.000107856 0)
(0.024839 9.87995e-05 0)
(0.0248964 9.0452e-05 0)
(0.0249485 8.28734e-05 0)
(0.0249958 7.59131e-05 0)
(0.0250384 6.96752e-05 0)
(0.0250771 6.3969e-05 0)
(0.0251118 5.89106e-05 0)
(0.0251434 5.43513e-05 0)
(0.0251716 5.02544e-05 0)
(0.0251972 4.68142e-05 0)
(0.0252202 4.33266e-05 0)
(0.0252409 4.11559e-05 0)
(0.0252602 3.76617e-05 0)
(0.0252762 3.71976e-05 0)
(0.0252937 3.27449e-05 0)
(0.0253042 3.45602e-05 0)
(0.025323 2.82897e-05 0)
(0.0253249 3.19527e-05 0)
(0.0253494 2.48295e-05 0)
(-0.00539888 -9.626e-05 0)
(-0.00551237 -9.95718e-05 0)
(-0.0056269 -0.000102493 0)
(-0.00574169 -0.000105248 0)
(-0.0058568 -0.000107672 0)
(-0.00597154 -0.000109839 0)
(-0.00608579 -0.00011168 0)
(-0.00619891 -0.000113201 0)
(-0.00631063 -0.000114374 0)
(-0.00642038 -0.000115183 0)
(-0.0065278 -0.000115613 0)
(-0.00663231 -0.000115643 0)
(-0.0067335 -0.000115264 0)
(-0.00683081 -0.000114457 0)
(-0.00692377 -0.000113212 0)
(-0.00701183 -0.000111512 0)
(-0.00709449 -0.000109349 0)
(-0.0071712 -0.000106707 0)
(-0.00724142 -0.000103575 0)
(-0.0073046 -9.99371e-05 0)
(-0.0073602 -9.57835e-05 0)
(-0.00740765 -9.10981e-05 0)
(-0.0074464 -8.58687e-05 0)
(-0.00747587 -8.008e-05 0)
(-0.00749551 -7.37194e-05 0)
(-0.00750473 -6.67724e-05 0)
(-0.00750298 -5.92272e-05 0)
(-0.0074897 -5.10715e-05 0)
(-0.00746432 -4.22958e-05 0)
(-0.00742629 -3.28919e-05 0)
(-0.00737508 -2.2855e-05 0)
(-0.00731017 -1.21828e-05 0)
(-0.00723105 -8.77736e-07 0)
(-0.00713725 1.10539e-05 0)
(-0.00702832 2.36e-05 0)
(-0.00690385 3.67433e-05 0)
(-0.00676347 5.04598e-05 0)
(-0.00660684 6.47188e-05 0)
(-0.00643368 7.94825e-05 0)
(-0.00624379 9.47057e-05 0)
(-0.00603699 0.000110336 0)
(-0.0058132 0.000126312 0)
(-0.0055724 0.000142566 0)
(-0.00531464 0.000159024 0)
(-0.00504004 0.000175604 0)
(-0.00474884 0.000192219 0)
(-0.00444133 0.000208776 0)
(-0.0041179 0.000225179 0)
(-0.00377902 0.000241327 0)
(-0.00342524 0.000257119 0)
(-0.00305721 0.000272453 0)
(-0.00267565 0.000287228 0)
(-0.00228137 0.000301344 0)
(-0.00187524 0.000314707 0)
(-0.0014582 0.000327225 0)
(-0.00103125 0.000338814 0)
(-0.00059546 0.000349398 0)
(-0.000151934 0.000358907 0)
(0.000298183 0.000367283 0)
(0.000753711 0.000374476 0)
(0.00121345 0.000380448 0)
(0.00167619 0.000385173 0)
(0.00214072 0.000388634 0)
(0.00260582 0.000390826 0)
(0.00307029 0.000391758 0)
(0.00353296 0.000391445 0)
(0.00399268 0.000389916 0)
(0.00444835 0.000387209 0)
(0.00489889 0.000383371 0)
(0.0053433 0.000378455 0)
(0.00578062 0.000372525 0)
(0.00620995 0.000365648 0)
(0.00663046 0.000357898 0)
(0.00704139 0.000349352 0)
(0.00744204 0.000340091 0)
(0.00783181 0.000330196 0)
(0.00821013 0.000319752 0)
(0.00857655 0.000308841 0)
(0.00893066 0.000297547 0)
(0.00927214 0.00028595 0)
(0.00960073 0.000274129 0)
(0.00991626 0.00026216 0)
(0.0102186 0.000250113 0)
(0.0105077 0.000238058 0)
(0.0107836 0.000226058 0)
(0.0110463 0.000214171 0)
(0.0112959 0.000202451 0)
(0.0115327 0.000190947 0)
(0.0117568 0.000179702 0)
(0.0119684 0.000168756 0)
(0.012168 0.00015814 0)
(0.0123557 0.000147884 0)
(0.012532 0.000138011 0)
(0.0126972 0.000128542 0)
(0.0128517 0.000119489 0)
(0.012996 0.000110866 0)
(0.0131304 0.000102677 0)
(0.0132555 9.49282e-05 0)
(0.0133715 8.76186e-05 0)
(0.0134791 8.07464e-05 0)
(0.0135787 7.43062e-05 0)
(0.0136706 6.82911e-05 0)
(0.0137554 6.26915e-05 0)
(0.0138334 5.74967e-05 0)
(0.0139052 5.2694e-05 0)
(0.0139712 4.827e-05 0)