/*--------------------------------*- C++ -*----------------------------------*\
| =========                 |                                                 |
| \\      /  F ield         | OpenFOAM: The Open Source CFD Toolbox           |
|  \\    /   O peration     | Version:  4.1                                   |
|   \\  /    A nd           | Web:      www.OpenFOAM.org                      |
|    \\/     M anipulation  |                                                 |
\*---------------------------------------------------------------------------*/
FoamFile
{
    version     2.0;
    format      ascii;
    class       volVectorField;
    location    "930";
    object      U;
}
// * * * * * * * * * * * * * * * * * * * * * * * * * * * * * * * * * * * * * //

dimensions      [0 1 -1 0 0 0 0];

internalField   nonuniform List<vector> 
1275
(
(-8.90385e-07 2.95876e-05 0)
(3.58158e-06 4.0512e-05 0)
(-6.22842e-05 4.82855e-05 0)
(-0.00012509 3.92165e-05 0)
(-0.000213408 3.78259e-05 0)
(-0.000299794 2.57356e-05 0)
(-0.00038975 2.31225e-05 0)
(-0.000486726 1.42999e-05 0)
(-0.000578766 1.25524e-05 0)
(-0.000681495 7.31497e-06 0)
(-0.000776373 6.58382e-06 0)
(-0.00088147 3.97227e-06 0)
(-0.000978737 4.02464e-06 0)
(-0.00108422 3.05079e-06 0)
(-0.00118313 3.5694e-06 0)
(-0.00128806 3.48524e-06 0)
(-0.0013879 4.19952e-06 0)
(-0.00149189 4.52295e-06 0)
(-0.00159212 5.25391e-06 0)
(-0.00169508 5.70898e-06 0)
(-0.00179535 6.36018e-06 0)
(-0.00189734 6.80544e-06 0)
(-0.00199749 7.33745e-06 0)
(-0.00209872 7.71004e-06 0)
(-0.00219879 8.11732e-06 0)
(-0.00229956 8.39642e-06 0)
(-0.00239979 8.69122e-06 0)
(-0.00250058 8.8763e-06 0)
(-0.00260142 9.07922e-06 0)
(-0.00270287 9.17731e-06 0)
(-0.00280502 9.31168e-06 0)
(-0.00290804 9.32935e-06 0)
(-0.00301245 9.41686e-06 0)
(-0.00311822 9.35332e-06 0)
(-0.0032262 9.40794e-06 0)
(-0.00333629 9.24723e-06 0)
(-0.00344952 9.26476e-06 0)
(-0.003566 8.96611e-06 0)
(-0.00368676 8.90753e-06 0)
(-0.00381235 8.39596e-06 0)
(-0.00394371 8.16875e-06 0)
(-0.00408208 7.33582e-06 0)
(-0.00422835 6.7937e-06 0)
(-0.00438459 5.53773e-06 0)
(-0.004552 4.55487e-06 0)
(-0.00473353 2.92695e-06 0)
(-0.00493126 1.65719e-06 0)
(-0.00514923 2.17183e-07 0)
(-0.00539091 -3.28561e-07 0)
(-0.00566186 1.52991e-07 0)
(-0.00596743 2.99296e-06 0)
(-0.00631492 9.10434e-06 0)
(-0.0067115 2.01785e-05 0)
(-0.00716558 3.76287e-05 0)
(-0.00768461 6.30322e-05 0)
(-0.00827553 9.73036e-05 0)
(-0.00894235 0.000140666 0)
(-0.00968567 0.00019205 0)
(-0.0105006 0.000249103 0)
(-0.0113763 0.000308125 0)
(-0.0122948 0.000364547 0)
(-0.0132321 0.000413459 0)
(-0.0141587 0.00045035 0)
(-0.0150414 0.000471652 0)
(-0.0158458 0.000475155 0)
(-0.0165378 0.000460086 0)
(-0.0170863 0.000427022 0)
(-0.0174642 0.000377612 0)
(-0.0176495 0.000314282 0)
(-0.0176261 0.00023991 0)
(-0.0173837 0.00015759 0)
(-0.0169181 7.04207e-05 0)
(-0.0162303 -1.86135e-05 0)
(-0.015327 -0.000106742 0)
(-0.014219 -0.000191456 0)
(-0.0129216 -0.000270548 0)
(-0.0114536 -0.00034213 0)
(-0.00983675 -0.000404654 0)
(-0.00809502 -0.000456918 0)
(-0.00625417 -0.000498075 0)
(-0.00434094 -0.000527631 0)
(-0.00238245 -0.000545439 0)
(-0.000405529 -0.000551682 0)
(0.00156386 -0.000546849 0)
(0.00350116 -0.000531702 0)
(0.00538368 -0.000507235 0)
(0.00719102 -0.000474626 0)
(0.0089053 -0.000435186 0)
(0.0105114 -0.000390306 0)
(0.0119971 -0.00034141 0)
(0.0133529 -0.0002899 0)
(0.0145723 -0.000237121 0)
(0.0156513 -0.000184325 0)
(0.0165885 -0.000132642 0)
(0.0173846 -8.3064e-05 0)
(0.0180423 -3.64328e-05 0)
(0.0185663 6.56717e-06 0)
(0.0189623 4.54078e-05 0)
(0.0192375 7.97125e-05 0)
(0.0193998 0.00010925 0)
(0.0194578 0.000133923 0)
(0.0194207 0.000153756 0)
(0.0192974 0.000168879 0)
(0.0190973 0.000179522 0)
(0.0188294 0.000185986 0)
(0.0185024 0.000188638 0)
(0.0181246 0.000187888 0)
(0.0177038 0.000184183 0)
(0.0172473 0.000177974 0)
(0.0167615 0.000169728 0)
(0.0162525 0.000159879 0)
(0.0157255 0.000148868 0)
(0.0151852 0.000137063 0)
(0.0146355 0.000124841 0)
(0.0140799 0.000112479 0)
(0.0135213 0.000100272 0)
(0.0129622 8.83898e-05 0)
(0.0124044 7.70563e-05 0)
(0.01185 6.63365e-05 0)
(0.0113001 5.6399e-05 0)
(0.010756 4.72273e-05 0)
(0.0102187 3.89461e-05 0)
(-1.84776e-05 -3.4926e-05 0)
(-0.000104927 1.79438e-05 0)
(-0.000321361 8.03328e-05 0)
(-0.000539466 0.000108872 0)
(-0.000793969 0.000138934 0)
(-0.0010493 0.000148249 0)
(-0.00130525 0.000167036 0)
(-0.0015739 0.000173401 0)
(-0.00183166 0.000185864 0)
(-0.00210577 0.000189975 0)
(-0.00236599 0.000196997 0)
(-0.00264047 0.000198848 0)
(-0.00290179 0.000202073 0)
(-0.00317359 0.000202324 0)
(-0.00343428 0.000203282 0)
(-0.00370188 0.000202598 0)
(-0.00396061 0.000202337 0)
(-0.00422347 0.000201204 0)
(-0.00447948 0.000200378 0)
(-0.00473771 0.000199124 0)
(-0.00499082 0.000198139 0)
(-0.00524499 0.000196991 0)
(-0.00549553 0.000196116 0)
(-0.0057466 0.000195252 0)
(-0.00599541 0.000194694 0)
(-0.00624474 0.000194275 0)
(-0.00649317 0.000194226 0)
(-0.00674251 0.000194424 0)
(-0.00699243 0.000195091 0)
(-0.00724404 0.000196104 0)
(-0.00749792 0.000197731 0)
(-0.0077547 0.000199803 0)
(-0.0080157 0.00020269 0)
(-0.0082813 0.000206133 0)
(-0.00855344 0.000210664 0)
(-0.00883249 0.000215902 0)
(-0.0091209 0.000222583 0)
(-0.00941933 0.000230228 0)
(-0.00973055 0.000239759 0)
(-0.010056 0.000250728 0)
(-0.0103985 0.000264132 0)
(-0.0107606 0.000279817 0)
(-0.0111453 0.000298676 0)
(-0.0115564 0.000321139 0)
(-0.0119971 0.000347929 0)
(-0.0124723 0.000380103 0)
(-0.0129852 0.000418439 0)
(-0.0135411 0.000464266 0)
(-0.014143 0.000518581 0)
(-0.014795 0.000582633 0)
(-0.0154985 0.000657254 0)
(-0.0162547 0.000742949 0)
(-0.0170607 0.000839388 0)
(-0.0179121 0.000945139 0)
(-0.0187992 0.0010573 0)
(-0.0197095 0.00117122 0)
(-0.0206249 0.00128048 0)
(-0.0215239 0.00137703 0)
(-0.0223809 0.00145184 0)
(-0.023168 0.00149557 0)
(-0.0238555 0.00149971 0)
(-0.0244139 0.00145739 0)
(-0.0248148 0.00136428 0)
(-0.0250321 0.00121891 0)
(-0.0250431 0.00102278 0)
(-0.024829 0.000780008 0)
(-0.0243753 0.000496845 0)
(-0.0236722 0.000180987 0)
(-0.0227142 -0.000159007 0)
(-0.0215008 -0.00051428 0)
(-0.0200354 -0.000876067 0)
(-0.0183256 -0.001236 0)
(-0.0163828 -0.0015863 0)
(-0.0142218 -0.00191987 0)
(-0.0118606 -0.00223039 0)
(-0.00932007 -0.00251237 0)
(-0.00662337 -0.00276116 0)
(-0.00379567 -0.00297304 0)
(-0.000863631 -0.0031452 0)
(0.00214508 -0.0032758 0)
(0.00520233 -0.00336396 0)
(0.00828007 -0.00340974 0)
(0.0113509 -0.00341413 0)
(0.0143884 -0.00337892 0)
(0.0173678 -0.00330666 0)
(0.0202663 -0.00320052 0)
(0.0230633 -0.00306413 0)
(0.0257408 -0.00290152 0)
(0.0282832 -0.0027169 0)
(0.0306777 -0.00251458 0)
(0.0329143 -0.00229881 0)
(0.0349852 -0.00207374 0)
(0.0368854 -0.00184326 0)
(0.0386119 -0.00161096 0)
(0.0401638 -0.00138009 0)
(0.0415418 -0.00115353 0)
(0.0427484 -0.000933742 0)
(0.0437871 -0.000722796 0)
(0.0446627 -0.000522367 0)
(0.0453807 -0.000333754 0)
(0.0459474 -0.000157901 0)
(0.0463695 4.56932e-06 0)
(0.046654 0.000153334 0)
(0.0468081 0.000288326 0)
(0.0468391 0.000409712 0)
(0.0467544 0.000517847 0)
(0.0465612 0.000613259 0)
(0.0462664 0.000696589 0)
(0.0458771 0.0007686 0)
(0.0453997 0.000830094 0)
(0.0448407 0.000881952 0)
(0.0442059 0.000925023 0)
(0.0435012 0.000960204 0)
(0.0427318 0.000988297 0)
(0.041903 0.00101013 0)
(0.0410194 0.0010264 0)
(0.0400855 0.00103779 0)
(0.0391055 0.00104486 0)
(0.0380835 0.00104809 0)
(0.0370231 0.00104795 0)
(0.035928 0.00104467 0)
(0.0348018 0.00103866 0)
(-3.72605e-05 0.000161282 0)
(-0.000229201 0.000349518 0)
(-0.00059163 0.000492378 0)
(-0.000963755 0.000513903 0)
(-0.00137797 0.000555165 0)
(-0.00179349 0.000535984 0)
(-0.0022072 0.00055237 0)
(-0.00263033 0.000537883 0)
(-0.00303633 0.000546603 0)
(-0.00345313 0.000538063 0)
(-0.00384892 0.000541741 0)
(-0.00425309 0.000536104 0)
(-0.00463756 0.000536545 0)
(-0.0050272 0.000532134 0)
(-0.00540016 0.000530702 0)
(-0.00577546 0.000526786 0)
(-0.00613729 0.000524382 0)
(-0.00649941 0.000520757 0)
(-0.00685089 0.00051801 0)
(-0.00720141 0.000514757 0)
(-0.0075437 0.000512163 0)
(-0.00788444 0.000509521 0)
(-0.00821903 0.00050753 0)
(-0.00855205 0.00050583 0)
(-0.00888082 0.000504895 0)
(-0.00920844 0.000504544 0)
(-0.00953367 0.000505159 0)
(-0.00985854 0.000506635 0)
(-0.0101829 0.000509366 0)
(-0.0105081 0.000513235 0)
(-0.0108348 0.00051875 0)
(-0.0111637 0.000525691 0)
(-0.0114963 0.000534808 0)
(-0.0118329 0.000545654 0)
(-0.0121756 0.00055939 0)
(-0.0125244 0.000575199 0)
(-0.0128816 0.000594839 0)
(-0.0132475 0.000616994 0)
(-0.0136242 0.000644167 0)
(-0.0140122 0.0006745 0)
(-0.0144132 0.000711226 0)
(-0.0148282 0.000752085 0)
(-0.0152579 0.000800746 0)
(-0.0157035 0.00085485 0)
(-0.0161645 0.000917924 0)
(-0.0166414 0.000987774 0)
(-0.0171325 0.00106706 0)
(-0.0176361 0.00115372 0)
(-0.0181485 0.00124887 0)
(-0.0186649 0.00135008 0)
(-0.0191781 0.00145637 0)
(-0.0196793 0.0015641 0)
(-0.0201569 0.00166978 0)
(-0.0205974 0.00176779 0)
(-0.0209847 0.00185199 0)
(-0.0213012 0.00191465 0)
(-0.0215277 0.0019475 0)
(-0.0216448 0.00194159 0)
(-0.0216329 0.0018883 0)
(-0.0214736 0.00177967 0)
(-0.0211501 0.00160951 0)
(-0.0206482 0.00137385 0)
(-0.0199557 0.00107165 0)
(-0.019064 0.000704846 0)
(-0.0179665 0.000278407 0)
(-0.01666 -0.000200181 0)
(-0.0151432 -0.000721405 0)
(-0.0134177 -0.00127445 0)
(-0.0114872 -0.00184776 0)
(-0.0093575 -0.00242962 0)
(-0.00703671 -0.00300852 0)
(-0.0045351 -0.00357349 0)
(-0.00186513 -0.00411424 0)
(0.000958554 -0.00462131 0)
(0.00391918 -0.00508624 0)
(0.00699796 -0.00550156 0)
(0.0101743 -0.005861 0)
(0.013426 -0.00615949 0)
(0.0167299 -0.00639332 0)
(0.0200618 -0.00656017 0)
(0.0233976 -0.00665912 0)
(0.0267131 -0.00669072 0)
(0.0299851 -0.00665684 0)
(0.0331916 -0.00656065 0)
(0.0363121 -0.00640641 0)
(0.0393282 -0.00619933 0)
(0.0422238 -0.00594536 0)
(0.0449849 -0.00565092 0)
(0.0476004 -0.00532273 0)
(0.0500615 -0.00496756 0)
(0.0523616 -0.00459205 0)
(0.0544966 -0.00420255 0)
(0.0564645 -0.00380495 0)
(0.0582649 -0.00340463 0)
(0.0598992 -0.00300637 0)
(0.0613699 -0.00261432 0)
(0.0626808 -0.002232 0)
(0.0638365 -0.00186229 0)
(0.0648421 -0.0015075 0)
(0.0657031 -0.00116936 0)
(0.0664255 -0.000849115 0)
(0.0670152 -0.000547554 0)
(0.0674782 -0.000265069 0)
(0.0678202 -1.70921e-06 0)
(0.0680471 0.000242763 0)
(0.0681641 0.000468831 0)
(0.0681765 0.000677163 0)
(0.0680892 0.000868587 0)
(0.0679066 0.00104403 0)
(0.0676332 0.0012045 0)
(0.0672727 0.00135103 0)
(0.0668289 0.00148471 0)
(0.0663051 0.00160653 0)
(0.0657043 0.00171753 0)
(0.0650294 0.00181861 0)
(0.0642828 0.00191071 0)
(0.0634671 0.00199448 0)
(0.062584 0.00207077 0)
(0.0616359 0.0021399 0)
(0.0606243 0.00220269 0)
(0.0595509 0.00225898 0)
(0.0584175 0.0023097 0)
(-9.14796e-05 0.000215936 0)
(-0.000439412 0.000558866 0)
(-0.000999712 0.000804179 0)
(-0.00153904 0.00088423 0)
(-0.00208664 0.000963935 0)
(-0.00262834 0.000970445 0)
(-0.0031357 0.00100376 0)
(-0.00365375 0.00099905 0)
(-0.00413157 0.00101117 0)
(-0.0046208 0.00100159 0)
(-0.00507381 0.00100059 0)
(-0.00553369 0.000988037 0)
(-0.00596365 0.000979999 0)
(-0.00639572 0.000966238 0)
(-0.00680377 0.000955103 0)
(-0.00721039 0.000941364 0)
(-0.0075978 0.000929405 0)
(-0.00798154 0.000916499 0)
(-0.00834987 0.00090503 0)
(-0.00871333 0.000893541 0)
(-0.00906436 0.000883398 0)
(-0.00941006 0.000873809 0)
(-0.00974573 0.000865616 0)
(-0.0100761 0.000858394 0)
(-0.0103984 0.000852711 0)
(-0.0107156 0.000848348 0)
(-0.0110266 0.000845749 0)
(-0.0113329 0.000844795 0)
(-0.0116344 0.000845912 0)
(-0.0119317 0.000848986 0)
(-0.0122254 0.000854532 0)
(-0.0125154 0.000862328 0)
(-0.0128027 0.000873108 0)
(-0.0130863 0.000886395 0)
(-0.0133679 0.0009033 0)
(-0.0136455 0.000922927 0)
(-0.0139211 0.000946895 0)
(-0.0141918 0.000973791 0)
(-0.0144594 0.00100573 0)
(-0.0147203 0.00104088 0)
(-0.0149757 0.00108152 0)
(-0.0152215 0.00112584 0)
(-0.015457 0.0011755 0)
(-0.0156783 0.00122939 0)
(-0.0158822 0.00128778 0)
(-0.0160643 0.0013502 0)
(-0.016219 0.00141572 0)
(-0.0163406 0.00148315 0)
(-0.0164212 0.00155079 0)
(-0.0164533 0.0016161 0)
(-0.0164267 0.00167612 0)
(-0.0163319 0.00172659 0)
(-0.016157 0.00176273 0)
(-0.0158906 0.00177832 0)
(-0.01552 0.00176655 0)
(-0.0150333 0.00171942 0)
(-0.0144181 0.00162873 0)
(-0.0136635 0.00148598 0)
(-0.0127594 0.00128345 0)
(-0.0116979 0.00101459 0)
(-0.0104726 0.000674999 0)
(-0.00907951 0.000262773 0)
(-0.00751634 -0.000220916 0)
(-0.00578278 -0.000771956 0)
(-0.00387988 -0.00138334 0)
(-0.00180995 -0.00204577 0)
(0.000423716 -0.00274807 0)
(0.00281689 -0.00347793 0)
(0.00536439 -0.00422231 0)
(0.00805987 -0.00496801 0)
(0.0108956 -0.00570189 0)
(0.0138622 -0.00641123 0)
(0.0169485 -0.00708386 0)
(0.0201411 -0.00770837 0)
(0.0234246 -0.0082743 0)
(0.0267815 -0.00877232 0)
(0.0301926 -0.00919442 0)
(0.0336372 -0.00953417 0)
(0.0370932 -0.00978686 0)
(0.0405382 -0.00994965 0)
(0.0439497 -0.0100217 0)
(0.0473058 -0.0100039 0)
(0.0505855 -0.00989948 0)
(0.0537692 -0.00971292 0)
(0.0568396 -0.00945042 0)
(0.0597812 -0.00911939 0)
(0.0625812 -0.0087281 0)
(0.0652292 -0.00828547 0)
(0.0677173 -0.00780068 0)
(0.0700404 -0.00728289 0)
(0.0721953 -0.00674103 0)
(0.0741812 -0.00618353 0)
(0.075999 -0.00561818 0)
(0.0776514 -0.00505201 0)
(0.0791422 -0.00449116 0)
(0.0804764 -0.00394093 0)
(0.0816598 -0.0034057 0)
(0.0826986 -0.002889 0)
(0.0835995 -0.00239355 0)
(0.0843693 -0.00192133 0)
(0.0850147 -0.00147364 0)
(0.0855426 -0.0010512 0)
(0.0859593 -0.000654231 0)
(0.0862709 -0.000282512 0)
(0.0864832 6.45292e-05 0)
(0.0866016 0.000387743 0)
(0.086631 0.000688216 0)
(0.0865759 0.000967183 0)
(0.0864404 0.00122602 0)
(0.0862282 0.00146614 0)
(0.0859424 0.00168904 0)
(0.0855859 0.00189615 0)
(0.0851611 0.00208893 0)
(0.08467 0.00226873 0)
(0.0841145 0.00243688 0)
(0.0834958 0.00259453 0)
(0.0828152 0.00274277 0)
(0.0820734 0.00288261 0)
(0.0812711 0.0030147 0)
(0.0804085 0.00314002 0)
(0.0794859 0.00325857 0)
(0.0785034 0.00337151 0)
(-0.00011428 0.000713767 0)
(-0.000563535 0.00127376 0)
(-0.00124046 0.00161582 0)
(-0.00189034 0.00160799 0)
(-0.00253463 0.00166117 0)
(-0.00315796 0.00158571 0)
(-0.00372809 0.00158695 0)
(-0.00428946 0.00153071 0)
(-0.00479276 0.00151737 0)
(-0.00528981 0.00147564 0)
(-0.00573668 0.00145508 0)
(-0.00617686 0.00142094 0)
(-0.00657678 0.00139736 0)
(-0.00696888 0.00136759 0)
(-0.00732921 0.00134344 0)
(-0.00768071 0.00131675 0)
(-0.00800692 0.00129345 0)
(-0.00832363 0.00126942 0)
(-0.00861981 0.00124781 0)
(-0.00890613 0.00122645 0)
(-0.00917533 0.0012071 0)
(-0.00943452 0.00118859 0)
(-0.00967902 0.00117196 0)
(-0.00991341 0.00115657 0)
(-0.0101348 0.00114309 0)
(-0.0103458 0.00113115 0)
(-0.0105449 0.00112122 0)
(-0.0107333 0.00111307 0)
(-0.0109102 0.0011071 0)
(-0.0110756 0.00110306 0)
(-0.0112295 0.00110144 0)
(-0.0113706 0.00110178 0)
(-0.0114995 0.00110486 0)
(-0.0116137 0.00110975 0)
(-0.011714 0.00111778 0)
(-0.011797 0.0011272 0)
(-0.0118634 0.00114027 0)
(-0.0119087 0.00115399 0)
(-0.0119334 0.00117189 0)
(-0.0119322 0.00118939 0)
(-0.0119042 0.00121142 0)
(-0.0118442 0.00123181 0)
(-0.0117492 0.00125644 0)
(-0.0116141 0.00127811 0)
(-0.011434 0.00130245 0)
(-0.0112026 0.00132228 0)
(-0.0109148 0.0013413 0)
(-0.0105623 0.00135317 0)
(-0.0101388 0.00135869 0)
(-0.0096355 0.00135214 0)
(-0.0090445 0.00133137 0)
(-0.00835673 0.00129034 0)
(-0.00756351 0.00122445 0)
(-0.00665601 0.00112675 0)
(-0.0056258 0.000990881 0)
(-0.00446525 0.000809281 0)
(-0.00316755 0.000575027 0)
(-0.00172742 0.000281168 0)
(-0.000140893 -7.79193e-05 0)
(0.00159416 -0.00050666 0)
(0.00347844 -0.00100727 0)
(0.00551109 -0.00157978 0)
(0.0076902 -0.00222153 0)
(0.0100129 -0.00292736 0)
(0.012476 -0.00368964 0)
(0.0150754 -0.00449867 0)
(0.0178071 -0.00534297 0)
(0.0206661 -0.00620981 0)
(0.0236467 -0.00708547 0)
(0.0267419 -0.00795568 0)
(0.0299431 -0.00880587 0)
(0.0332398 -0.00962149 0)
(0.0366192 -0.0103883 0)
(0.0400666 -0.0110927 0)
(0.0435647 -0.011722 0)
(0.0470946 -0.012265 0)
(0.0506357 -0.012712 0)
(0.0541665 -0.0130553 0)
(0.0576647 -0.0132896 0)
(0.0611085 -0.013412 0)
(0.0644764 -0.013422 0)
(0.0677486 -0.0133217 0)
(0.0709068 -0.0131156 0)
(0.0739349 -0.0128102 0)
(0.0768194 -0.0124138 0)
(0.0795495 -0.0119365 0)
(0.0821169 -0.0113889 0)
(0.084516 -0.0107828 0)
(0.0867439 -0.0101298 0)
(0.0887997 -0.00944156 0)
(0.0906849 -0.00872905 0)
(0.0924025 -0.00800265 0)
(0.093957 -0.00727173 0)
(0.0953542 -0.00654458 0)
(0.0966005 -0.00582836 0)
(0.0977033 -0.00512905 0)
(0.0986698 -0.00445152 0)
(0.0995079 -0.00379954 0)
(0.100225 -0.00317593 0)
(0.100829 -0.00258257 0)
(0.101326 -0.0020206 0)
(0.101724 -0.00149044 0)
(0.102029 -0.000991964 0)
(0.102247 -0.00052455 0)
(0.102383 -8.71978e-05 0)
(0.102442 0.000321405 0)
(0.102429 0.000702786 0)
(0.102347 0.00105866 0)
(0.1022 0.00139081 0)
(0.101992 0.00170112 0)
(0.101724 0.00199144 0)
(0.1014 0.00226366 0)
(0.10102 0.00251951 0)
(0.100587 0.0027608 0)
(0.100102 0.00298901 0)
(0.0995652 0.00320581 0)
(0.0989779 0.00341229 0)
(0.0983401 0.00361004 0)
(0.0976522 0.00379955 0)
(0.0969139 0.00398248 0)
(0.0961248 0.00415846 0)
(0.0952845 0.00432945 0)
(-0.000260273 0.000856125 0)
(-0.000906273 0.00165522 0)
(-0.00173052 0.00210621 0)
(-0.00245279 0.00215692 0)
(-0.00304863 0.00222073 0)
(-0.00363063 0.00215208 0)
(-0.00408601 0.00213378 0)
(-0.00455168 0.00205901 0)
(-0.00492101 0.00201487 0)
(-0.00529635 0.00194509 0)
(-0.0056021 0.00189287 0)
(-0.00590645 0.00182986 0)
(-0.00616022 0.0017775 0)
(-0.00640728 0.00172125 0)
(-0.0066164 0.00167191 0)
(-0.00681571 0.0016218 0)
(-0.0069854 0.00157654 0)
(-0.00714358 0.00153191 0)
(-0.00727762 0.00149096 0)
(-0.00739917 0.00145126 0)
(-0.00750016 0.00141453 0)
(-0.00758797 0.00137934 0)
(-0.00765741 0.00134667 0)
(-0.007713 0.00131565 0)
(-0.00775136 0.00128686 0)
(-0.00777494 0.00125974 0)
(-0.0077816 0.00123462 0)
(-0.00777215 0.00121111 0)
(-0.00774532 0.00118941 0)
(-0.00770045 0.00116916 0)
(-0.00763704 0.00115055 0)
(-0.00755292 0.00113307 0)
(-0.00744836 0.00111707 0)
(-0.00731948 0.00110161 0)
(-0.00716743 0.00108746 0)
(-0.00698637 0.00107296 0)
(-0.00677843 0.00105953 0)
(-0.00653562 0.00104448 0)
(-0.00626084 0.00103007 0)
(-0.00594425 0.00101251 0)
(-0.00558869 0.000994492 0)
(-0.00518351 0.000971958 0)
(-0.00472985 0.000946451 0)
(-0.00421803 0.000915543 0)
(-0.00364562 0.000877609 0)
(-0.00300541 0.000832585 0)
(-0.00229088 0.000777122 0)
(-0.00149612 0.000709236 0)
(-0.000613014 0.000626295 0)
(0.000364648 0.000524312 0)
(0.00144499 0.000400145 0)
(0.00263452 0.000248513 0)
(0.00394065 6.50439e-05 0)
(0.0053694 -0.000156449 0)
(0.0069268 -0.000421439 0)
(0.00861739 -0.000736468 0)
(0.0104451 -0.00110724 0)
(0.0124121 -0.00153952 0)
(0.0145198 -0.0020377 0)
(0.0167679 -0.00260515 0)
(0.019155 -0.00324312 0)
(0.0216786 -0.00395094 0)
(0.0243353 -0.00472539 0)
(0.0271209 -0.00556091 0)
(0.0300302 -0.00644946 0)
(0.0330577 -0.00738086 0)
(0.0361964 -0.00834289 0)
(0.0394385 -0.00932178 0)
(0.0427746 -0.0103024 0)
(0.0461935 -0.0112686 0)
(0.0496818 -0.0122039 0)
(0.0532243 -0.0130914 0)
(0.0568035 -0.0139145 0)
(0.0604002 -0.0146576 0)
(0.0639934 -0.0153061 0)
(0.0675614 -0.0158471 0)
(0.0710816 -0.0162701 0)
(0.074532 -0.016567 0)
(0.0778912 -0.0167328 0)
(0.0811392 -0.0167654 0)
(0.0842581 -0.0166659 0)
(0.0872323 -0.0164385 0)
(0.090049 -0.0160902 0)
(0.0926983 -0.0156302 0)
(0.0951733 -0.0150698 0)
(0.09747 -0.0144217 0)
(0.0995872 -0.0136997 0)
(0.101526 -0.0129177 0)
(0.103291 -0.0120897 0)
(0.104886 -0.0112292 0)
(0.10632 -0.010349 0)
(0.1076 -0.00946068 0)
(0.108734 -0.00857476 0)
(0.109733 -0.00770023 0)
(0.110605 -0.00684475 0)
(0.111361 -0.00601452 0)
(0.112008 -0.00521446 0)
(0.112556 -0.00444819 0)
(0.113013 -0.00371823 0)
(0.113385 -0.00302609 0)
(0.113681 -0.00237243 0)
(0.113905 -0.00175716 0)
(0.114064 -0.0011796 0)
(0.114162 -0.000638589 0)
(0.114204 -0.000132583 0)
(0.114193 0.000340243 0)
(0.114132 0.00078194 0)
(0.114024 0.00119467 0)
(0.113871 0.0015807 0)
(0.113676 0.00194229 0)
(0.113439 0.00228174 0)
(0.113162 0.00260124 0)
(0.112846 0.00290298 0)
(0.112491 0.00318894 0)
(0.112098 0.00346111 0)
(0.111667 0.00372122 0)
(0.111198 0.00397091 0)
(0.11069 0.00421173 0)
(0.110144 0.00444473 0)
(0.109558 0.00467152 0)
(0.108931 0.00489216 0)
(0.108264 0.00510874 0)
(-0.000257542 0.00193461 0)
(-0.000876734 0.00277278 0)
(-0.00163417 0.00321454 0)
(-0.00228597 0.00293598 0)
(-0.0027824 0.00286953 0)
(-0.00322752 0.00262173 0)
(-0.00352531 0.00252164 0)
(-0.00379884 0.00235923 0)
(-0.00396582 0.00226582 0)
(-0.0041181 0.00214863 0)
(-0.00419641 0.00206409 0)
(-0.00426297 0.00197114 0)
(-0.00427727 0.00189509 0)
(-0.00428035 0.00181681 0)
(-0.00424508 0.00174828 0)
(-0.00419835 0.00167998 0)
(-0.00412212 0.00161792 0)
(-0.00403391 0.00155701 0)
(-0.00392171 0.00150046 0)
(-0.00379684 0.00144536 0)
(-0.00365128 0.00139348 0)
(-0.00349214 0.00134305 0)
(-0.00331398 0.00129505 0)
(-0.00312103 0.00124837 0)
(-0.00290953 0.00120351 0)
(-0.00268158 0.00115973 0)
(-0.00243456 0.00111723 0)
(-0.0021689 0.00107548 0)
(-0.00188279 0.00103448 0)
(-0.00157513 0.000993723 0)
(-0.00124489 0.000953196 0)
(-0.000889336 0.000912185 0)
(-0.000508294 0.000870866 0)
(-9.72146e-05 0.000827964 0)
(0.000343063 0.000784263 0)
(0.000819192 0.000737314 0)
(0.0013292 0.000689216 0)
(0.00188189 0.000635397 0)
(0.0024745 0.000580304 0)
(0.00311736 0.00051605 0)
(0.00380817 0.000450493 0)
(0.00455718 0.000371551 0)
(0.00536437 0.000290702 0)
(0.00623876 0.000192233 0)
(0.00718233 8.93091e-05 0)
(0.00820564 -3.41658e-05 0)
(0.00930893 -0.000169045 0)
(0.0105037 -0.000326569 0)
(0.0117926 -0.000503696 0)
(0.0131848 -0.000708031 0)
(0.0146851 -0.000940587 0)
(0.0163007 -0.00120771 0)
(0.018037 -0.00151274 0)
(0.0198993 -0.00186174 0)
(0.0218922 -0.00225921 0)
(0.0240192 -0.00271087 0)
(0.0262826 -0.00322117 0)
(0.0286834 -0.00379462 0)
(0.0312212 -0.00443416 0)
(0.033894 -0.00514177 0)
(0.0366985 -0.00591731 0)
(0.0396297 -0.00675887 0)
(0.0426812 -0.007662 0)
(0.0458452 -0.00862006 0)
(0.0491124 -0.00962384 0)
(0.052472 -0.0106619 0)
(0.0559114 -0.0117206 0)
(0.0594163 -0.0127846 0)
(0.0629707 -0.0138367 0)
(0.0665566 -0.014859 0)
(0.0701542 -0.0158328 0)
(0.0737424 -0.0167392 0)
(0.0772987 -0.0175601 0)
(0.0808001 -0.0182785 0)
(0.0842235 -0.0188791 0)
(0.0875462 -0.0193491 0)
(0.0907469 -0.0196786 0)
(0.0938059 -0.019861 0)
(0.0967059 -0.0198932 0)
(0.0994327 -0.0197755 0)
(0.101975 -0.019512 0)
(0.104325 -0.0191099 0)
(0.106479 -0.0185791 0)
(0.108436 -0.0179322 0)
(0.110198 -0.0171835 0)
(0.111771 -0.0163485 0)
(0.113162 -0.0154435 0)
(0.114382 -0.0144848 0)
(0.115443 -0.0134884 0)
(0.116355 -0.0124693 0)
(0.117133 -0.011441 0)
(0.117789 -0.0104158 0)
(0.118337 -0.00940427 0)
(0.118789 -0.0084152 0)
(0.119156 -0.00745578 0)
(0.11945 -0.00653158 0)
(0.11968 -0.00564672 0)
(0.119854 -0.00480401 0)
(0.119981 -0.00400508 0)
(0.120067 -0.0032506 0)
(0.120117 -0.00254038 0)
(0.120137 -0.00187357 0)
(0.120128 -0.00124875 0)
(0.120096 -0.000664102 0)
(0.120041 -0.000117475 0)
(0.119966 0.000393515 0)
(0.119872 0.000871375 0)
(0.11976 0.00131873 0)
(0.119629 0.00173818 0)
(0.11948 0.00213238 0)
(0.119314 0.00250383 0)
(0.119129 0.0028551 0)
(0.118925 0.00318843 0)
(0.118701 0.00350624 0)
(0.118457 0.00381038 0)
(0.118192 0.00410316 0)
(0.117904 0.00438584 0)
(0.117592 0.00466077 0)
(0.117255 0.00492832 0)
(0.116892 0.00519124 0)
(0.1165 0.00544847 0)
(0.11608 0.00570366 0)
(-0.000752651 0.00190048 0)
(-0.00161276 0.0029688 0)
(-0.00199027 0.00346857 0)
(-0.00225915 0.00326973 0)
(-0.00212743 0.00314732 0)
(-0.00210044 0.00288061 0)
(-0.00184982 0.00270616 0)
(-0.00167401 0.00249691 0)
(-0.00137408 0.00234168 0)
(-0.00111283 0.00217861 0)
(-0.000779397 0.00204696 0)
(-0.000463481 0.00191569 0)
(-0.000102416 0.00180361 0)
(0.000252506 0.00169433 0)
(0.000638033 0.00159736 0)
(0.00102374 0.00150362 0)
(0.00143202 0.0014181 0)
(0.00184438 0.00133552 0)
(0.00227496 0.00125858 0)
(0.00271245 0.00118405 0)
(0.00316609 0.00111339 0)
(0.00362909 0.00104455 0)
(0.00410774 0.000978243 0)
(0.00459827 0.000913112 0)
(0.0051051 0.000849408 0)
(0.00562663 0.000786205 0)
(0.00616606 0.000723417 0)
(0.00672353 0.000660379 0)
(0.0073013 0.000596756 0)
(0.00790116 0.000531999 0)
(0.0085244 0.000465614 0)
(0.0091747 0.000396993 0)
(0.00985206 0.000325634 0)
(0.0105626 0.000250589 0)
(0.0113043 0.000171645 0)
(0.0120868 8.70396e-05 0)
(0.0129048 -2.63543e-06 0)
(0.0137728 -0.000100635 0)
(0.0146813 -0.000204964 0)
(0.0156503 -0.000320854 0)
(0.0166659 -0.000445059 0)
(0.0177525 -0.000583668 0)
(0.0188956 -0.000735098 0)
(0.0201167 -0.000901551 0)
(0.0214113 -0.00108931 0)
(0.0227866 -0.00129327 0)
(0.0242514 -0.00152055 0)
(0.0258084 -0.00177377 0)
(0.0274662 -0.00205415 0)
(0.0292283 -0.00236739 0)
(0.0311019 -0.00271491 0)
(0.0330908 -0.00310249 0)
(0.0352004 -0.00353275 0)
(0.0374337 -0.0040111 0)
(0.0397938 -0.00454085 0)
(0.042282 -0.00512667 0)
(0.0448984 -0.00577156 0)
(0.0476411 -0.00647865 0)
(0.0505071 -0.00724927 0)
(0.0534907 -0.00808382 0)
(0.0565848 -0.00898048 0)
(0.0597798 -0.00993565 0)
(0.0630644 -0.0109431 0)
(0.0664249 -0.0119945 0)
(0.0698458 -0.0130786 0)
(0.0733096 -0.0141822 0)
(0.0767967 -0.0152895 0)
(0.080286 -0.0163833 0)
(0.0837549 -0.0174447 0)
(0.0871795 -0.018454 0)
(0.0905353 -0.0193915 0)
(0.0937974 -0.0202376 0)
(0.0969414 -0.0209741 0)
(0.099944 -0.0215845 0)
(0.102783 -0.0220546 0)
(0.10544 -0.0223733 0)
(0.107897 -0.0225329 0)
(0.110143 -0.0225296 0)
(0.112167 -0.0223634 0)
(0.113965 -0.0220385 0)
(0.115537 -0.0215626 0)
(0.116885 -0.0209469 0)
(0.118018 -0.0202053 0)
(0.118944 -0.0193539 0)
(0.119678 -0.01841 0)
(0.120236 -0.0173917 0)
(0.120633 -0.016317 0)
(0.12089 -0.0152035 0)
(0.121025 -0.0140677 0)
(0.121057 -0.0129247 0)
(0.121004 -0.011788 0)
(0.120884 -0.0106692 0)
(0.120712 -0.00957815 0)
(0.120504 -0.00852265 0)
(0.120271 -0.00750871 0)
(0.120024 -0.00654065 0)
(0.119774 -0.00562125 0)
(0.119526 -0.00475197 0)
(0.119287 -0.00393315 0)
(0.119061 -0.0031642 0)
(0.118851 -0.00244381 0)
(0.11866 -0.0017701 0)
(0.118487 -0.00114076 0)
(0.118334 -0.000553179 0)
(0.1182 -4.55681e-06 0)
(0.118084 0.000508017 0)
(0.117985 0.000987518 0)
(0.117901 0.00143689 0)
(0.11783 0.00185906 0)
(0.11777 0.00225685 0)
(0.11772 0.00263303 0)
(0.117676 0.00299015 0)
(0.117638 0.00333078 0)
(0.117602 0.00365715 0)
(0.117567 0.00397156 0)
(0.11753 0.00427591 0)
(0.11749 0.00457217 0)
(0.117444 0.00486197 0)
(0.11739 0.00514668 0)
(0.117325 0.00542819 0)
(0.117248 0.00570635 0)
(0.117156 0.0059845 0)
(-0.000303559 0.00445847 0)
(-0.000214741 0.00405109 0)
(0.000311781 0.00396929 0)
(0.00089645 0.00307382 0)
(0.00168748 0.00275565 0)
(0.00242294 0.00233154 0)
(0.00325998 0.00210808 0)
(0.00404097 0.00186781 0)
(0.0048767 0.00170369 0)
(0.00566917 0.00153891 0)
(0.00649201 0.00140872 0)
(0.00728388 0.00128115 0)
(0.00809296 0.00117194 0)
(0.00888072 0.00106575 0)
(0.00967867 0.000970377 0)
(0.0104626 0.000877638 0)
(0.0112534 0.000791651 0)
(0.0120359 0.000707667 0)
(0.0128241 0.000627901 0)
(0.0136089 0.000549419 0)
(0.0143998 0.000473359 0)
(0.0151916 0.000397811 0)
(0.0159912 0.000323252 0)
(0.0167959 0.000248376 0)
(0.0176107 0.000173216 0)
(0.0184351 9.68369e-05 0)
(0.0192729 1.89363e-05 0)
(0.0201248 -6.11978e-05 0)
(0.0209941 -0.000144134 0)
(0.0218827 -0.000230485 0)
(0.0227931 -0.00032101 0)
(0.023729 -0.000416396 0)
(0.0246914 -0.000517419 0)
(0.0256863 -0.000625172 0)
(0.026713 -0.000740031 0)
(0.0277805 -0.000864208 0)
(0.0288848 -0.000996698 0)
(0.0300402 -0.00114234 0)
(0.031237 -0.00129668 0)
(0.032497 -0.00147017 0)
(0.0338027 -0.0016509 0)
(0.0351852 -0.00186014 0)
(0.0366182 -0.00207254 0)
(0.0381406 -0.00232577 0)
(0.039722 -0.00257956 0)
(0.0413993 -0.00287598 0)
(0.0431568 -0.00319075 0)
(0.0450089 -0.00354262 0)
(0.0469549 -0.00392415 0)
(0.0490012 -0.00434494 0)
(0.0511507 -0.00480391 0)
(0.0534064 -0.00530732 0)
(0.0557705 -0.00585651 0)
(0.0582436 -0.00645613 0)
(0.0608256 -0.00710815 0)
(0.063514 -0.00781582 0)
(0.0663054 -0.00858037 0)
(0.0691937 -0.009403 0)
(0.0721709 -0.0102829 0)
(0.0752267 -0.0112181 0)
(0.0783483 -0.0122045 0)
(0.0815205 -0.0132361 0)
(0.084726 -0.0143042 0)
(0.0879449 -0.0153981 0)
(0.0911556 -0.0165047 0)
(0.0943344 -0.0176087 0)
(0.0974564 -0.0186929 0)
(0.100496 -0.0197385 0)
(0.103426 -0.0207261 0)
(0.10622 -0.0216354 0)
(0.108854 -0.0224469 0)
(0.111302 -0.0231419 0)
(0.113543 -0.0237034 0)
(0.115558 -0.0241171 0)
(0.117331 -0.0243719 0)
(0.118851 -0.0244602 0)
(0.120111 -0.0243788 0)
(0.121109 -0.0241285 0)
(0.121846 -0.0237142 0)
(0.12233 -0.0231445 0)
(0.122573 -0.0224315 0)
(0.122589 -0.0215902 0)
(0.122399 -0.0206376 0)
(0.122024 -0.0195923 0)
(0.121488 -0.018474 0)
(0.120817 -0.0173024 0)
(0.120038 -0.0160968 0)
(0.119176 -0.0148751 0)
(0.118257 -0.0136537 0)
(0.117303 -0.012447 0)
(0.116336 -0.011267 0)
(0.115376 -0.0101234 0)
(0.114439 -0.00902381 0)
(0.113539 -0.00797368 0)
(0.112689 -0.0069766 0)
(0.111896 -0.00603459 0)
(0.111168 -0.00514827 0)
(0.11051 -0.0043172 0)
(0.109924 -0.00354 0)
(0.10941 -0.00281465 0)
(0.10897 -0.0021386 0)
(0.1086 -0.00150895 0)
(0.108299 -0.00092258 0)
(0.108063 -0.000376224 0)
(0.107889 0.000133408 0)
(0.107774 0.000609603 0)
(0.107711 0.00105557 0)
(0.107698 0.00147444 0)
(0.107731 0.0018692 0)
(0.107804 0.00224273 0)
(0.107914 0.00259771 0)
(0.108057 0.00293677 0)
(0.10823 0.00326222 0)
(0.108428 0.00357648 0)
(0.108648 0.00388137 0)
(0.108889 0.00417927 0)
(0.109144 0.00447125 0)
(0.109414 0.00476009 0)
(0.109691 0.00504543 0)
(0.10998 0.00533141 0)
(0.110269 0.00561489 0)
(0.110565 0.00590291 0)
(0.0023149 0.00216615 0)
(0.00441361 0.00222617 0)
(0.00786797 0.00228412 0)
(0.00989985 0.00185193 0)
(0.0121489 0.00160931 0)
(0.0138393 0.00130189 0)
(0.0155644 0.00109817 0)
(0.0170354 0.000887024 0)
(0.0185006 0.000729213 0)
(0.0198303 0.000573959 0)
(0.0211446 0.000447674 0)
(0.0223775 0.000325449 0)
(0.0235939 0.000219906 0)
(0.0247576 0.000117949 0)
(0.0259065 2.59097e-05 0)
(0.0270198 -6.35422e-05 0)
(0.028121 -0.00014718 0)
(0.029198 -0.000229356 0)
(0.0302663 -0.000308474 0)
(0.0313189 -0.000387268 0)