/*--------------------------------*- C++ -*----------------------------------*\
| =========                 |                                                 |
| \\      /  F ield         | OpenFOAM: The Open Source CFD Toolbox           |
|  \\    /   O peration     | Version:  4.1                                   |
|   \\  /    A nd           | Web:      www.OpenFOAM.org                      |
|    \\/     M anipulation  |                                                 |
\*---------------------------------------------------------------------------*/
FoamFile
{
    version     2.0;
    format      ascii;
    class       volVectorField;
    location    "0.0252";
    object      U;
}
// * * * * * * * * * * * * * * * * * * * * * * * * * * * * * * * * * * * * * //

dimensions      [0 1 -1 0 0 0 0];

internalField   nonuniform List<vector> 
441
(
(-0.000103217 8.5648e-05 0)
(-0.000504261 0.000285754 0)
(-0.00110079 0.000480319 0)
(-0.00183912 0.000610347 0)
(-0.00264693 0.000666423 0)
(-0.0034523 0.000655057 0)
(-0.00419295 0.00058807 0)
(-0.00481932 0.000478292 0)
(-0.00529458 0.000337744 0)
(-0.00559336 0.000177129 0)
(-0.00570042 6.05179e-06 0)
(-0.00560971 -0.000166361 0)
(-0.00532426 -0.000330689 0)
(-0.00485701 -0.000476503 0)
(-0.00423215 -0.000591898 0)
(-0.00348685 -0.000663517 0)
(-0.00267249 -0.000677395 0)
(-0.00185415 -0.000621123 0)
(-0.00110678 -0.00048842 0)
(-0.000504898 -0.00028984 0)
(-0.000102731 -8.61593e-05 0)
(-0.000345247 0.000463734 0)
(-0.00152595 0.00135757 0)
(-0.00314966 0.00211149 0)
(-0.0050802 0.00259635 0)
(-0.00714813 0.0027897 0)
(-0.00918594 0.00271807 0)
(-0.0110474 0.00242743 0)
(-0.0126152 0.00196798 0)
(-0.0138015 0.00138701 0)
(-0.0145458 0.00072674 0)
(-0.0148115 2.51081e-05 0)
(-0.0145844 -0.000681847 0)
(-0.013872 -0.00135692 0)
(-0.0127054 -0.00195893 0)
(-0.0111425 -0.00244086 0)
(-0.00927161 -0.00275015 0)
(-0.00721384 -0.00283209 0)
(-0.00512157 -0.00263835 0)
(-0.00316911 -0.0021433 0)
(-0.00153108 -0.00137383 0)
(-0.000345273 -0.000466262 0)
(-0.00060224 0.00107311 0)
(-0.00251612 0.00294831 0)
(-0.00503325 0.00441614 0)
(-0.00794843 0.0053239 0)
(-0.011023 0.00565754 0)
(-0.0140245 0.00547633 0)
(-0.0167503 0.00487099 0)
(-0.0190376 0.00393889 0)
(-0.0207645 0.00277159 0)
(-0.0218469 0.00145079 0)
(-0.0222339 4.98667e-05 0)
(-0.0219056 -0.0013615 0)
(-0.0208722 -0.0027114 0)
(-0.0191765 -0.00392015 0)
(-0.0168986 -0.00489679 0)
(-0.0141608 -0.00553947 0)
(-0.0111307 -0.00574188 0)
(-0.00801974 -0.00540845 0)
(-0.00507023 -0.00448124 0)
(-0.00252883 -0.00298264 0)
(-0.00060383 -0.00107928 0)
(-0.00084107 0.00190353 0)
(-0.00343095 0.00503486 0)
(-0.00675355 0.00736181 0)
(-0.0105356 0.00874848 0)
(-0.0144761 0.0092146 0)
(-0.0182898 0.0088689 0)
(-0.0217322 0.00785925 0)
(-0.0246088 0.00634 0)
(-0.0267756 0.00445475 0)
(-0.0281333 0.00233087 0)
(-0.0286223 8.22068e-05 0)
(-0.0282183 -0.0021834 0)
(-0.0269323 -0.00435461 0)
(-0.0248129 -0.0063076 0)
(-0.0219532 -0.00790027 0)
(-0.018497 -0.00897238 0)
(-0.0146447 -0.00935484 0)
(-0.0106523 -0.00889121 0)
(-0.00681868 -0.00747395 0)
(-0.00345684 -0.00509602 0)
(-0.000845591 -0.00191584 0)
(-0.0010671 0.0029452 0)
(-0.00430276 0.00760218 0)
(-0.00839291 0.0109343 0)
(-0.0129931 0.0128526 0)
(-0.0177384 0.0134368 0)
(-0.0222941 0.0128658 0)
(-0.0263805 0.0113602 0)
(-0.0297801 0.00914247 0)
(-0.0323345 0.00641585 0)
(-0.0339364 0.00335828 0)
(-0.034521 0.000127092 0)
(-0.034061 -0.00312955 0)
(-0.0325656 -0.00625844 0)
(-0.0300842 -0.00908783 0)
(-0.0267146 -0.0114183 0)
(-0.0226137 -0.0130217 0)
(-0.0180059 -0.013653 0)
(-0.0131858 -0.0130772 0)
(-0.00850715 -0.0111154 0)
(-0.00435281 -0.00770485 0)
(-0.00107722 -0.00296836 0)
(-0.00129523 0.00419973 0)
(-0.00518908 0.0106589 0)
(-0.0100607 0.0151477 0)
(-0.0154871 0.0176491 0)
(-0.0210341 0.0183305 0)
(-0.0263168 0.0174656 0)
(-0.0310237 0.0153665 0)
(-0.0349201 0.0123371 0)
(-0.0378405 0.00864851 0)
(-0.039675 0.00453298 0)
(-0.0403577 0.000192388 0)
(-0.0398589 -0.00418505 0)
(-0.0381834 -0.00840426 0)
(-0.0353758 -0.0122436 0)
(-0.0315315 -0.0154406 0)
(-0.026812 -0.017689 0)
(-0.0214594 -0.018651 0)
(-0.0158042 -0.0179912 0)
(-0.0102577 -0.015432 0)
(-0.00528133 -0.0108276 0)
(-0.0013154 -0.00424254 0)
(-0.00154129 0.00568435 0)
(-0.00614962 0.0142437 0)
(-0.0118634 0.0200491 0)
(-0.0181684 0.0231816 0)
(-0.0245529 0.0239285 0)
(-0.0305796 0.0226878 0)
(-0.0359084 0.0198868 0)
(-0.0402944 0.0159267 0)
(-0.0435723 0.0111547 0)
(-0.0456367 0.00586026 0)
(-0.0464246 0.000288581 0)
(-0.0459046 -0.00533525 0)
(-0.0440746 -0.0107771 0)
(-0.040968 -0.0157656 0)
(-0.036669 -0.0199709 0)
(-0.0313345 -0.0229963 0)
(-0.0252161 -0.0243915 0)
(-0.0186773 -0.0236921 0)
(-0.0121915 -0.0204885 0)
(-0.00631044 -0.0145175 0)
(-0.00157809 -0.00576201 0)
(-0.00181865 0.00743156 0)
(-0.00723449 0.0184236 0)
(-0.013886 0.0257136 0)
(-0.0211485 0.0295152 0)
(-0.0284223 0.0302769 0)
(-0.0352168 0.0285585 0)
(-0.0411692 0.0249316 0)
(-0.0460338 0.0199129 0)
(-0.0496563 0.0139349 0)
(-0.0519444 0.00734529 0)
(-0.0528441 0.000428206 0)
(-0.0523238 -0.00656117 0)
(-0.0503714 -0.0133563 0)
(-0.0470014 -0.0196396 0)
(-0.0422757 -0.0250105 0)
(-0.0363332 -0.0289698 0)
(-0.0294234 -0.0309306 0)
(-0.0219359 -0.0302635 0)
(-0.0144089 -0.0263822 0)
(-0.00749955 -0.0188612 0)
(-0.00188107 -0.00756831 0)
(-0.00213587 0.00948661 0)
(-0.00847538 0.0232864 0)
(-0.0161752 0.0322313 0)
(-0.0244751 0.0367189 0)
(-0.0326765 0.0374142 0)
(-0.040238 0.035088 0)
(-0.0467853 0.0304913 0)
(-0.0520876 0.0242784 0)
(-0.0560162 0.0169751 0)
(-0.0585048 0.00898549 0)
(-0.0595161 0.000624563 0)
(-0.0590214 -0.00783419 0)
(-0.0569952 -0.0161036 0)
(-0.0534245 -0.0238279 0)
(-0.048334 -0.0305365 0)
(-0.0418259 -0.0356159 0)
(-0.0341287 -0.0383147 0)
(-0.0256438 -0.0377935 0)
(-0.0169714 -0.0332296 0)
(-0.00889001 -0.0239713 0)
(-0.00223555 -0.00971875 0)
(-0.0024941 0.0119031 0)
(-0.00987513 0.0289273 0)
(-0.0187192 0.0396865 0)
(-0.0281 0.0448381 0)
(-0.0372124 0.0453408 0)
(-0.0454743 0.0422397 0)
(-0.0525205 0.0365092 0)
(-0.0581575 0.0289639 0)
(-0.0623041 0.0202293 0)
(-0.064936 0.0107605 0)
(-0.0660437 0.000889273 0)
(-0.065606 -0.00911036 0)
(-0.0635816 -0.018949 0)
(-0.0599198 -0.0282478 0)
(-0.0545901 -0.0364722 0)
(-0.0476333 -0.0428863 0)
(-0.0392272 -0.0465445 0)
(-0.029759 -0.0463423 0)
(-0.0198774 -0.0411414 0)
(-0.0104931 -0.0299715 0)
(-0.00264518 -0.012282 0)
(-0.00288302 0.0147366 0)
(-0.0113925 0.0354293 0)
(-0.0214172 0.0481252 0)
(-0.0318331 0.0538541 0)
(-0.0417291 0.0539751 0)
(-0.0505064 0.0498892 0)
(-0.0578416 0.0428445 0)
(-0.0636118 0.0338385 0)
(-0.0678104 0.0235989 0)
(-0.0704761 0.0126194 0)
(-0.0716402 0.00122822 0)
(-0.0712952 -0.0103252 0)
(-0.0693836 -0.0217756 0)
(-0.0658072 -0.0327447 0)
(-0.0604611 -0.0426498 0)
(-0.053293 -0.0506319 0)
(-0.0443894 -0.0555244 0)
(-0.0340788 -0.055894 0)
(-0.023026 -0.050184 0)
(-0.012272 -0.0369735 0)
(-0.00310152 -0.0153309 0)
(-0.00327465 0.0180342 0)
(-0.0129192 0.0428333 0)
(-0.0240363 0.0575082 0)
(-0.0352777 0.0636276 0)
(-0.0456459 0.0630966 0)
(-0.05457 0.0577718 0)
(-0.0618187 0.0492295 0)
(-0.0673828 0.0386678 0)
(-0.0713626 0.0269096 0)
(-0.0738816 0.0144667 0)
(-0.0750263 0.00163578 0)
(-0.0748108 -0.0113906 0)
(-0.0731631 -0.0244056 0)
(-0.0699323 -0.0370656 0)
(-0.0649209 -0.0487688 0)
(-0.05795 -0.0585466 0)
(-0.0489619 -0.0649951 0)
(-0.0381608 -0.0662873 0)
(-0.0261641 -0.0603209 0)
(-0.0141144 -0.0450402 0)
(-0.00357681 -0.0189311 0)
(-0.00361338 0.0218208 0)
(-0.0142439 0.0510951 0)
(-0.0261459 0.0676457 0)
(-0.0377395 0.073824 0)
(-0.0479935 0.0722735 0)
(-0.0564411 0.065423 0)
(-0.0630118 0.0552249 0)
(-0.0678604 0.0430815 0)
(-0.0712264 0.0298901 0)
(-0.0733361 0.016149 0)
(-0.0743418 0.00208777 0)
(-0.0742873 -0.0121951 0)
(-0.0730924 -0.0265916 0)
(-0.0705556 -0.0408369 0)
(-0.0663788 -0.054355 0)
(-0.0602279 -0.0661044 0)
(-0.0518433 -0.0744514 0)
(-0.0412152 -0.077124 0)
(-0.0288086 -0.0713298 0)
(-0.0157901 -0.054131 0)
(-0.00401278 -0.0231229 0)
(-0.00379915 0.0260774 0)
(-0.0149928 0.0600246 0)
(-0.0270171 0.0781072 0)
(-0.0380959 0.0838173 0)
(-0.0472741 0.080782 0)
(-0.054303 0.0721193 0)
(-0.0593571 0.0601827 0)
(-0.062803 0.0465541 0)
(-0.0650386 0.0321623 0)
(-0.0663984 0.0174483 0)
(-0.0671016 0.00253494 0)
(-0.0672264 -0.012611 0)
(-0.0666959 -0.0280211 0)
(-0.0652733 -0.0435591 0)
(-0.0625715 -0.0587364 0)
(-0.0580935 -0.072506 0)
(-0.0513311 -0.0830549 0)
(-0.0419575 -0.0876552 0)
(-0.0301304 -0.082689 0)
(-0.016883 -0.0640217 0)
(-0.00430199 -0.0278947 0)
(-0.00365566 0.0307084 0)
(-0.0145221 0.0691954 0)
(-0.0254526 0.0881004 0)
(-0.0345999 0.0925782 0)
(-0.0412759 0.0875272 0)
(-0.0456001 0.0768392 0)
(-0.0480718 0.0632383 0)
(-0.0492915 0.0484136 0)
(-0.0498045 0.0332547 0)
(-0.050031 0.0180906 0)
(-0.0502397 0.0029 0)
(-0.0505404 -0.0125106 0)
(-0.050875 -0.0283427 0)
(-0.0510054 -0.0446347 0)
(-0.0504991 -0.0610572 0)
(-0.0487316 -0.0766591 0)
(-0.0449418 -0.0895633 0)
(-0.0384015 -0.0966594 0)
(-0.0287678 -0.0934302 0)
(-0.0166729 -0.0741893 0)
(-0.00425401 -0.033142 0)
(-0.00286283 0.0354868 0)
(-0.0116959 0.0778084 0)
(-0.0194734 0.0963099 0)
(-0.0245602 0.0985567 0)
(-0.026818 0.0909981 0)
(-0.0268807 0.0782797 0)
(-0.0255987 0.0633626 0)
(-0.0237627 0.0479053 0)
(-0.0219975 0.0326578 0)
(-0.0207445 0.0177804 0)
(-0.0202784 0.00308349 0)
(-0.0207239 -0.0117923 0)
(-0.0220594 -0.0272243 0)
(-0.0240975 -0.0434499 0)
(-0.026445 -0.0603645 0)
(-0.028454 -0.0772393 0)
(-0.0291981 -0.0923247 0)
(-0.0275514 -0.102341 0)
(-0.0225027 -0.101961 0)
(-0.0139017 -0.0836426 0)
(-0.00352612 -0.0385991 0)
(-0.000788653 0.0399356 0)
(-0.00438753 0.0844515 0)
(-0.00569954 0.100682 0)
(-0.00380145 0.0995974 0)
(0.000605171 0.0893145 0)
(0.0063562 0.0749855 0)
(0.0123744 0.0595201 0)
(0.017842 0.0443391 0)
(0.0222036 0.0299389 0)
(0.0251088 0.016271 0)
(0.0263496 0.00298449 0)
(0.0258165 -0.0104152 0)
(0.023483 -0.0244457 0)
(0.019424 -0.0395251 0)
(0.0138726 -0.055803 0)
(0.00731523 -0.0728901 0)
(0.000610225 -0.0894142 0)
(-0.00493051 -0.102317 0)
(-0.00765888 -0.105868 0)
(-0.00627038 -0.0906531 0)
(-0.00145454 -0.0437059 0)
(0.00399748 0.043092 0)
(0.0117275 0.0867138 0)
(0.0219064 0.0982149 0)
(0.0342373 0.093013 0)
(0.0472847 0.0804975 0)
(0.0597544 0.065686 0)
(0.0707537 0.0509855 0)
(0.0797601 0.037344 0)
(0.0865097 0.024924 0)
(0.0908843 0.0134757 0)
(0.092825 0.00254106 0)
(0.0922771 -0.00843241 0)
(0.0891664 -0.0200173 0)
(0.0834086 -0.0327344 0)
(0.0749569 -0.0469431 0)
(0.0639026 -0.0626374 0)
(0.0506443 -0.0790477 0)
(0.0361242 -0.093868 0)
(0.0220536 -0.101829 0)
(0.0107433 -0.09237 0)
(0.00343482 -0.0473439 0)
(0.0156317 0.0426597 0)
(0.0462475 0.0801612 0)
(0.0744782 0.0847415 0)
(0.0998055 0.0760178 0)
(0.121694 0.0631368 0)
(0.139943 0.0499291 0)
(0.154599 0.0378382 0)
(0.165849 0.0272164 0)
(0.173928 0.0179235 0)
(0.179048 0.00959895 0)
(0.181348 0.00178683 0)
(0.180854 -0.00600703 0)
(0.177465 -0.0142866 0)
(0.170943 -0.0235409 0)
(0.160921 -0.0341994 0)
(0.146936 -0.0465301 0)
(0.128512 -0.0603956 0)
(0.105337 -0.0746568 0)
(0.0776579 -0.0857216 0)
(0.0468247 -0.0839585 0)
(0.0153352 -0.0469956 0)
(0.0494629 0.0346956 0)
(0.122244 0.0588528 0)
(0.17275 0.0566479 0)
(0.208216 0.0476977 0)
(0.234266 0.0379794 0)
(0.253699 0.0291535 0)
(0.268161 0.0216137 0)
(0.278685 0.0152856 0)
(0.285972 0.00992653 0)
(0.290488 0.00523608 0)
(0.292508 0.000898245 0)
(0.292123 -0.00340456 0)
(0.289242 -0.00798863 0)
(0.28357 -0.0131679 0)
(0.274566 -0.0192474 0)
(0.261364 -0.026501 0)
(0.242611 -0.035108 0)
(0.216156 -0.0449499 0)
(0.178641 -0.0549168 0)
(0.124506 -0.0596316 0)
(0.0495649 -0.0382929 0)
(0.182862 0.00465199 0)
(0.296731 0.00822223 0)
(0.350604 0.0116849 0)
(0.377858 0.0113749 0)
(0.394437 0.00952343 0)
(0.405399 0.00743393 0)
(0.412969 0.00552918 0)
(0.418209 0.00389823 0)
(0.421711 0.00251041 0)
(0.423824 0.00129646 0)
(0.424741 0.000176457 0)
(0.424535 -0.000930429 0)
(0.423166 -0.00210168 0)
(0.42047 -0.00340641 0)
(0.416112 -0.00489336 0)
(0.409476 -0.0065607 0)
(0.399376 -0.00828103 0)
(0.383241 -0.00963637 0)
(0.355208 -0.0095865 0)
(0.298309 -0.0069855 0)
(0.181138 -0.00728993 0)
)
;

boundaryField
{
    movingWall
    {
        type            fixedValue;
        value           uniform (0.5 0 0);
    }
    fixedWalls
    {
        type            noSlip;
    }
    frontAndBack
    {
        type            empty;
    }
}


// ************************************************************************* //
