/*--------------------------------*- C++ -*----------------------------------*\
| =========                 |                                                 |
| \\      /  F ield         | OpenFOAM: The Open Source CFD Toolbox           |
|  \\    /   O peration     | Version:  4.1                                   |
|   \\  /    A nd           | Web:      www.OpenFOAM.org                      |
|    \\/     M anipulation  |                                                 |
\*---------------------------------------------------------------------------*/
FoamFile
{
    version     2.0;
    format      ascii;
    class       volScalarField;
    location    "3120";
    object      p;
}
// * * * * * * * * * * * * * * * * * * * * * * * * * * * * * * * * * * * * * //

dimensions      [1 -1 -2 0 0 0 0];

internalField   nonuniform List<scalar> 
1275
(
0.712256
0.712208
0.712201
0.712158
0.712146
0.712102
0.712086
0.712035
0.71202
0.711952
0.712268
0.712216
0.71221
0.712165
0.712155
0.712111
0.712098
0.712052
0.712044
0.711998
0.712285
0.712231
0.712226
0.712179
0.71217
0.712126
0.712114
0.712071
0.712059
0.712021
0.712305
0.712249
0.712245
0.712198
0.71219
0.712147
0.712138
0.712099
0.712091
0.712057
0.712324
0.712268
0.712265
0.712218
0.71221
0.712169
0.712159
0.712123
0.712113
0.712083
0.71234
0.712285
0.712281
0.712236
0.712229
0.71219
0.71218
0.712146
0.712137
0.712108
0.712349
0.712296
0.712291
0.712249
0.71224
0.712204
0.712193
0.712161
0.71215
0.712123
0.712351
0.712303
0.712297
0.712257
0.712248
0.712212
0.712201
0.71217
0.712158
0.712132
0.712345
0.712302
0.712296
0.712258
0.712248
0.712214
0.712201
0.712171
0.712158
0.712133
0.712076
0.712082
0.712088
0.712094
0.7121
0.712107
0.712114
0.712121
0.712129
0.712137
0.712145
0.712154
0.712163
0.712172
0.712182
0.712192
0.712203
0.712214
0.712226
0.712239
0.712252
0.712266
0.71228
0.712296
0.712312
0.712329
0.712347
0.712367
0.712387
0.712409
0.712432
0.712457
0.712483
0.71251
0.712539
0.71257
0.712602
0.712635
0.71267
0.712706
0.712742
0.71278
0.712817
0.712855
0.712892
0.712929
0.712965
0.712999
0.713031
0.713062
0.71309
0.713116
0.713139
0.71316
0.713177
0.713193
0.713206
0.713216
0.713225
0.713232
0.713237
0.713241
0.713244
0.713246
0.713247
0.713248
0.713249
0.71325
0.71325
0.713251
0.713252
0.713253
0.713254
0.713256
0.713257
0.71326
0.713262
0.713265
0.711928
0.711979
0.711972
0.711994
0.711989
0.711998
0.711994
0.711997
0.711995
0.711996
0.711995
0.711995
0.711994
0.711995
0.711994
0.711995
0.711995
0.711996
0.711996
0.711997
0.711998
0.711999
0.712
0.712002
0.712003
0.712005
0.712007
0.712009
0.712012
0.712014
0.712017
0.71202
0.712023
0.712027
0.71203
0.712034
0.712038
0.712042
0.712046
0.712051
0.712056
0.712061
0.712066
0.712072
0.712077
0.712084
0.71209
0.712097
0.712103
0.712111
0.712118
0.712126
0.712135
0.712143
0.712152
0.712162
0.712172
0.712182
0.712193
0.712205
0.712217
0.712229
0.712243
0.712257
0.712271
0.712286
0.712302
0.712319
0.712337
0.712356
0.712375
0.712396
0.712418
0.71244
0.712464
0.712489
0.712515
0.712543
0.712571
0.7126
0.712631
0.712662
0.712694
0.712727
0.71276
0.712793
0.712826
0.712859
0.712891
0.712923
0.712953
0.712982
0.713009
0.713034
0.713057
0.713078
0.713097
0.713113
0.713128
0.71314
0.713151
0.71316
0.713168
0.713174
0.71318
0.713184
0.713188
0.713191
0.713194
0.713196
0.713199
0.713201
0.713204
0.713206
0.713209
0.713212
0.713215
0.713218
0.713222
0.713226
0.71323
0.713234
0.713238
0.712001
0.712005
0.711999
0.712005
0.711998
0.712001
0.711996
0.711998
0.711995
0.711995
0.711994
0.711994
0.711993
0.711994
0.711994
0.711994
0.711994
0.711995
0.711996
0.711997
0.711998
0.712
0.712001
0.712003
0.712005
0.712007
0.712009
0.712012
0.712015
0.712018
0.712021
0.712024
0.712027
0.712031
0.712035
0.712039
0.712044
0.712049
0.712054
0.712059
0.712064
0.71207
0.712076
0.712082
0.712089
0.712096
0.712103
0.712111
0.712119
0.712128
0.712137
0.712146
0.712156
0.712166
0.712177
0.712188
0.7122
0.712212
0.712225
0.712238
0.712253
0.712267
0.712283
0.712299
0.712316
0.712334
0.712352
0.712372
0.712392
0.712413
0.712435
0.712458
0.712481
0.712506
0.712531
0.712557
0.712584
0.712612
0.71264
0.712669
0.712698
0.712728
0.712757
0.712787
0.712816
0.712845
0.712874
0.712901
0.712927
0.712952
0.712976
0.712998
0.713018
0.713037
0.713054
0.71307
0.713083
0.713095
0.713106
0.713115
0.713123
0.71313
0.713136
0.713141
0.713146
0.713151
0.713155
0.713159
0.713163
0.713167
0.713171
0.713175
0.71318
0.713184
0.713188
0.713192
0.713197
0.713201
0.713206
0.71321
0.713215
0.71322
0.713226
0.71201
0.71201
0.712004
0.712009
0.712005
0.712008
0.712004
0.712005
0.712002
0.712002
0.712
0.711999
0.711998
0.711998
0.711997
0.711997
0.711997
0.711998
0.711998
0.711999
0.712
0.712002
0.712003
0.712005
0.712007
0.71201
0.712012
0.712015
0.712018
0.712021
0.712025
0.712029
0.712033
0.712037
0.712042
0.712047
0.712052
0.712057
0.712063
0.712069
0.712075
0.712082
0.712089
0.712096
0.712104
0.712112
0.712121
0.71213
0.712139
0.712149
0.712159
0.71217
0.712181
0.712193
0.712206
0.712219
0.712233
0.712247
0.712262
0.712278
0.712294
0.712311
0.712329
0.712347
0.712367
0.712387
0.712407
0.712429
0.712451
0.712474
0.712498
0.712522
0.712547
0.712572
0.712598
0.712625
0.712652
0.712679
0.712706
0.712733
0.71276
0.712787
0.712813
0.712839
0.712864
0.712889
0.712912
0.712935
0.712956
0.712975
0.712994
0.713011
0.713026
0.71304
0.713053
0.713064
0.713075
0.713084
0.713092
0.7131
0.713107
0.713114
0.71312
0.713125
0.713131
0.713136
0.713141
0.713146
0.713151
0.713156
0.71316
0.713165
0.71317
0.713175
0.713179
0.713184
0.713189
0.713194
0.7132
0.713205
0.71321
0.713215
0.713221
0.712055
0.712042
0.712037
0.712031
0.712025
0.712021
0.712015
0.712012
0.712008
0.712006
0.712003
0.712001
0.712
0.711999
0.711998
0.711998
0.711998
0.711998
0.711999
0.712
0.712001
0.712003
0.712005
0.712007
0.71201
0.712012
0.712015
0.712019
0.712022
0.712026
0.71203
0.712035
0.712039
0.712044
0.712049
0.712055
0.712061
0.712067
0.712073
0.71208
0.712088
0.712095
0.712103
0.712112
0.712121
0.71213
0.71214
0.71215
0.712161
0.712172
0.712184
0.712196
0.712209
0.712223
0.712237
0.712252
0.712268
0.712284
0.712301
0.712319
0.712337
0.712356
0.712376
0.712396
0.712417
0.712439
0.712461
0.712484
0.712508
0.712532
0.712557
0.712582
0.712607
0.712632
0.712658
0.712684
0.71271
0.712735
0.712761
0.712786
0.71281
0.712834
0.712857
0.71288
0.712901
0.712921
0.71294
0.712958
0.712975
0.712991
0.713005
0.713018
0.713031
0.713042
0.713053
0.713062
0.713071
0.71308
0.713088
0.713095
0.713101
0.713108
0.713113
0.713119
0.713125
0.71313
0.713136
0.713141
0.713147
0.713152
0.713157
0.713162
0.713168
0.713173
0.713178
0.713183
0.713188
0.713193
0.713198
0.713203
0.713209
0.713214
0.71322
0.712075
0.712057
0.712051
0.712041
0.712035
0.712028
0.712023
0.712018
0.712014
0.71201
0.712007
0.712005
0.712002
0.712001
0.712
0.711999
0.711999
0.711999
0.712
0.712001
0.712003
0.712004
0.712006
0.712009
0.712012
0.712015
0.712018
0.712022
0.712026
0.71203
0.712035
0.712039
0.712045
0.71205
0.712056
0.712062
0.712069
0.712076
0.712083
0.712091
0.712099
0.712107
0.712116
0.712125
0.712135
0.712146
0.712156
0.712168
0.71218
0.712192
0.712205
0.712219
0.712234
0.712249
0.712264
0.712281
0.712298
0.712315
0.712334
0.712353
0.712372
0.712393
0.712414
0.712435
0.712458
0.71248
0.712504
0.712527
0.712552
0.712576
0.712601
0.712626
0.712651
0.712676
0.712701
0.712725
0.712749
0.712773
0.712797
0.712819
0.712841
0.712862
0.712882
0.712902
0.71292
0.712937
0.712954
0.712969
0.712984
0.712998
0.71301
0.713022
0.713033
0.713043
0.713052
0.71306
0.713069
0.713076
0.713084
0.713091
0.713098
0.713105
0.713111
0.713118
0.713124
0.71313
0.713135
0.713141
0.713146
0.713152
0.713157
0.713162
0.713167
0.713172
0.713177
0.713182
0.713187
0.713193
0.713198
0.713203
0.713209
0.713214
0.71322
0.7121
0.71208
0.712073
0.712058
0.712051
0.71204
0.712033
0.712026
0.71202
0.712015
0.712011
0.712007
0.712004
0.712002
0.712001
0.712
0.712
0.712
0.712001
0.712002
0.712003
0.712005
0.712008
0.71201
0.712013
0.712017
0.71202
0.712024
0.712029
0.712033
0.712038
0.712044
0.712049
0.712055
0.712062
0.712068
0.712075
0.712083
0.712091
0.712099
0.712108
0.712117
0.712127
0.712137
0.712147
0.712158
0.71217
0.712182
0.712195
0.712209
0.712223
0.712237
0.712252
0.712268
0.712285
0.712302
0.71232
0.712339
0.712358
0.712378
0.712398
0.71242
0.712441
0.712463
0.712486
0.712509
0.712533
0.712557
0.712581
0.712605
0.712629
0.712654
0.712678
0.712702
0.712725
0.712749
0.712771
0.712794
0.712815
0.712836
0.712857
0.712876
0.712894
0.712912
0.712929
0.712944
0.712959
0.712973
0.712986
0.712998
0.713009
0.71302
0.713031
0.71304
0.71305
0.713059
0.713068
0.713076
0.713084
0.713091
0.713098
0.713105
0.713111
0.713117
0.713123
0.713129
0.713135
0.71314
0.713146
0.713151
0.713156
0.713162
0.713167
0.713172
0.713177
0.713182
0.713188
0.713193
0.713198
0.713203
0.713209
0.713214
0.71322
0.712112
0.712091
0.712081
0.712065
0.712056
0.712044
0.712037
0.712028
0.712022
0.712015
0.712011
0.712007
0.712004
0.712002
0.712
0.711999
0.711999
0.711999
0.712
0.712001
0.712003
0.712005
0.712007
0.71201
0.712013
0.712017
0.712021
0.712025
0.71203
0.712035
0.71204
0.712045
0.712051
0.712058
0.712064
0.712071
0.712079
0.712086
0.712095
0.712103
0.712112
0.712122
0.712132
0.712142
0.712153
0.712165
0.712177
0.71219
0.712203
0.712217
0.712231
0.712246
0.712262
0.712278
0.712295
0.712313
0.712331
0.71235
0.712369
0.712389
0.71241
0.712431
0.712453
0.712475
0.712498
0.712521
0.712544
0.712568
0.712592
0.712616
0.712639
0.712663
0.712687
0.71271
0.712733
0.712755
0.712777
0.712799
0.712819
0.712839
0.712858
0.712877
0.712894
0.712911
0.712927
0.712942
0.712957
0.71297
0.712984
0.712996
0.713008
0.71302
0.71303
0.71304
0.713049
0.713058
0.713067
0.713075
0.713082
0.71309
0.713097
0.713103
0.71311
0.713116
0.713123
0.713129
0.713134
0.71314
0.713146
0.713151
0.713156
0.713161
0.713167
0.713172
0.713177
0.713182
0.713187
0.713193
0.713198
0.713203
0.713209
0.713214
0.71322
0.71212
0.712099
0.712088
0.712071
0.712061
0.712048
0.71204
0.71203
0.712024
0.712017
0.712013
0.712008
0.712005
0.712002
0.712001
0.711999
0.711999
0.711999
0.712
0.712001
0.712003
0.712005
0.712008
0.712011
0.712014
0.712018
0.712022
0.712026
0.712031
0.712036
0.712041
0.712047
0.712053
0.712059
0.712066
0.712073
0.71208
0.712088
0.712097
0.712105
0.712115
0.712124
0.712134
0.712145
0.712156
0.712168
0.71218
0.712193
0.712206
0.71222
0.712235
0.71225
0.712266
0.712282
0.712299
0.712317
0.712335
0.712354
0.712374
0.712394
0.712414
0.712436
0.712457
0.71248
0.712502
0.712525
0.712548
0.712571
0.712595
0.712618
0.712642
0.712665
0.712688
0.712711
0.712733
0.712755
0.712777
0.712798
0.712818
0.712838
0.712857
0.712876
0.712893
0.71291
0.712927
0.712942
0.712956
0.71297
0.712983
0.712995
0.713007
0.713018
0.713029
0.713039
0.713048
0.713057
0.713066
0.713074
0.713082
0.713089
0.713097
0.713103
0.71311
0.713116
0.713122
0.713128
0.713134
0.71314
0.713145
0.713151
0.713156
0.713161
0.713167
0.713172
0.713177
0.713182
0.713187
0.713193
0.713198
0.713203
0.713209
0.713214
0.71322
0.71212
0.712099
0.712087
0.71207
0.71206
0.712047
0.712038
0.712028
0.712022
0.712015
0.71201
0.712005
0.712003
0.712
0.711998
0.711997
0.711997
0.711997
0.711998
0.711999
0.712001
0.712003
0.712006
0.712009
0.712012
0.712016
0.71202
0.712024
0.712029
0.712034
0.712039
0.712045
0.712051
0.712058
0.712064
0.712071
0.712079
0.712087
0.712095
0.712104
0.712113
0.712123
0.712133
0.712143
0.712154
0.712166
0.712178
0.712191
0.712204
0.712218
0.712233
0.712248
0.712263
0.71228
0.712297
0.712314
0.712332
0.712351
0.712371
0.712391
0.712411
0.712432
0.712454
0.712476
0.712498
0.712521
0.712544
0.712567
0.712591
0.712614
0.712637
0.712661
0.712684
0.712707
0.71273
0.712752
0.712773
0.712795
0.712815
0.712835
0.712854
0.712873
0.712891
0.712908
0.712924
0.712939
0.712954
0.712968
0.712981
0.712994
0.713006
0.713017
0.713028
0.713038
0.713047
0.713057
0.713065
0.713073
0.713081
0.713089
0.713096
0.713103
0.713109
0.713116
0.713122
0.713128
0.713134
0.713139
0.713145
0.71315
0.713156
0.713161
0.713166
0.713171
0.713177
0.713182
0.713187
0.713192
0.713198
0.713203
0.713209
0.713214
0.71322
)
;

boundaryField
{
    inlet
    {
        type            zeroGradient;
    }
    outlet
    {
        type            fixedValue;
        value           nonuniform 0();
    }
    walls
    {
        type            zeroGradient;
    }
    symwall
    {
        type            empty;
    }
    procBoundary2to0
    {
        type            processor;
        value           nonuniform List<scalar> 
133
(
0.712072
0.712077
0.712083
0.712088
0.712094
0.712101
0.712107
0.712114
0.712121
0.712128
0.712135
0.712143
0.712151
0.712159
0.712168
0.712177
0.712187
0.712196
0.712207
0.712218
0.712229
0.712241
0.712254
0.712268
0.712282
0.712297
0.712313
0.712331
0.712349
0.712369
0.71239
0.712413
0.712437
0.712463
0.712491
0.712521
0.712552
0.712586
0.712621
0.712659
0.712697
0.712738
0.712779
0.712821
0.712864
0.712907
0.712949
0.71299
0.71303
0.713068
0.713105
0.713138
0.713169
0.713197
0.713221
0.713243
0.713261
0.713277
0.713289
0.713299
0.713307
0.713313
0.713316
0.713318
0.713319
0.713319
0.713319
0.713317
0.713316
0.713314
0.713312
0.713311
0.713309
0.713308
0.713307
0.713307
0.713307
0.712247
0.712205
0.712197
0.712156
0.712144
0.7121
0.712085
0.712034
0.712024
0.711951
0.711969
0.711995
0.711989
0.711994
0.711989
0.711992
0.711988
0.71199
0.711988
0.71199
0.711989
0.71199
0.71199
0.71199
0.711991
0.711991
0.711992
0.711993
0.711994
0.711995
0.711996
0.711997
0.711999
0.712
0.712002
0.712004
0.712006
0.712008
0.71201
0.712012
0.712015
0.712018
0.712021
0.712024
0.712027
0.712031
0.712034
0.712038
0.712042
0.712046
0.712051
0.712055
0.71206
0.712065
0.712071
0.712071
)
;
    }
    procBoundary2to1
    {
        type            processor;
        value           uniform 0.713308;
    }
    procBoundary2to3
    {
        type            processor;
        value           nonuniform List<scalar> 10(0.713268 0.713243 0.713231 0.713226 0.713225 0.713225 0.713226 0.713226 0.713226 0.713225);
    }
}


// ************************************************************************* //
