/*--------------------------------*- C++ -*----------------------------------*\
| =========                 |                                                 |
| \\      /  F ield         | OpenFOAM: The Open Source CFD Toolbox           |
|  \\    /   O peration     | Version:  4.1                                   |
|   \\  /    A nd           | Web:      www.OpenFOAM.org                      |
|    \\/     M anipulation  |                                                 |
\*---------------------------------------------------------------------------*/
FoamFile
{
    version     2.0;
    format      ascii;
    class       volVectorField;
    location    "121";
    object      U;
}
// * * * * * * * * * * * * * * * * * * * * * * * * * * * * * * * * * * * * * //

dimensions      [0 1 -1 0 0 0 0];

internalField   nonuniform List<vector> 
3264
(
(5.91886e-05 -6.80236e-05 0)
(0.000110453 -5.07194e-05 0)
(1.06879e-05 -2.49025e-05 0)
(-0.000207954 -8.58703e-06 0)
(-0.000530986 6.21074e-06 0)
(-0.00094631 1.97745e-05 0)
(-0.00144348 3.78704e-05 0)
(-0.00202022 5.957e-05 0)
(-0.0026696 8.60639e-05 0)
(-0.00338907 0.000116153 0)
(-0.00417228 0.000149331 0)
(-0.0050133 0.000184373 0)
(-0.00590306 0.000220117 0)
(-0.00683075 0.000255087 0)
(-0.0077828 0.000287713 0)
(-0.00874347 0.000316355 0)
(-0.00969502 0.000339456 0)
(-0.0106184 0.000355665 0)
(-0.0114938 0.000363937 0)
(-0.0123015 0.000363592 0)
(-0.0130225 0.000354333 0)
(-0.0136392 0.000336219 0)
(-0.0141357 0.000309622 0)
(-0.0144986 0.000275174 0)
(-0.0147167 0.000233713 0)
(-0.0147815 0.000186234 0)
(-0.0146874 0.000133852 0)
(-0.0144315 7.77736e-05 0)
(-0.0140136 1.92755e-05 0)
(-0.0134364 -4.03136e-05 0)
(-0.0127057 -9.96275e-05 0)
(-0.0118295 -0.000157277 0)
(-0.0108191 -0.000211869 0)
(-0.00968829 -0.000262025 0)
(-0.00845336 -0.000306413 0)
(-0.00713329 -0.000343783 0)
(-0.00574927 -0.000373016 0)
(-0.00432454 -0.000393181 0)
(-0.00288396 -0.000403595 0)
(-0.00145348 -0.000403899 0)
(-5.9423e-05 -0.000394122 0)
(0.00127235 -0.000374734 0)
(0.00251748 -0.000346678 0)
(0.00365416 -0.00031136 0)
(0.00466427 -0.000270591 0)
(0.00553437 -0.000226482 0)
(0.0062564 -0.00018128 0)
(0.00682814 -0.000137169 0)
(0.0072531 -9.605e-05 0)
(0.00754014 -5.93376e-05 0)
(0.00770254 -2.78078e-05 0)
(0.00775697 -1.56108e-06 0)
(0.00772222 1.98617e-05 0)
(0.00761807 3.72005e-05 0)
(0.00746429 5.10993e-05 0)
(0.00727998 6.17776e-05 0)
(0.00708317 6.89133e-05 0)
(0.00689068 7.18101e-05 0)
(0.0067179 6.97586e-05 0)
(0.00657863 6.23883e-05 0)
(0.00648481 4.98483e-05 0)
(0.00644624 3.27834e-05 0)
(0.00647023 1.21927e-05 0)
(0.00656116 -1.07222e-05 0)
(0.00672013 -3.4656e-05 0)
(0.00694463 -5.82511e-05 0)
(0.00722854 -8.01427e-05 0)
(0.00756232 -9.90365e-05 0)
(0.00793367 -0.000113826 0)
(0.00832838 -0.000123726 0)
(0.00873155 -0.000128383 0)
(0.00912886 -0.000127921 0)
(0.00950772 -0.000122911 0)
(0.00985813 -0.000114255 0)
(0.0101732 -0.000103037 0)
(0.0104491 -9.03585e-05 0)
(0.0106848 -7.72108e-05 0)
(0.0108817 -6.43914e-05 0)
(0.0110424 -5.24718e-05 0)
(0.011171 -4.18061e-05 0)
(0.0112716 -3.25631e-05 0)
(0.0113485 -2.47707e-05 0)
(0.0114061 -1.83598e-05 0)
(0.0114479 -1.32027e-05 0)
(0.0114773 -9.14223e-06 0)
(0.011497 -6.01357e-06 0)
(0.0115095 -3.65739e-06 0)
(0.0115165 -1.92798e-06 0)
(0.0115197 -6.97086e-07 0)
(0.0115201 1.44989e-07 0)
(0.0115188 6.89903e-07 0)
(0.0115163 1.01273e-06 0)
(0.0115133 1.17385e-06 0)
(0.0115099 1.22097e-06 0)
(0.0115066 1.19108e-06 0)
(0.0115035 1.1123e-06 0)
(0.0115006 1.00552e-06 0)
(0.0114981 8.85815e-07 0)
(0.0114959 7.637e-07 0)
(0.011494 6.46165e-07 0)
(0.0114924 5.37536e-07 0)
(0.0114911 4.40173e-07 0)
(0.01149 3.55036e-07 0)
(0.0114892 2.82124e-07 0)
(0.0114885 2.20809e-07 0)
(0.011488 1.70091e-07 0)
(0.0114876 1.28782e-07 0)
(0.0114873 9.56317e-08 0)
(0.011487 6.94179e-08 0)
(0.0114869 4.89985e-08 0)
(0.0114868 3.33424e-08 0)
(0.0114867 2.15437e-08 0)
(0.0114866 1.28237e-08 0)
(0.0114866 6.52566e-09 0)
(0.0114866 2.10476e-09 0)
(0.0114866 -8.83947e-10 0)
(0.0114866 -2.79865e-09 0)
(0.0114866 -3.92361e-09 0)
(0.0114866 -4.48126e-09 0)
(0.0114866 -4.64312e-09 0)
(0.0114866 -4.53939e-09 0)
(0.0114866 -4.26719e-09 0)
(0.0114866 -3.89759e-09 0)
(0.0114866 -3.48132e-09 0)
(0.0114867 -3.05356e-09 0)
(0.0114867 -2.63771e-09 0)
(0.0114867 -2.24844e-09 0)
(0.0114867 -1.89407e-09 0)
(0.0114867 -1.57843e-09 0)
(0.0114867 -1.30222e-09 0)
(0.0114867 -1.06411e-09 0)
(0.0114867 -8.61497e-10 0)
(0.0114867 -6.9108e-10 0)
(0.0114867 -5.49258e-10 0)
(0.0114867 -4.32398e-10 0)
(0.0114867 -3.37011e-10 0)
(0.0114867 -2.59861e-10 0)
(0.0114867 -1.98025e-10 0)
(0.0114867 -1.48914e-10 0)
(0.0114867 -1.10274e-10 0)
(0.0114867 -8.01723e-11 0)
(0.0114867 -5.69673e-11 0)
(0.0114867 -3.9289e-11 0)
(0.0114867 -2.59956e-11 0)
(0.0114867 -1.61485e-11 0)
(0.0114867 -8.98658e-12 0)
(0.0114867 -3.89051e-12 0)
(0.0114867 -3.70118e-13 0)
(0.0114867 1.96549e-12 0)
(0.0114867 3.42358e-12 0)
(0.0114867 4.24262e-12 0)
(0.0114867 4.60865e-12 0)
(0.0114867 4.65998e-12 0)
(0.0114867 4.50326e-12 0)
(0.0114867 4.21564e-12 0)
(0.0114867 3.85353e-12 0)
(0.0114867 3.45687e-12 0)
(0.0114867 3.05467e-12 0)
(0.0114867 2.66338e-12 0)
(0.0114867 2.29553e-12 0)
(0.0114867 1.95778e-12 0)
(0.0114867 1.65464e-12 0)
(0.0114867 1.38767e-12 0)
(0.0114867 1.15462e-12 0)
(0.0114867 9.52926e-13 0)
(0.0114867 7.80401e-13 0)
(0.0114867 6.34673e-13 0)
(0.0114867 5.15062e-13 0)
(0.0114867 4.15308e-13 0)
(0.0114867 3.32698e-13 0)
(0.0114867 2.64619e-13 0)
(0.0114867 2.09075e-13 0)
(0.0114867 1.65029e-13 0)
(0.0114867 1.28432e-13 0)
(0.0114867 9.81011e-14 0)
(0.0114867 7.35064e-14 0)
(0.0114867 5.42502e-14 0)
(0.0114867 3.92593e-14 0)
(0.0114867 2.74014e-14 0)
(0.0114867 1.74857e-14 0)
(0.0114867 8.44633e-15 0)
(0.0114867 1.07442e-15 0)
(0.0114867 -4.36382e-15 0)
(0.0114867 -8.5891e-15 0)
(0.0114867 -1.09886e-14 0)
(0.0114867 -1.2363e-14 0)
(0.0114867 -1.19487e-14 0)
(0.0114867 -1.02637e-14 0)
(0.0114867 -6.95514e-15 0)
(0.0114867 -3.51107e-15 0)
(0.0114867 1.28377e-15 0)
(0.0114867 3.6533e-15 0)
(0.0114867 8.03684e-15 0)
(0.0114867 -1.23046e-14 0)
(0.0114867 -3.05163e-14 0)
(0.0114867 -1.38386e-13 0)
(0.0114867 -3.53154e-13 0)
(0.0114867 -5.50536e-13 0)
(0.0114867 -2.30332e-12 0)
(0.0114867 -1.61248e-12 0)
(-4.18227e-05 -9.93966e-05 0)
(-0.000457747 0.000106539 0)
(-0.00123111 0.00036408 0)
(-0.00223448 0.000579832 0)
(-0.00342767 0.000774216 0)
(-0.00476725 0.000941056 0)
(-0.00620825 0.00109371 0)
(-0.00772171 0.00122888 0)
(-0.00927453 0.00135024 0)
(-0.0108433 0.00145602 0)
(-0.0124022 0.00154539 0)
(-0.0139284 0.00161559 0)
(-0.0153976 0.00166365 0)
(-0.0167866 0.00168629 0)
(-0.0180717 0.00168058 0)
(-0.0192303 0.00164421 0)
(-0.0202411 0.00157576 0)
(-0.0210846 0.00147484 0)
(-0.0217435 0.00134208 0)
(-0.0222028 0.00117904 0)
(-0.0224505 0.000988074 0)
(-0.0224769 0.00077218 0)
(-0.0222755 0.000534823 0)
(-0.021842 0.00027981 0)
(-0.0211752 1.1184e-05 0)
(-0.0202763 -0.000266849 0)
(-0.0191491 -0.000549968 0)
(-0.0177999 -0.000833766 0)
(-0.0162378 -0.00111376 0)
(-0.0144742 -0.00138541 0)
(-0.0125231 -0.00164411 0)
(-0.0104015 -0.00188524 0)
(-0.00812881 -0.00210414 0)
(-0.00572721 -0.00229623 0)
(-0.00322174 -0.00245703 0)
(-0.000640175 -0.00258229 0)
(0.00198704 -0.00266814 0)
(0.00462696 -0.0027113 0)
(0.00724448 -0.00270929 0)
(0.00980282 -0.00266074 0)
(0.0122643 -0.00256563 0)
(0.0145912 -0.00242564 0)
(0.0167473 -0.0022443 0)
(0.0186991 -0.00202706 0)
(0.0204179 -0.00178126 0)
(0.021881 -0.00151573 0)
(0.0230741 -0.00124032 0)
(0.0239921 -0.000965198 0)
(0.0246403 -0.00070018 0)
(0.0250345 -0.000454103 0)
(0.0251998 -0.000234385 0)
(0.0251693 -4.67591e-05 0)
(0.0249814 0.000104862 0)
(0.0246763 0.000218437 0)
(0.0242944 0.000293759 0)
(0.0238736 0.000332289 0)
(0.0234492 0.000336874 0)
(0.0230532 0.000311337 0)
(0.0227142 0.000259984 0)
(0.0224562 0.000187139 0)
(0.0222982 9.69042e-05 0)
(0.0222537 -6.73833e-06 0)
(0.0223301 -0.000119557 0)
(0.0225293 -0.000236717 0)
(0.0228472 -0.000352664 0)
(0.0232744 -0.000461338 0)
(0.0237963 -0.000556657 0)
(0.0243937 -0.000633142 0)
(0.0250438 -0.000686577 0)
(0.0257218 -0.000714558 0)
(0.0264029 -0.000716828 0)
(0.0270639 -0.000695291 0)
(0.0276852 -0.000653691 0)
(0.0282522 -0.000597001 0)
(0.0287555 -0.000530684 0)
(0.0291909 -0.000459987 0)
(0.0295589 -0.000389407 0)
(0.0298629 -0.000322393 0)
(0.0301089 -0.000261273 0)
(0.030304 -0.000207356 0)
(0.0304556 -0.000161122 0)
(0.030571 -0.000122441 0)
(0.0306567 -9.07898e-05 0)
(0.0307187 -6.54188e-05 0)
(0.0307622 -4.54844e-05 0)
(0.0307912 -3.01364e-05 0)
(0.0308095 -1.85733e-05 0)
(0.0308197 -1.0073e-05 0)
(0.0308242 -4.0053e-06 0)
(0.0308248 1.65969e-07 0)
(0.0308227 2.88729e-06 0)
(0.030819 4.52381e-06 0)
(0.0308145 5.36896e-06 0)
(0.0308096 5.65451e-06 0)
(0.0308047 5.56022e-06 0)
(0.0308001 5.22274e-06 0)
(0.0307959 4.74364e-06 0)
(0.0307922 4.19638e-06 0)
(0.030789 3.63229e-06 0)
(0.0307862 3.08566e-06 0)
(0.0307839 2.57786e-06 0)
(0.030782 2.1208e-06 0)
(0.0307804 1.71958e-06 0)
(0.0307792 1.37468e-06 0)
(0.0307782 1.08349e-06 0)
(0.0307774 8.41622e-07 0)
(0.0307768 6.43698e-07 0)
(0.0307764 4.84024e-07 0)
(0.030776 3.56989e-07 0)
(0.0307758 2.57324e-07 0)
(0.0307756 1.80255e-07 0)
(0.0307755 1.21571e-07 0)
(0.0307754 7.76413e-08 0)
(0.0307754 4.53907e-08 0)
(0.0307754 2.22592e-08 0)
(0.0307753 6.14637e-09 0)
(0.0307753 -4.6468e-09 0)
(0.0307753 -1.14764e-08 0)
(0.0307754 -1.54103e-08 0)
(0.0307754 -1.72783e-08 0)
(0.0307754 -1.77162e-08 0)
(0.0307754 -1.72035e-08 0)
(0.0307754 -1.60956e-08 0)
(0.0307754 -1.4651e-08 0)
(0.0307754 -1.30531e-08 0)
(0.0307754 -1.14279e-08 0)
(0.0307754 -9.85858e-09 0)
(0.0307755 -8.39639e-09 0)
(0.0307755 -7.06982e-09 0)
(0.0307755 -5.89115e-09 0)
(0.0307755 -4.8616e-09 0)
(0.0307755 -3.97519e-09 0)
(0.0307755 -3.22155e-09 0)
(0.0307755 -2.58795e-09 0)
(0.0307755 -2.0607e-09 0)
(0.0307755 -1.62612e-09 0)
(0.0307755 -1.27116e-09 0)
(0.0307755 -9.83768e-10 0)
(0.0307755 -7.53097e-10 0)
(0.0307755 -5.69556e-10 0)
(0.0307755 -4.2481e-10 0)
(0.0307755 -3.11719e-10 0)
(0.0307755 -2.24229e-10 0)
(0.0307755 -1.57272e-10 0)
(0.0307755 -1.0664e-10 0)
(0.0307755 -6.88726e-11 0)
(0.0307755 -4.11479e-11 0)
(0.0307755 -2.1189e-11 0)
(0.0307755 -7.17122e-12 0)
(0.0307755 2.35222e-12 0)
(0.0307755 8.52283e-12 0)
(0.0307755 1.22328e-11 0)
(0.0307755 1.41713e-11 0)
(0.0307755 1.48658e-11 0)
(0.0307755 1.47126e-11 0)
(0.0307755 1.40054e-11 0)
(0.0307755 1.29625e-11 0)
(0.0307755 1.1741e-11 0)
(0.0307755 1.04529e-11 0)
(0.0307755 9.17424e-12 0)
(0.0307755 7.95468e-12 0)
(0.0307755 6.82605e-12 0)
(0.0307755 5.80308e-12 0)
(0.0307755 4.89512e-12 0)
(0.0307755 4.09883e-12 0)
(0.0307755 3.40794e-12 0)
(0.0307755 2.81572e-12 0)
(0.0307755 2.31176e-12 0)
(0.0307755 1.88875e-12 0)
(0.0307755 1.53453e-12 0)
(0.0307755 1.23829e-12 0)
(0.0307755 9.91298e-13 0)
(0.0307755 7.85842e-13 0)
(0.0307755 6.16385e-13 0)
(0.0307755 4.76458e-13 0)
(0.0307755 3.62924e-13 0)
(0.0307755 2.6979e-13 0)
(0.0307755 1.94624e-13 0)
(0.0307755 1.32743e-13 0)
(0.0307755 8.09062e-14 0)
(0.0307755 3.88827e-14 0)
(0.0307755 2.86662e-15 0)
(0.0307755 -2.40236e-14 0)
(0.0307755 -4.78847e-14 0)
(0.0307755 -6.59362e-14 0)
(0.0307755 -7.60894e-14 0)
(0.0307755 -8.08846e-14 0)
(0.0307755 -7.75793e-14 0)
(0.0307755 -7.03447e-14 0)
(0.0307755 -5.66955e-14 0)
(0.0307755 -3.29434e-14 0)
(0.0307755 -5.19445e-15 0)
(0.0307755 3.44613e-14 0)
(0.0307755 3.89681e-14 0)
(0.0307755 9.07698e-14 0)
(0.0307755 -7.77188e-14 0)
(0.0307755 -3.03622e-13 0)
(0.0307755 -5.07574e-13 0)
(0.0307755 -4.28305e-12 0)
(0.0307755 -3.63468e-12 0)
(-0.000199943 0.00042746 0)
(-0.00126103 0.00113885 0)
(-0.00276048 0.00173039 0)
(-0.0044115 0.00214019 0)
(-0.00612756 0.00247344 0)
(-0.00784575 0.00271176 0)
(-0.00951284 0.00289078 0)
(-0.0111047 0.00301157 0)
(-0.0125955 0.00308775 0)
(-0.0139712 0.00312094 0)
(-0.0152154 0.00311329 0)
(-0.0163146 0.00306355 0)
(-0.0172549 0.00297034 0)
(-0.0180234 0.00283207 0)
(-0.0186078 0.00264778 0)
(-0.0189973 0.00241738 0)
(-0.0191827 0.0021418 0)
(-0.0191563 0.00182296 0)
(-0.0189122 0.00146374 0)
(-0.018446 0.0010678 0)
(-0.0177553 0.000639437 0)
(-0.0168388 0.000183466 0)
(-0.0156973 -0.000294922 0)
(-0.0143328 -0.000790237 0)
(-0.0127489 -0.00129675 0)
(-0.0109509 -0.00180851 0)
(-0.0089458 -0.00231938 0)
(-0.00674232 -0.00282298 0)
(-0.00435111 -0.00331272 0)
(-0.00178489 -0.00378173 0)
(0.000941422 -0.00422294 0)
(0.00381053 -0.004629 0)
(0.00680259 -0.00499237 0)
(0.00989508 -0.00530536 0)
(0.0130626 -0.00556023 0)
(0.0162767 -0.00574935 0)
(0.0195061 -0.00586548 0)
(0.0227161 -0.00590202 0)
(0.0258695 -0.00585349 0)
(0.0289263 -0.00571605 0)
(0.0318446 -0.00548806 0)
(0.0345815 -0.00517076 0)
(0.0370942 -0.00476889 0)
(0.0393416 -0.00429115 0)
(0.0412859 -0.00375051 0)
(0.0428952 -0.00316406 0)
(0.0441453 -0.00255249 0)
(0.0450221 -0.00193902 0)
(0.0455235 -0.00134775 0)
(0.0456615 -0.000801567 0)
(0.0454625 -0.000319819 0)
(0.0449673 8.37762e-05 0)
(0.044229 0.000402322 0)
(0.0433105 0.000635437 0)
(0.04228 0.000787372 0)
(0.0412064 0.000864284 0)
(0.0401534 0.000872057 0)
(0.0391755 0.000815726 0)
(0.0383142 0.000700461 0)
(0.0375987 0.000533031 0)
(0.0370474 0.000322633 0)
(0.0366711 8.07109e-05 0)
(0.0364753 -0.000179881 0)
(0.0364602 -0.000445803 0)
(0.0366202 -0.000703885 0)
(0.0369437 -0.000941504 0)
(0.0374125 -0.00114696 0)
(0.0380023 -0.00131008 0)
(0.0386837 -0.00142314 0)
(0.0394241 -0.00148183 0)
(0.0401895 -0.00148606 0)
(0.0409479 -0.0014401 0)
(0.0416713 -0.00135206 0)
(0.0423379 -0.00123264 0)
(0.0429333 -0.00109354 0)
(0.04345 -0.000945912 0)
(0.043887 -0.000799225 0)
(0.0442482 -0.000660612 0)
(0.0445404 -0.000534768 0)
(0.0447721 -0.000424208 0)
(0.0449525 -0.000329723 0)
(0.0450901 -0.000250879 0)
(0.0451929 -0.000186469 0)
(0.045268 -0.000134876 0)
(0.0453213 -9.43289e-05 0)
(0.0453577 -6.30745e-05 0)
(0.0453812 -3.94785e-05 0)
(0.0453953 -2.2078e-05 0)
(0.0454024 -9.60167e-06 0)
(0.0454047 -9.6992e-07 0)
(0.0454037 4.71628e-06 0)
(0.0454006 8.19274e-06 0)
(0.0453963 1.00517e-05 0)
(0.0453915 1.07617e-05 0)
(0.0453865 1.06869e-05 0)
(0.0453817 1.0105e-05 0)
(0.0453773 9.22251e-06 0)
(0.0453734 8.18949e-06 0)
(0.0453699 7.11109e-06 0)
(0.0453669 6.05789e-06 0)
(0.0453644 5.07434e-06 0)
(0.0453623 4.18561e-06 0)
(0.0453607 3.40308e-06 0)
(0.0453593 2.7286e-06 0)
(0.0453582 2.15782e-06 0)
(0.0453574 1.6826e-06 0)
(0.0453567 1.29281e-06 0)
(0.0453562 9.77545e-07 0)
(0.0453558 7.26016e-07 0)
(0.0453555 5.28041e-07 0)
(0.0453553 3.7437e-07 0)
(0.0453552 2.56828e-07 0)
(0.0453551 1.68348e-07 0)
(0.0453551 1.02936e-07 0)
(0.045355 5.55934e-08 0)
(0.045355 2.22106e-08 0)
(0.045355 -5.43542e-10 0)
(0.045355 -1.53338e-08 0)
(0.045355 -2.42648e-08 0)
(0.045355 -2.89768e-08 0)
(0.045355 -3.07314e-08 0)
(0.045355 -3.04843e-08 0)
(0.045355 -2.89486e-08 0)
(0.0453551 -2.66461e-08 0)
(0.0453551 -2.39506e-08 0)
(0.0453551 -2.11224e-08 0)
(0.0453551 -1.83363e-08 0)
(0.0453551 -1.57039e-08 0)
(0.0453551 -1.32901e-08 0)
(0.0453551 -1.11272e-08 0)
(0.0453551 -9.22464e-09 0)
(0.0453551 -7.57662e-09 0)
(0.0453551 -6.16789e-09 0)
(0.0453551 -4.97768e-09 0)
(0.0453551 -3.98264e-09 0)
(0.0453551 -3.15881e-09 0)
(0.0453551 -2.48296e-09 0)
(0.0453551 -1.93334e-09 0)
(0.0453551 -1.4902e-09 0)
(0.0453551 -1.13593e-09 0)
(0.0453551 -8.55149e-10 0)
(0.0453551 -6.3458e-10 0)
(0.0453551 -4.62924e-10 0)
(0.0453551 -3.30668e-10 0)
(0.0453551 -2.2988e-10 0)
(0.0453551 -1.54007e-10 0)
(0.0453551 -9.76956e-11 0)
(0.0453551 -5.65973e-11 0)
(0.0453551 -2.72186e-11 0)
(0.0453551 -6.76834e-12 0)
(0.0453551 6.96362e-12 0)
(0.0453551 1.57086e-11 0)
(0.0453551 2.08125e-11 0)
(0.0453551 2.33094e-11 0)
(0.0453551 2.39881e-11 0)
(0.0453551 2.34426e-11 0)
(0.0453551 2.21101e-11 0)
(0.0453551 2.03154e-11 0)
(0.0453551 1.82911e-11 0)
(0.0453551 1.62032e-11 0)
(0.0453551 1.41645e-11 0)
(0.0453551 1.22415e-11 0)
(0.0453551 1.04787e-11 0)
(0.0453551 8.89336e-12 0)
(0.0453551 7.49246e-12 0)
(0.0453551 6.27072e-12 0)
(0.0453551 5.21437e-12 0)
(0.0453551 4.30955e-12 0)
(0.0453551 3.53978e-12 0)
(0.0453551 2.89003e-12 0)
(0.0453551 2.34443e-12 0)
(0.0453551 1.88558e-12 0)
(0.0453551 1.50311e-12 0)
(0.0453551 1.18437e-12 0)
(0.0453551 9.2071e-13 0)
(0.0453551 7.05579e-13 0)
(0.0453551 5.28822e-13 0)
(0.0453551 3.83106e-13 0)
(0.0453551 2.63915e-13 0)
(0.0453551 1.64786e-13 0)
(0.0453551 8.37969e-14 0)
(0.0453551 1.5404e-14 0)
(0.0453551 -4.25998e-14 0)
(0.0453551 -8.70675e-14 0)
(0.0453551 -1.22779e-13 0)
(0.0453551 -1.46548e-13 0)
(0.0453551 -1.61509e-13 0)
(0.0453551 -1.6836e-13 0)
(0.0453551 -1.63348e-13 0)
(0.0453551 -1.47455e-13 0)
(0.0453551 -1.16661e-13 0)
(0.0453551 -6.86293e-14 0)
(0.0453551 -1.17346e-15 0)
(0.0453551 7.85073e-14 0)
(0.0453551 2.10569e-13 0)
(0.0453551 2.09933e-13 0)
(0.0453551 4.35454e-13 0)
(0.0453551 1.49222e-13 0)
(0.0453551 -1.31123e-12 0)
(0.0453551 -6.96796e-13 0)
(-0.000359797 0.00124401 0)
(-0.00187159 0.00259699 0)
(-0.00364441 0.00342812 0)
(-0.00533394 0.00385512 0)
(-0.00683306 0.00412519 0)
(-0.00815535 0.00424587 0)
(-0.00927955 0.0042852 0)
(-0.0102251 0.00425382 0)
(-0.0109887 0.0041724 0)
(-0.0115772 0.00404374 0)
(-0.0119885 0.00387027 0)
(-0.0122222 0.0036503 0)
(-0.0122753 0.00338225 0)
(-0.0121449 0.00306441 0)
(-0.0118277 0.00269602 0)
(-0.0113208 0.00227725 0)
(-0.0106215 0.00180939 0)
(-0.00972781 0.00129478 0)
(-0.00863807 0.000736714 0)
(-0.00735136 0.000139316 0)
(-0.00586741 -0.000492595 0)
(-0.00418668 -0.00115361 0)
(-0.00231048 -0.00183782 0)
(-0.000241121 -0.00253887 0)
(0.002018 -0.00325 0)
(0.00446218 -0.00396404 0)
(0.00708527 -0.00467339 0)
(0.00987946 -0.00537002 0)
(0.0128351 -0.00604539 0)
(0.0159404 -0.0066905 0)
(0.0191815 -0.00729582 0)
(0.0225419 -0.00785134 0)
(0.0260026 -0.00834656 0)
(0.0295417 -0.00877057 0)
(0.0331344 -0.00911215 0)
(0.0367527 -0.00935998 0)
(0.0403651 -0.0095029 0)
(0.043937 -0.00953034 0)
(0.0474306 -0.0094329 0)
(0.050805 -0.00920309 0)
(0.0540175 -0.00883614 0)
(0.0570236 -0.00833101 0)
(0.0597791 -0.00769128 0)
(0.0622409 -0.00692595 0)
(0.0643684 -0.00604993 0)
(0.0661253 -0.00508424 0)
(0.0674804 -0.00405572 0)
(0.068409 -0.00299633 0)
(0.068894 -0.00194201 0)
(0.0689275 -0.000931091 0)
(0.0685127 -2.2037e-06 0)
(0.0676667 0.000808279 0)
(0.0664229 0.00146926 0)
(0.0648339 0.00195813 0)
(0.0629719 0.00226378 0)
(0.0609261 0.00238862 0)
(0.0587966 0.00234872 0)
(0.0566856 0.00217103 0)
(0.0546872 0.00188763 0)
(0.0528791 0.00152906 0)
(0.0513178 0.00111955 0)
(0.0500369 0.000676546 0)
(0.0490493 0.00021365 0)
(0.048352 -0.000255477 0)
(0.0479319 -0.000714746 0)
(0.0477692 -0.00114547 0)
(0.0478394 -0.00152784 0)
(0.0481128 -0.00184314 0)
(0.0485544 -0.00207618 0)
(0.0491243 -0.00221751 0)
(0.0497797 -0.00226497 0)
(0.0504778 -0.00222429 0)
(0.0511791 -0.00210829 0)
(0.0518506 -0.00193489 0)
(0.052468 -0.00172422 0)
(0.0530159 -0.00149581 0)
(0.0534876 -0.00126629 0)
(0.0538832 -0.00104824 0)
(0.0542075 -0.000849876 0)
(0.0544681 -0.000675564 0)
(0.0546739 -0.000526666 0)
(0.0548336 -0.00040246 0)
(0.0549556 -0.000300963 0)
(0.0550471 -0.000219553 0)
(0.0551142 -0.000155405 0)
(0.0551624 -0.000105759 0)
(0.0551957 -6.80655e-05 0)
(0.0552179 -4.00593e-05 0)
(0.0552316 -1.9778e-05 0)
(0.0552392 -5.55634e-06 0)
(0.0552424 3.99511e-06 0)
(0.0552426 1.00178e-05 0)
(0.0552408 1.34348e-05 0)
(0.0552379 1.49811e-05 0)
(0.0552344 1.52313e-05 0)
(0.0552307 1.46264e-05 0)
(0.0552271 1.34974e-05 0)
(0.0552236 1.20866e-05 0)
(0.0552205 1.05655e-05 0)
(0.0552178 9.05115e-06 0)
(0.0552155 7.61856e-06 0)
(0.0552135 6.312e-06 0)
(0.0552118 5.15334e-06 0)
(0.0552105 4.14894e-06 0)
(0.0552094 3.29486e-06 0)
(0.0552085 2.58074e-06 0)
(0.0552078 1.99268e-06 0)
(0.0552073 1.51527e-06 0)
(0.0552069 1.13293e-06 0)
(0.0552066 8.30813e-07 0)
(0.0552063 5.95302e-07 0)
(0.0552062 4.14298e-07 0)
(0.0552061 2.77292e-07 0)
(0.055206 1.75333e-07 0)
(0.0552059 1.0093e-07 0)
(0.0552059 4.79032e-08 0)
(0.0552059 1.12285e-08 0)
(0.0552059 -1.3127e-08 0)
(0.0552059 -2.83586e-08 0)
(0.0552059 -3.69659e-08 0)
(0.0552059 -4.0879e-08 0)
(0.0552059 -4.15672e-08 0)
(0.0552059 -4.01324e-08 0)
(0.0552059 -3.73865e-08 0)
(0.0552059 -3.3916e-08 0)
(0.0552059 -3.01339e-08 0)
(0.0552059 -2.63221e-08 0)
(0.055206 -2.26641e-08 0)
(0.055206 -1.92719e-08 0)
(0.055206 -1.62055e-08 0)
(0.055206 -1.3489e-08 0)
(0.055206 -1.11219e-08 0)
(0.055206 -9.08806e-09 0)
(0.055206 -7.36182e-09 0)
(0.055206 -5.91258e-09 0)
(0.055206 -4.708e-09 0)
(0.055206 -3.71607e-09 0)
(0.055206 -2.90646e-09 0)
(0.055206 -2.2513e-09 0)
(0.055206 -1.72559e-09 0)
(0.055206 -1.30732e-09 0)
(0.055206 -9.77411e-10 0)
(0.055206 -7.19537e-10 0)
(0.055206 -5.19889e-10 0)
(0.055206 -3.66916e-10 0)
(0.055206 -2.51045e-10 0)
(0.055206 -1.64416e-10 0)
(0.055206 -1.00628e-10 0)
(0.055206 -5.45158e-11 0)
(0.055206 -2.19428e-11 0)
(0.055206 3.7691e-13 0)
(0.055206 1.50338e-11 0)
(0.055206 2.40466e-11 0)
(0.055206 2.89765e-11 0)
(0.055206 3.10154e-11 0)
(0.055206 3.10684e-11 0)
(0.055206 2.98099e-11 0)
(0.055206 2.7741e-11 0)
(0.055206 2.52272e-11 0)
(0.055206 2.25295e-11 0)
(0.055206 1.98265e-11 0)
(0.055206 1.72355e-11 0)
(0.055206 1.4828e-11 0)
(0.055206 1.26434e-11 0)
(0.055206 1.06963e-11 0)
(0.055206 8.9859e-12 0)
(0.055206 7.49924e-12 0)
(0.055206 6.21933e-12 0)
(0.055206 5.12674e-12 0)
(0.055206 4.19943e-12 0)
(0.055206 3.41766e-12 0)
(0.055206 2.75999e-12 0)
(0.055206 2.20956e-12 0)
(0.055206 1.75207e-12 0)
(0.055206 1.37334e-12 0)
(0.055206 1.0606e-12 0)
(0.055206 8.02543e-13 0)
(0.055206 5.90582e-13 0)
(0.055206 4.14988e-13 0)
(0.055206 2.69246e-13 0)
(0.055206 1.46719e-13 0)
(0.055206 4.30867e-14 0)
(0.055206 -4.32541e-14 0)
(0.055206 -1.14936e-13 0)
(0.055206 -1.72482e-13 0)
(0.055206 -2.17259e-13 0)
(0.055206 -2.50351e-13 0)
(0.055206 -2.69141e-13 0)
(0.055206 -2.74169e-13 0)
(0.055206 -2.61631e-13 0)
(0.055206 -2.2975e-13 0)
(0.055206 -1.74792e-13 0)
(0.055206 -8.87631e-14 0)
(0.055206 4.45644e-14 0)
(0.055206 2.34852e-13 0)
(0.055206 4.89468e-13 0)
(0.055206 9.58657e-13 0)
(0.055206 1.08256e-12 0)
(0.055206 2.49162e-12 0)
(0.055206 2.95684e-12 0)
(-0.000418727 0.0026259 0)
(-0.00181468 0.00436366 0)
(-0.00319685 0.00513306 0)
(-0.00430656 0.00523377 0)
(-0.00505073 0.00522263 0)
(-0.00552585 0.00508583 0)
(-0.00574224 0.00490778 0)
(-0.00575854 0.00468148 0)
(-0.00558699 0.00442037 0)
(-0.00524924 0.00412072 0)
(-0.00475051 0.00378098 0)
(-0.00409686 0.00339712 0)
(-0.00328896 0.00296593 0)
(-0.00232709 0.0024848 0)
(-0.00120979 0.00195224 0)
(6.47144e-05 0.00136795 0)
(0.00149867 0.000732813 0)
(0.00309438 4.88524e-05 0)
(0.00485409 -0.000680866 0)
(0.00677973 -0.00145232 0)
(0.00887275 -0.00226063 0)
(0.0111339 -0.00310014 0)
(0.0135629 -0.00396448 0)
(0.0161585 -0.00484661 0)
(0.018918 -0.00573881 0)
(0.0218372 -0.00663276 0)
(0.02491 -0.0075194 0)
(0.0281288 -0.00838899 0)
(0.0314835 -0.00923103 0)
(0.034962 -0.0100343 0)
(0.0385494 -0.0107867 0)
(0.0422286 -0.0114756 0)
(0.0459795 -0.0120875 0)
(0.0497791 -0.0126082 0)
(0.0536012 -0.0130229 0)
(0.0574164 -0.0133165 0)
(0.061192 -0.0134739 0)
(0.0648919 -0.0134805 0)
(0.0684772 -0.0133229 0)
(0.0719068 -0.0129903 0)
(0.0751385 -0.0124752 0)
(0.0781305 -0.0117752 0)
(0.0808432 -0.0108936 0)
(0.0832409 -0.00984088 0)
(0.0852933 -0.00863487 0)
(0.0869763 -0.00730048 0)
(0.0882719 -0.00586912 0)
(0.0891683 -0.00437749 0)
(0.0896581 -0.00286615 0)
(0.0897373 -0.00137804 0)
(0.0894043 4.28752e-05 0)
(0.0886594 0.00135283 0)
(0.0875057 0.00250945 0)
(0.0859516 0.00347317 0)
(0.0840148 0.00420936 0)
(0.0817276 0.00469138 0)
(0.0791413 0.00490445 0)
(0.0763306 0.00484949 0)
(0.073392 0.00454546 0)
(0.0704386 0.00402898 0)
(0.0675893 0.00335037 0)
(0.0649541 0.00256641 0)
(0.0626225 0.00173168 0)
(0.0606544 0.000891964 0)
(0.0590784 8.24233e-05 0)
(0.0578949 -0.000669711 0)
(0.0570825 -0.00134108 0)
(0.0566053 -0.00190989 0)
(0.0564185 -0.00235663 0)
(0.0564715 -0.0026669 0)
(0.0567107 -0.00283485 0)
(0.0570819 -0.00286552 0)
(0.0575339 -0.00277502 0)
(0.0580215 -0.00258826 0)
(0.0585079 -0.00233488 0)
(0.0589667 -0.0020447 0)
(0.0593812 -0.00174386 0)
(0.0597428 -0.00145257 0)
(0.0600499 -0.00118445 0)
(0.0603046 -0.000947076 0)
(0.060512 -0.000743286 0)
(0.060678 -0.000572622 0)
(0.0608088 -0.000432628 0)
(0.0609104 -0.000319843 0)
(0.060988 -0.000230474 0)
(0.0610463 -0.000160807 0)
(0.0610891 -0.00010742 0)
(0.0611199 -6.72832e-05 0)
(0.0611412 -3.77725e-05 0)
(0.0611553 -1.66606e-05 0)
(0.0611641 -2.08279e-06 0)
(0.061169 7.5015e-06 0)
(0.0611711 1.33476e-05 0)
(0.0611714 1.64636e-05 0)
(0.0611704 1.76462e-05 0)
(0.0611687 1.75138e-05 0)
(0.0611666 1.65365e-05 0)
(0.0611644 1.50635e-05 0)
(0.0611622 1.33466e-05 0)
(0.0611602 1.15615e-05 0)
(0.0611583 9.82487e-06 0)
(0.0611567 8.2093e-06 0)
(0.0611553 6.75494e-06 0)
(0.0611542 5.47901e-06 0)
(0.0611532 4.38313e-06 0)
(0.0611524 3.45887e-06 0)
(0.0611518 2.69181e-06 0)
(0.0611512 2.06455e-06 0)
(0.0611508 1.55866e-06 0)
(0.0611505 1.15611e-06 0)
(0.0611503 8.40044e-07 0)
(0.0611501 5.95261e-07 0)
(0.06115 4.08406e-07 0)
(0.0611499 2.68003e-07 0)
(0.0611498 1.64367e-07 0)
(0.0611498 8.94534e-08 0)
(0.0611497 3.66776e-08 0)
(0.0611497 7.20169e-10 0)
(0.0611497 -2.26604e-08 0)
(0.0611497 -3.68038e-08 0)
(0.0611497 -4.43062e-08 0)
(0.0611497 -4.71588e-08 0)
(0.0611497 -4.68675e-08 0)
(0.0611497 -4.45529e-08 0)
(0.0611497 -4.10336e-08 0)
(0.0611497 -3.68952e-08 0)
(0.0611497 -3.25448e-08 0)
(0.0611497 -2.82553e-08 0)
(0.0611497 -2.42007e-08 0)
(0.0611498 -2.04822e-08 0)
(0.0611498 -1.71502e-08 0)
(0.0611498 -1.42193e-08 0)
(0.0611498 -1.16808e-08 0)
(0.0611498 -9.51109e-09 0)
(0.0611498 -7.67803e-09 0)
(0.0611498 -6.1456e-09 0)
(0.0611498 -4.87684e-09 0)
(0.0611498 -3.8359e-09 0)
(0.0611498 -2.98926e-09 0)
(0.0611498 -2.30649e-09 0)
(0.0611498 -1.76048e-09 0)
(0.0611498 -1.32755e-09 0)
(0.0611498 -9.87252e-10 0)
(0.0611498 -7.22219e-10 0)
(0.0611498 -5.17815e-10 0)
(0.0611498 -3.61847e-10 0)
(0.0611498 -2.44255e-10 0)
(0.0611498 -1.56806e-10 0)
(0.0611498 -9.28192e-11 0)
(0.0611498 -4.69185e-11 0)
(0.0611498 -1.48117e-11 0)
(0.0611498 6.89763e-12 0)
(0.0611498 2.08742e-11 0)
(0.0611498 2.91893e-11 0)
(0.0611498 3.34391e-11 0)
(0.0611498 3.48382e-11 0)
(0.0611498 3.43061e-11 0)
(0.0611498 3.25296e-11 0)
(0.0611498 3.00086e-11 0)
(0.0611498 2.71075e-11 0)
(0.0611498 2.40803e-11 0)
(0.0611498 2.10998e-11 0)
(0.0611498 1.82779e-11 0)
(0.0611498 1.56772e-11 0)
(0.0611498 1.33299e-11 0)
(0.0611498 1.12464e-11 0)
(0.0611498 9.42135e-12 0)
(0.0611498 7.84166e-12 0)
(0.0611498 6.484e-12 0)
(0.0611498 5.3271e-12 0)
(0.0611498 4.3472e-12 0)
(0.0611498 3.52195e-12 0)
(0.0611498 2.83202e-12 0)
(0.0611498 2.25649e-12 0)
(0.0611498 1.78021e-12 0)
(0.0611498 1.38634e-12 0)
(0.0611498 1.06124e-12 0)
(0.0611498 7.9326e-13 0)
(0.0611498 5.71342e-13 0)
(0.0611498 3.86786e-13 0)
(0.0611498 2.30006e-13 0)
(0.0611498 9.71421e-14 0)
(0.0611498 -1.64748e-14 0)
(0.0611498 -1.13653e-13 0)
(0.0611498 -1.94773e-13 0)
(0.0611498 -2.63048e-13 0)
(0.0611498 -3.17648e-13 0)
(0.0611498 -3.5656e-13 0)
(0.0611498 -3.80068e-13 0)
(0.0611498 -3.84494e-13 0)
(0.0611498 -3.68463e-13 0)
(0.0611498 -3.25064e-13 0)
(0.0611498 -2.36552e-13 0)
(0.0611498 -9.04493e-14 0)
(0.0611498 1.55301e-13 0)
(0.0611498 5.47712e-13 0)
(0.0611498 1.17581e-12 0)
(0.0611498 1.91662e-12 0)
(0.0611498 4.79402e-12 0)
(0.0611498 5.13483e-12 0)
(-0.000672078 0.00316735 0)
(-0.00190834 0.00517661 0)
(-0.00212149 0.00579531 0)
(-0.00204366 0.00562569 0)
(-0.00148112 0.00533135 0)
(-0.00076403 0.00495206 0)
(0.000158812 0.00456544 0)
(0.0012019 0.00416413 0)
(0.00237215 0.00374828 0)
(0.00364954 0.00330948 0)
(0.00503577 0.00283932 0)
(0.00652827 0.00233056 0)
(0.00812988 0.00177677 0)
(0.00984324 0.00117341 0)
(0.0116724 0.000517317 0)
(0.0136217 -0.000193013 0)
(0.0156956 -0.000957629 0)
(0.0178984 -0.00177515 0)
(0.0202341 -0.00264284 0)
(0.0227059 -0.00355675 0)
(0.0253162 -0.00451171 0)
(0.0280659 -0.0055015 0)
(0.0309546 -0.00651887 0)
(0.0339802 -0.00755567 0)
(0.0371388 -0.00860283 0)
(0.0404246 -0.00965044 0)
(0.0438297 -0.0106877 0)
(0.047344 -0.0117028 0)
(0.0509553 -0.0126831 0)
(0.0546488 -0.0136148 0)
(0.058407 -0.0144832 0)
(0.0622096 -0.0152727 0)
(0.0660335 -0.0159665 0)
(0.0698523 -0.0165472 0)
(0.0736365 -0.0169961 0)
(0.077353 -0.0172941 0)
(0.0809653 -0.017422 0)
(0.0844343 -0.0173611 0)
(0.0877187 -0.0170946 0)
(0.0907772 -0.0166092 0)
(0.0935701 -0.0158965 0)
(0.0960622 -0.0149554 0)
(0.0982254 -0.0137928 0)
(0.100041 -0.0124248 0)
(0.101499 -0.0108762 0)
(0.102602 -0.00918001 0)
(0.103359 -0.00737516 0)
(0.103785 -0.00550479 0)
(0.103897 -0.00361396 0)
(0.103714 -0.00174781 0)
(0.10325 4.97774e-05 0)
(0.102515 0.00173704 0)
(0.101511 0.00327473 0)
(0.100236 0.0046262 0)
(0.0986832 0.00575753 0)
(0.0968425 0.00663796 0)
(0.0947077 0.0072411 0)
(0.092281 0.00754695 0)
(0.0895804 0.00754491 0)
(0.0866457 0.00723724 0)
(0.0835425 0.00664236 0)
(0.0803617 0.00579682 0)
(0.0772127 0.00475484 0)
(0.0742113 0.00358437 0)
(0.0714646 0.00235996 0)
(0.0690568 0.00115418 0)
(0.06704 3.06054e-05 0)
(0.0654321 -0.000959754 0)
(0.0642205 -0.00177904 0)
(0.0633691 -0.00240256 0)
(0.0628271 -0.00281964 0)
(0.0625362 -0.0030349 0)
(0.0624377 -0.00306821 0)
(0.0624767 -0.002952 0)
(0.0626063 -0.00272606 0)
(0.0627884 -0.00243144 0)
(0.0629942 -0.00210498 0)
(0.0632034 -0.00177596 0)
(0.0634026 -0.00146491 0)
(0.0635839 -0.00118419 0)
(0.0637433 -0.000939591 0)
(0.0638794 -0.000732252 0)
(0.0639929 -0.000560353 0)
(0.0640856 -0.000420476 0)
(0.0641597 -0.000308538 0)
(0.0642177 -0.000220369 0)
(0.0642623 -0.000152035 0)
(0.0642958 -9.9992e-05 0)
(0.0643204 -6.11363e-05 0)
(0.064338 -3.28054e-05 0)
(0.0643502 -1.27488e-05 0)
(0.0643582 9.09307e-07 0)
(0.0643631 9.7123e-06 0)
(0.0643658 1.49117e-05 0)
(0.064367 1.75068e-05 0)
(0.0643672 1.82821e-05 0)
(0.0643667 1.78414e-05 0)
(0.0643658 1.66396e-05 0)
(0.0643647 1.50107e-05 0)
(0.0643635 1.31924e-05 0)
(0.0643623 1.13477e-05 0)
(0.0643613 9.58255e-06 0)
(0.0643603 7.96052e-06 0)
(0.0643594 6.51456e-06 0)
(0.0643587 5.25634e-06 0)
(0.0643581 4.18331e-06 0)
(0.0643576 3.28404e-06 0)
(0.0643572 2.54204e-06 0)
(0.0643568 1.93857e-06 0)