/*--------------------------------*- C++ -*----------------------------------*\
| =========                 |                                                 |
| \\      /  F ield         | OpenFOAM: The Open Source CFD Toolbox           |
|  \\    /   O peration     | Version:  4.1                                   |
|   \\  /    A nd           | Web:      www.OpenFOAM.org                      |
|    \\/     M anipulation  |                                                 |
\*---------------------------------------------------------------------------*/
FoamFile
{
    version     2.0;
    format      ascii;
    class       volVectorField;
    location    "1860";
    object      U;
}
// * * * * * * * * * * * * * * * * * * * * * * * * * * * * * * * * * * * * * //

dimensions      [0 1 -1 0 0 0 0];

internalField   nonuniform List<vector> 
1275
(
(0.0147134 0.000106575 0)
(0.0144645 0.000105046 0)
(0.0141908 0.000102317 0)
(0.013896 9.85922e-05 0)
(0.0135843 9.40668e-05 0)
(0.0132586 8.90232e-05 0)
(0.0129221 8.35825e-05 0)
(0.0125775 7.79912e-05 0)
(0.0122269 7.23308e-05 0)
(0.0118725 6.67842e-05 0)
(0.0115158 6.13993e-05 0)
(0.0111583 5.62954e-05 0)
(0.0108013 5.14898e-05 0)
(0.0104459 4.70485e-05 0)
(0.0100928 4.2964e-05 0)
(0.00974285 3.92621e-05 0)
(0.00939656 3.59177e-05 0)
(0.00905454 3.29299e-05 0)
(0.00871716 3.02634e-05 0)
(0.00838485 2.79017e-05 0)
(0.00805789 2.5806e-05 0)
(0.00773663 2.39523e-05 0)
(0.00742128 2.23031e-05 0)
(0.00711212 2.08329e-05 0)
(0.00680935 1.9508e-05 0)
(0.00651319 1.83048e-05 0)
(0.00622383 1.71952e-05 0)
(0.00594147 1.61591e-05 0)
(0.00566627 1.51743e-05 0)
(0.00539841 1.42254e-05 0)
(0.00513802 1.32962e-05 0)
(0.00488526 1.2376e-05 0)
(0.00464023 1.14547e-05 0)
(0.00440305 1.05267e-05 0)
(0.00417379 9.58738e-06 0)
(0.00395254 8.63628e-06 0)
(0.00373932 7.67423e-06 0)
(0.00353417 6.70532e-06 0)
(0.00333708 5.73494e-06 0)
(0.00314804 4.77087e-06 0)
(0.00296701 3.82171e-06 0)
(0.00279391 2.89738e-06 0)
(0.00262868 2.00778e-06 0)
(0.0024712 1.16299e-06 0)
(0.00232136 3.72091e-07 0)
(0.00217902 -3.56773e-07 0)
(0.00204403 -1.01725e-06 0)
(0.00191624 -1.60473e-06 0)
(0.00179546 -2.11685e-06 0)
(0.00168152 -2.5533e-06 0)
(0.00157422 -2.91597e-06 0)
(0.00147338 -3.20859e-06 0)
(0.00137878 -3.43656e-06 0)
(0.00129024 -3.60652e-06 0)
(0.00120753 -3.72601e-06 0)
(0.00113047 -3.80298e-06 0)
(0.00105884 -3.84547e-06 0)
(0.000992442 -3.86117e-06 0)
(0.000931078 -3.85725e-06 0)
(0.000874554 -3.84004e-06 0)
(0.000822683 -3.81496e-06 0)
(0.000775285 -3.78646e-06 0)
(0.000732187 -3.75802e-06 0)
(0.000693224 -3.73224e-06 0)
(0.000658241 -3.71095e-06 0)
(0.000627089 -3.69533e-06 0)
(0.000599631 -3.68606e-06 0)
(0.000575739 -3.68349e-06 0)
(0.000555291 -3.68772e-06 0)
(0.000538176 -3.69875e-06 0)
(0.000524291 -3.71654e-06 0)
(0.00051354 -3.74106e-06 0)
(0.000505835 -3.77234e-06 0)
(0.000501093 -3.81051e-06 0)
(0.00049924 -3.85571e-06 0)
(0.000500207 -3.90819e-06 0)
(0.000503927 -3.96818e-06 0)
(0.000510342 -4.03595e-06 0)
(0.000519395 -4.11173e-06 0)
(0.000531033 -4.19571e-06 0)
(0.000545206 -4.28799e-06 0)
(0.000561864 -4.38861e-06 0)
(0.000580962 -4.49748e-06 0)
(0.000602454 -4.61442e-06 0)
(0.000626293 -4.73915e-06 0)
(0.000652436 -4.87126e-06 0)
(0.000680835 -5.01024e-06 0)
(0.000711445 -5.15549e-06 0)
(0.000744218 -5.30632e-06 0)
(0.000779103 -5.46197e-06 0)
(0.000816052 -5.62163e-06 0)
(0.00085501 -5.78437e-06 0)
(0.000895924 -5.94934e-06 0)
(0.000938734 -6.1155e-06 0)
(0.000983384 -6.28206e-06 0)
(0.00102981 -6.44779e-06 0)
(0.00107795 -6.61218e-06 0)
(0.00112773 -6.77363e-06 0)
(0.00117909 -6.93226e-06 0)
(0.00123197 -7.08572e-06 0)
(0.00128627 -7.23537e-06 0)
(0.00134196 -7.37734e-06 0)
(0.00139889 -7.5154e-06 0)
(0.0014571 -7.64265e-06 0)
(0.00151635 -7.76729e-06 0)
(0.00157679 -7.87677e-06 0)
(0.00163802 -7.98725e-06 0)
(0.00170044 -8.07601e-06 0)
(0.00176325 -8.17295e-06 0)
(0.00182746 -8.23799e-06 0)
(0.00189141 -8.32362e-06 0)
(0.00195731 -8.36193e-06 0)
(0.00202182 -8.44013e-06 0)
(0.00208951 -8.44946e-06 0)
(0.00215378 -8.52502e-06 0)
(0.00222371 -8.50688e-06 0)
(0.00228655 -8.5829e-06 0)
(0.00235973 -8.552e-06 0)
(0.00241932 -8.62315e-06 0)
(0.00249765 -8.63608e-06 0)
(0.00255122 -8.67518e-06 0)
(0.00263793 -8.92297e-06 0)
(0.00268165 -8.8698e-06 0)
(0.00278167 -1.00015e-05 0)
(0.00281144 -9.87758e-06 0)
(0.00293181 -1.42377e-05 0)
(0.00294788 -1.53239e-05 0)
(0.00309905 -3.37616e-05 0)
(0.0390237 0.00036344 0)
(0.0388516 0.000419947 0)
(0.0386138 0.000469042 0)
(0.0383147 0.000511394 0)
(0.0379597 0.000547255 0)
(0.0375531 0.000577438 0)
(0.0370995 0.000602195 0)
(0.0366032 0.000622286 0)
(0.0360683 0.000637994 0)
(0.0354985 0.000649964 0)
(0.0348975 0.000658487 0)
(0.0342687 0.000664082 0)
(0.0336153 0.000667018 0)
(0.0329403 0.0006677 0)
(0.0322465 0.000666355 0)
(0.0315364 0.000663289 0)
(0.0308126 0.000658683 0)
(0.0300774 0.000652761 0)
(0.0293328 0.000645659 0)
(0.0285809 0.000637539 0)
(0.0278236 0.0006285 0)
(0.0270627 0.000618656 0)
(0.0262999 0.000608081 0)
(0.0255369 0.000596857 0)
(0.0247751 0.000585038 0)
(0.024016 0.000572687 0)
(0.0232611 0.000559848 0)
(0.0225116 0.000546572 0)
(0.021769 0.000532901 0)
(0.0210344 0.000518879 0)
(0.020309 0.000504548 0)
(0.019594 0.00048995 0)
(0.0188905 0.000475128 0)
(0.0181994 0.000460125 0)
(0.0175218 0.000444983 0)
(0.0168586 0.000429745 0)
(0.0162106 0.000414451 0)
(0.0155786 0.000399142 0)
(0.0149633 0.000383857 0)
(0.0143653 0.000368631 0)
(0.0137852 0.000353499 0)
(0.0132235 0.000338492 0)
(0.0126806 0.000323638 0)
(0.0121569 0.000308964 0)
(0.0116524 0.000294493 0)
(0.0111675 0.000280246 0)
(0.0107022 0.000266244 0)
(0.0102565 0.000252505 0)
(0.00983048 0.000239046 0)
(0.00942392 0.000225884 0)
(0.00903667 0.000213035 0)
(0.00866852 0.000200512 0)
(0.00831919 0.000188329 0)
(0.00798838 0.000176499 0)
(0.00767573 0.000165031 0)
(0.00738084 0.000153932 0)
(0.00710332 0.000143208 0)
(0.00684273 0.00013286 0)
(0.0065986 0.000122887 0)
(0.00637049 0.000113286 0)
(0.00615792 0.000104048 0)
(0.00596042 9.51635e-05 0)
(0.00577751 8.66205e-05 0)
(0.00560872 7.84043e-05 0)
(0.0054536 7.0499e-05 0)
(0.00531168 6.28877e-05 0)
(0.00518252 5.55529e-05 0)
(0.00506568 4.84768e-05 0)
(0.00496076 4.1642e-05 0)
(0.00486734 3.50314e-05 0)
(0.00478504 2.86288e-05 0)
(0.00471348 2.24188e-05 0)
(0.0046523 1.63871e-05 0)
(0.00460116 1.05208e-05 0)
(0.00455973 4.80794e-06 0)
(0.00452768 -7.62105e-07 0)
(0.00450473 -6.19867e-06 0)
(0.00449058 -1.15099e-05 0)
(0.00448495 -1.67026e-05 0)
(0.00448758 -2.17827e-05 0)
(0.00449821 -2.67547e-05 0)
(0.00451658 -3.16222e-05 0)
(0.00454246 -3.63878e-05 0)
(0.0045756 -4.10532e-05 0)
(0.00461579 -4.56192e-05 0)
(0.0046628 -5.00856e-05 0)
(0.0047164 -5.44518e-05 0)
(0.00477638 -5.87165e-05 0)
(0.00484253 -6.28777e-05 0)
(0.00491462 -6.69329e-05 0)
(0.00499246 -7.08794e-05 0)
(0.00507582 -7.47138e-05 0)
(0.0051645 -7.84332e-05 0)
(0.00525828 -8.20332e-05 0)
(0.00535697 -8.55117e-05 0)
(0.00546034 -8.88627e-05 0)
(0.00556818 -9.20863e-05 0)
(0.0056803 -9.51735e-05 0)
(0.00579647 -9.81296e-05 0)
(0.0059165 -0.000100939 0)
(0.00604015 -0.000103618 0)
(0.00616726 -0.000106137 0)
(0.00629755 -0.000108534 0)
(0.00643093 -0.00011075 0)
(0.00656702 -0.000112868 0)
(0.0067059 -0.000114768 0)
(0.00684694 -0.00011662 0)
(0.00699059 -0.000118186 0)
(0.0071357 -0.000119802 0)
(0.0072835 -0.000121007 0)
(0.00743176 -0.00012244 0)
(0.00758324 -0.000123236 0)
(0.00773357 -0.000124577 0)
(0.00788859 -0.000124884 0)
(0.00803964 -0.000126272 0)
(0.00819852 -0.000125968 0)
(0.00834844 -0.0001276 0)
(0.00851231 -0.000126532 0)
(0.00865838 -0.000128639 0)
(0.00882966 -0.000126705 0)
(0.0089678 -0.00012946 0)
(0.0091508 -0.000126903 0)
(0.00927508 -0.000130168 0)
(0.00947653 -0.000128454 0)
(0.00957911 -0.000131392 0)
(0.00980799 -0.000135942 0)
(0.00988008 -0.00013699 0)
(0.0101448 -0.000167515 0)
(0.0589743 0.000379485 0)
(0.0589382 0.000514742 0)
(0.0588321 0.000638297 0)
(0.0586591 0.000751299 0)
(0.058423 0.000853717 0)
(0.0581271 0.000946723 0)
(0.0577746 0.00103042 0)
(0.0573687 0.00110585 0)
(0.0569122 0.00117323 0)
(0.056408 0.00123341 0)
(0.0558588 0.00128671 0)
(0.0552673 0.00133381 0)
(0.0546357 0.00137503 0)
(0.0539667 0.00141091 0)
(0.0532622 0.00144175 0)
(0.0525246 0.00146798 0)
(0.0517559 0.00148984 0)
(0.0509582 0.00150767 0)
(0.0501335 0.00152168 0)
(0.0492836 0.0015321 0)
(0.0484106 0.00153911 0)
(0.0475162 0.00154289 0)
(0.0466023 0.00154357 0)
(0.0456708 0.00154129 0)
(0.0447235 0.00153614 0)
(0.0437622 0.00152824 0)
(0.042789 0.00151767 0)
(0.0418055 0.00150452 0)
(0.0408138 0.00148888 0)
(0.0398159 0.00147083 0)
(0.0388136 0.00145046 0)
(0.0378089 0.00142786 0)
(0.0368039 0.00140313 0)
(0.0358005 0.00137638 0)
(0.0348008 0.00134773 0)
(0.0338069 0.00131729 0)
(0.0328206 0.00128521 0)
(0.031844 0.00125162 0)
(0.0308791 0.00121668 0)
(0.0299276 0.00118054 0)
(0.0289916 0.00114337 0)
(0.0280726 0.00110534 0)
(0.0271723 0.00106661 0)
(0.0262924 0.00102736 0)
(0.0254342 0.00098774 0)
(0.024599 0.00094792 0)
(0.0237881 0.000908052 0)
(0.0230023 0.000868282 0)
(0.0222427 0.000828744 0)
(0.0215099 0.000789562 0)
(0.0208046 0.000750848 0)
(0.0201272 0.000712703 0)
(0.019478 0.000675212 0)
(0.0188571 0.000638451 0)
(0.0182647 0.00060248 0)
(0.0177007 0.000567352 0)
(0.0171648 0.000533105 0)
(0.0166569 0.000499769 0)
(0.0161767 0.000467364 0)
(0.0157235 0.000435904 0)
(0.0152971 0.000405392 0)
(0.0148969 0.000375828 0)
(0.0145222 0.000347203 0)
(0.0141725 0.000319507 0)
(0.013847 0.000292721 0)
(0.0135453 0.000266826 0)
(0.0132665 0.000241799 0)
(0.0130099 0.000217614 0)
(0.012775 0.000194243 0)
(0.0125609 0.000171657 0)
(0.0123671 0.000149827 0)
(0.0121927 0.000128722 0)
(0.0120373 0.000108313 0)
(0.0119 8.85696e-05 0)
(0.0117804 6.94633e-05 0)
(0.0116776 5.09665e-05 0)
(0.0115912 3.30534e-05 0)
(0.0115205 1.56996e-05 0)
(0.011465 -1.11723e-06 0)
(0.0114241 -1.74176e-05 0)
(0.0113972 -3.32197e-05 0)
(0.0113839 -4.85399e-05 0)
(0.0113835 -6.33922e-05 0)
(0.0113956 -7.77889e-05 0)
(0.0114198 -9.174e-05 0)
(0.0114554 -0.000105254 0)
(0.0115021 -0.000118337 0)
(0.0115593 -0.000130995 0)
(0.0116268 -0.000143231 0)
(0.0117039 -0.000155048 0)
(0.0117903 -0.000166447 0)
(0.0118855 -0.000177429 0)
(0.0119893 -0.000187993 0)
(0.012101 -0.00019814 0)
(0.0122204 -0.000207869 0)
(0.0123471 -0.000217176 0)
(0.0124806 -0.000226066 0)
(0.0126207 -0.000234531 0)
(0.0127669 -0.000242581 0)
(0.0129189 -0.000250199 0)
(0.0130763 -0.000257412 0)
(0.0132388 -0.000264182 0)
(0.013406 -0.00027057 0)
(0.0135777 -0.000276493 0)
(0.0137534 -0.000282078 0)
(0.013933 -0.000287154 0)
(0.0141159 -0.000291979 0)
(0.0143023 -0.000296201 0)
(0.0144912 -0.000300335 0)
(0.0146833 -0.000303683 0)
(0.0148769 -0.000307235 0)
(0.0150739 -0.000309655 0)
(0.0152709 -0.000312798 0)
(0.0154724 -0.000314185 0)
(0.0156711 -0.000317174 0)
(0.0158771 -0.000317349 0)
(0.0160756 -0.000320553 0)
(0.0162869 -0.000319263 0)
(0.0164822 -0.000323156 0)
(0.0167012 -0.000320165 0)
(0.0168889 -0.000325221 0)
(0.0171201 -0.000320668 0)
(0.0172933 -0.000326995 0)
(0.0175445 -0.000322458 0)
(0.0176926 -0.000328859 0)
(0.017976 -0.000329931 0)
(0.018082 -0.000332612 0)
(0.0184143 -0.000351413 0)
(0.0769376 0.000361257 0)
(0.0769114 0.000563003 0)
(0.0768236 0.000749379 0)
(0.0766771 0.000922202 0)
(0.0764748 0.0010813 0)
(0.0762196 0.00122831 0)
(0.0759138 0.00136335 0)
(0.0755601 0.00148778 0)
(0.0751603 0.0016019 0)
(0.0747168 0.0017068 0)
(0.0742311 0.00180288 0)
(0.0737053 0.00189099 0)
(0.0731406 0.00197156 0)
(0.0725388 0.00204523 0)
(0.071901 0.00211239 0)
(0.0712288 0.00217353 0)
(0.0705231 0.00222895 0)
(0.0697853 0.00227903 0)
(0.0690164 0.002324 0)
(0.0682175 0.0023641 0)
(0.0673896 0.00239949 0)
(0.0665338 0.00243034 0)
(0.0656512 0.00245675 0)
(0.0647427 0.0024788 0)
(0.0638096 0.00249655 0)
(0.0628529 0.00251003 0)
(0.0618739 0.00251926 0)
(0.0608737 0.00252425 0)
(0.0598538 0.002525 0)
(0.0588155 0.00252151 0)
(0.0577603 0.00251378 0)
(0.0566898 0.0025018 0)
(0.0556056 0.00248559 0)
(0.0545094 0.00246518 0)
(0.0534032 0.00244059 0)
(0.0522888 0.0024119 0)
(0.0511684 0.00237918 0)
(0.0500439 0.00234253 0)
(0.0489176 0.00230207 0)
(0.0477918 0.00225796 0)
(0.0466686 0.00221038 0)
(0.0455505 0.00215952 0)
(0.0444398 0.00210561 0)
(0.0433389 0.00204889 0)
(0.04225 0.00198964 0)
(0.0411755 0.00192813 0)
(0.0401177 0.00186465 0)
(0.0390787 0.00179952 0)
(0.0380606 0.00173305 0)
(0.0370653 0.00166553 0)
(0.0360947 0.00159727 0)
(0.0351504 0.00152858 0)
(0.034234 0.00145974 0)
(0.0333468 0.00139101 0)
(0.0324901 0.00132265 0)
(0.0316648 0.00125489 0)
(0.0308717 0.00118793 0)
(0.0301115 0.00112195 0)
(0.0293847 0.00105712 0)
(0.0286915 0.000993574 0)
(0.0280321 0.000931413 0)
(0.0274065 0.00087073 0)
(0.0268145 0.000811594 0)
(0.0262559 0.000754055 0)
(0.0257302 0.000698142 0)
(0.0252371 0.000643875 0)
(0.0247759 0.000591257 0)
(0.024346 0.00054028 0)
(0.0239467 0.00049093 0)
(0.0235772 0.000443181 0)
(0.0232367 0.000397004 0)
(0.0229245 0.000352366 0)
(0.0226397 0.000309229 0)
(0.0223813 0.000267555 0)
(0.0221486 0.000227301 0)
(0.0219406 0.000188428 0)
(0.0217565 0.000150895 0)
(0.0215954 0.000114661 0)
(0.0214564 7.96897e-05 0)
(0.0213387 4.59428e-05 0)
(0.0212414 1.33858e-05 0)
(0.0211637 -1.80142e-05 0)
(0.0211048 -4.82879e-05 0)
(0.0210639 -7.74635e-05 0)
(0.0210402 -0.000105567 0)
(0.0210329 -0.000132623 0)
(0.0210413 -0.000158652 0)
(0.0210647 -0.000183676 0)
(0.0211023 -0.00020771 0)
(0.0211535 -0.000230773 0)
(0.0212175 -0.000252879 0)
(0.0212938 -0.000274042 0)
(0.0213817 -0.000294274 0)
(0.0214805 -0.000313587 0)
(0.0215896 -0.000331994 0)
(0.0217085 -0.000349504 0)
(0.0218366 -0.000366131 0)
(0.0219733 -0.000381879 0)
(0.0221181 -0.000396773 0)
(0.0222705 -0.000410802 0)
(0.0224299 -0.000424014 0)
(0.0225959 -0.000436369 0)
(0.022768 -0.000447958 0)
(0.0229458 -0.000458685 0)
(0.0231287 -0.000468729 0)
(0.0233164 -0.00047787 0)
(0.0235084 -0.000486466 0)
(0.0237045 -0.000494057 0)
(0.023904 -0.000501341 0)
(0.0241071 -0.00050739 0)
(0.0243126 -0.000513555 0)
(0.0245215 -0.000518023 0)
(0.0247314 -0.000523348 0)
(0.0249452 -0.000526116 0)
(0.0251579 -0.000531009 0)
(0.0253763 -0.000531834 0)
(0.0255898 -0.000536876 0)
(0.0258131 -0.000535374 0)
(0.0260246 -0.000541328 0)
(0.0262548 -0.000537068 0)
(0.0264598 -0.00054473 0)
(0.0267011 -0.000537661 0)
(0.0268923 -0.000547337 0)
(0.0271532 -0.000538877 0)
(0.0273173 -0.000549396 0)
(0.0276132 -0.000543999 0)
(0.0277269 -0.000551856 0)
(0.0280823 -0.000558037 0)
(0.0931381 0.000365662 0)
(0.0930728 0.000628108 0)
(0.0929551 0.000871657 0)
(0.0927879 0.00109901 0)
(0.0925734 0.00130975 0)
(0.0923146 0.00150602 0)
(0.0920129 0.00168794 0)
(0.091671 0.00185716 0)
(0.0912901 0.00201409 0)
(0.0908723 0.00216002 0)
(0.0904187 0.00229548 0)
(0.0899309 0.00242148 0)
(0.0894098 0.00253853 0)
(0.0888567 0.00264743 0)
(0.0882724 0.00274865 0)
(0.0876579 0.00284277 0)
(0.0870138 0.00293018 0)
(0.086341 0.00301131 0)
(0.08564 0.00308646 0)
(0.0849114 0.0031559 0)
(0.0841557 0.00321985 0)
(0.0833736 0.00327847 0)
(0.0825655 0.00333187 0)
(0.0817319 0.00338014 0)
(0.0808733 0.00342332 0)
(0.0799904 0.0034614 0)
(0.0790837 0.00349438 0)
(0.0781538 0.0035222 0)
(0.0772013 0.0035448 0)
(0.0762271 0.00356212 0)
(0.075232 0.00357405 0)
(0.0742168 0.00358053 0)
(0.0731825 0.00358145 0)
(0.0721303 0.00357675 0)
(0.0710613 0.00356635 0)
(0.0699767 0.0035502 0)
(0.0688781 0.00352826 0)
(0.0677669 0.00350052 0)
(0.0666447 0.00346701 0)
(0.0655134 0.00342776 0)
(0.0643747 0.00338285 0)
(0.0632305 0.0033324 0)
(0.062083 0.00327655 0)
(0.0609343 0.00321548 0)
(0.0597865 0.00314942 0)
(0.0586419 0.00307861 0)
(0.0575028 0.00300335 0)
(0.0563716 0.00292395 0)
(0.0552506 0.00284075 0)
(0.0541422 0.00275413 0)
(0.0530485 0.00266446 0)
(0.0519721 0.00257216 0)
(0.0509149 0.00247764 0)
(0.0498792 0.0023813 0)
(0.0488669 0.00228358 0)
(0.0478799 0.00218487 0)
(0.04692 0.00208557 0)
(0.0459888 0.00198608 0)
(0.0450877 0.00188674 0)
(0.044218 0.0017879 0)
(0.0433807 0.00168987 0)
(0.0425769 0.00159293 0)
(0.0418071 0.00149735 0)
(0.0410721 0.00140334 0)
(0.0403721 0.00131111 0)
(0.0397074 0.00122081 0)
(0.039078 0.00113258 0)
(0.0384839 0.00104654 0)
(0.0379248 0.000962768 0)
(0.0374004 0.000881329 0)
(0.0369102 0.000802264 0)
(0.0364537 0.000725598 0)
(0.0360302 0.000651342 0)
(0.0356389 0.000579492 0)
(0.0352792 0.000510032 0)
(0.0349501 0.00044294 0)
(0.0346507 0.000378183 0)
(0.0343801 0.000315727 0)
(0.0341374 0.000255531 0)
(0.0339216 0.000197553 0)
(0.0337316 0.000141747 0)
(0.0335666 8.8068e-05 0)
(0.0334254 3.64711e-05 0)
(0.0333071 -1.30893e-05 0)
(0.0332107 -6.06574e-05 0)
(0.0331353 -0.000106277 0)
(0.0330798 -0.000149989 0)
(0.0330433 -0.000191835 0)
(0.0330249 -0.000231853 0)
(0.0330236 -0.000270083 0)
(0.0330386 -0.00030656 0)
(0.033069 -0.000341321 0)
(0.033114 -0.000374399 0)
(0.0331726 -0.000405828 0)
(0.0332441 -0.000435644 0)
(0.0333278 -0.000463875 0)
(0.0334229 -0.00049056 0)
(0.0335285 -0.000515724 0)
(0.0336442 -0.00053941 0)
(0.033769 -0.000561636 0)
(0.0339025 -0.000582461 0)
(0.0340439 -0.000601879 0)
(0.0341927 -0.000619988 0)
(0.0343483 -0.000636731 0)
(0.0345101 -0.000652283 0)
(0.0346776 -0.000666479 0)
(0.0348503 -0.000679655 0)
(0.0350276 -0.000691427 0)
(0.0352093 -0.00070244 0)
(0.0353947 -0.000711886 0)
(0.0355836 -0.000721007 0)
(0.0357754 -0.000728178 0)
(0.0359698 -0.000735757 0)
(0.0361669 -0.000740628 0)
(0.0363652 -0.000747144 0)
(0.0365667 -0.000749562 0)
(0.036767 -0.00075567 0)
(0.0369728 -0.000755319 0)
(0.0371726 -0.000761898 0)
(0.037384 -0.000758307 0)
(0.0375792 -0.000766431 0)
(0.0378 -0.000759147 0)
(0.0379832 -0.000769846 0)
(0.0382219 -0.000759045 0)
(0.0383796 -0.000772385 0)
(0.0386519 -0.000760766 0)
(0.0387592 -0.0007729 0)
(0.0390933 -0.000767719 0)
(0.106242 0.000435306 0)
(0.106137 0.000745744 0)
(0.105992 0.00103425 0)
(0.10581 0.00130421 0)
(0.105591 0.00155521 0)
(0.105338 0.00178971 0)
(0.105052 0.00200801 0)
(0.104735 0.00221194 0)
(0.104387 0.00240213 0)
(0.104011 0.00257998 0)
(0.103606 0.00274623 0)
(0.103173 0.00290197 0)
(0.102714 0.00304791 0)
(0.102228 0.00318491 0)
(0.101717 0.00331357 0)
(0.101181 0.00343455 0)
(0.10062 0.00354833 0)
(0.100034 0.0036554 0)
(0.099424 0.00375612 0)
(0.0987902 0.0038508 0)
(0.0981327 0.00393969 0)
(0.0974517 0.00402297 0)
(0.0967474 0.00410077 0)
(0.09602 0.00417317 0)
(0.0952697 0.00424018 0)
(0.0944967 0.00430179 0)
(0.0937012 0.00435795 0)
(0.0928835 0.00440856 0)
(0.0920439 0.00445352 0)
(0.0911828 0.00449268 0)
(0.0903005 0.00452588 0)
(0.0893977 0.00455296 0)
(0.0884747 0.00457373 0)
(0.0875323 0.00458804 0)
(0.0865712 0.0045957 0)
(0.0855921 0.00459656 0)
(0.0845961 0.00459047 0)
(0.0835841 0.00457731 0)
(0.0825572 0.00455698 0)
(0.0815167 0.00452942 0)
(0.0804639 0.00449459 0)
(0.0794002 0.00445249 0)
(0.0783273 0.00440318 0)
(0.0772467 0.00434673 0)
(0.0761602 0.00428328 0)
(0.0750696 0.004213 0)
(0.073977 0.00413611 0)
(0.0728841 0.00405288 0)
(0.0717932 0.00396361 0)
(0.0707062 0.00386865 0)
(0.0696254 0.00376837 0)
(0.0685529 0.00366318 0)
(0.0674908 0.00355353 0)
(0.0664413 0.00343988 0)
(0.0654064 0.00332269 0)
(0.0643883 0.00320247 0)
(0.0633889 0.00307971 0)
(0.0624101 0.00295489 0)
(0.0614538 0.00282852 0)
(0.0605217 0.00270108 0)
(0.0596154 0.00257302 0)
(0.0587363 0.00244479 0)
(0.0578857 0.00231683 0)
(0.0570648 0.00218952 0)
(0.0562747 0.00206323 0)
(0.0555161 0.00193831 0)
(0.0547897 0.00181507 0)
(0.0540962 0.00169378 0)
(0.0534359 0.00157469 0)
(0.0528089 0.00145802 0)
(0.0522155 0.00134394 0)
(0.0516555 0.00123261 0)
(0.0511288 0.00112417 0)
(0.0506351 0.00101871 0)
(0.0501739 0.000916316 0)
(0.0497448 0.000817045 0)
(0.0493471 0.000720939 0)
(0.0489802 0.00062802 0)
(0.0486432 0.000538297 0)
(0.0483355 0.000451765 0)
(0.0480561 0.000368411 0)
(0.0478041 0.000288211 0)
(0.0475785 0.000211133 0)
(0.0473785 0.000137139 0)
(0.0472029 6.61866e-05 0)
(0.0470509 -1.77083e-06 0)
(0.0469214 -6.67831e-05 0)
(0.0468133 -0.000128903 0)
(0.0467258 -0.000188184 0)
(0.0466577 -0.000244683 0)
(0.0466081 -0.000298456 0)
(0.0465761 -0.000349562 0)
(0.0465606 -0.000398057 0)
(0.0465608 -0.000444001 0)
(0.0465757 -0.000487453 0)
(0.0466044 -0.000528473 0)
(0.046646 -0.000567123 0)
(0.0466998 -0.000603458 0)
(0.0467649 -0.000637549 0)
(0.0468405 -0.000669443 0)
(0.0469259 -0.000699226 0)
(0.0470203 -0.000726924 0)
(0.0471232 -0.000752657 0)
(0.0472336 -0.000776406 0)
(0.0473511 -0.000798364 0)
(0.047475 -0.000818407 0)
(0.0476049 -0.000836883 0)
(0.0477399 -0.000853453 0)
(0.0478799 -0.000868776 0)
(0.0480239 -0.000882076 0)
(0.0481721 -0.000894629 0)
(0.0483233 -0.000904807 0)
(0.048478 -0.000915068 0)
(0.0486348 -0.000922164 0)
(0.0487943 -0.000930767 0)
(0.0489555 -0.000934647 0)
(0.0491181 -0.000942464 0)
(0.049283 -0.000942729 0)
(0.0494469 -0.000950958 0)
(0.0496158 -0.000946919 0)
(0.0497777 -0.000957027 0)
(0.0499532 -0.000948005 0)
(0.0501071 -0.000961075 0)
(0.0502957 -0.0009476 0)
(0.0504293 -0.000962886 0)
(0.0506464 -0.000946991 0)
(0.0507358 -0.000961692 0)
(0.05101 -0.000949868 0)
(0.114561 0.000532893 0)
(0.114431 0.000877674 0)
(0.114276 0.00119847 0)
(0.114102 0.00149949 0)
(0.113906 0.00178025 0)
(0.11369 0.00204339 0)
(0.113454 0.00228942 0)
(0.113199 0.00252018 0)
(0.112924 0.00273653 0)
(0.112631 0.00293986 0)
(0.112318 0.00313108 0)
(0.111987 0.00331127 0)
(0.111637 0.00348128 0)
(0.111268 0.00364196 0)
(0.11088 0.00379402 0)
(0.110473 0.00393812 0)
(0.110046 0.00407481 0)
(0.109601 0.0042046 0)
(0.109136 0.00432787 0)
(0.108651 0.00444497 0)
(0.108146 0.00455615 0)
(0.107621 0.00466161 0)
(0.107076 0.00476148 0)
(0.106511 0.00485584 0)
(0.105925 0.00494469 0)
(0.105318 0.00502802 0)
(0.104691 0.00510573 0)
(0.104043 0.00517771 0)
(0.103374 0.00524381 0)
(0.102684 0.00530384 0)
(0.101974 0.0053576 0)
(0.101243 0.00540485 0)
(0.100492 0.00544536 0)
(0.0997211 0.00547888 0)
(0.0989304 0.00550516 0)
(0.0981206 0.00552396 0)
(0.0972922 0.00553503 0)
(0.0964459 0.00553817 0)
(0.0955825 0.00553317 0)
(0.0947027 0.00551987 0)
(0.0938076 0.00549812 0)
(0.0928983 0.00546784 0)
(0.0919758 0.00542896 0)
(0.0910414 0.00538146 0)
(0.0900967 0.00532538 0)
(0.0891429 0.00526081 0)
(0.0881816 0.00518787 0)
(0.0872146 0.00510675 0)
(0.0862435 0.0050177 0)
(0.0852701 0.00492099 0)
(0.0842963 0.00481697 0)
(0.0833238 0.00470601 0)
(0.0823548 0.00458854 0)
(0.081391 0.00446501 0)
(0.0804344 0.00433593 0)
(0.0794869 0.00420181 0)
(0.0785506 0.00406319 0)
(0.0776271 0.00392063 0)
(0.0767184 0.00377469 0)
(0.0758263 0.00362595 0)
(0.0749523 0.00347497 0)
(0.0740981 0.00332231 0)
(0.0732651 0.00316851 0)
(0.0724548 0.00301412 0)
(0.0716684 0.00285962 0)
(0.070907 0.00270551 0)
(0.0701717 0.00255224 0)
(0.0694633 0.00240023 0)
(0.0687825 0.00224988 0)
(0.06813 0.00210154 0)
(0.0675063 0.00195554 0)
(0.0669116 0.00181217 0)
(0.0663461 0.00167169 0)
(0.06581 0.00153433 0)
(0.0653032 0.00140028 0)
(0.0648255 0.00126972 0)
(0.0643767 0.00114278 0)
(0.0639565 0.00101958 0)
(0.0635643 0.000900215 0)
(0.0631997 0.000784745 0)
(0.062862 0.000673222 0)
(0.0625506 0.000565679 0)
(0.0622647 0.000462129 0)
(0.0620037 0.000362574 0)
(0.0617666 0.000267 0)
(0.0615526 0.000175385 0)
(0.0613609 8.76944e-05 0)
(0.0611905 3.88564e-06 0)
(0.0610406 -7.60909e-05 0)
(0.0609101 -0.000152292 0)
(0.0607983 -0.00022478 0)
(0.0607042 -0.000293622 0)
(0.0606268 -0.00035889 0)
(0.0605653 -0.00042066 0)
(0.0605188 -0.000479009 0)
(0.0604863 -0.00053402 0)
(0.0604672 -0.000585777 0)
(0.0604604 -0.000634364 0)
(0.0604652 -0.000679874 0)
(0.0604808 -0.00072239 0)
(0.0605064 -0.000762016 0)
(0.0605414 -0.000798824 0)
(0.060585 -0.000832943 0)
(0.0606364 -0.000864414 0)
(0.0606953 -0.000893417 0)
(0.0607606 -0.000919925 0)
(0.0608322 -0.000944223 0)
(0.0609091 -0.000966137 0)
(0.0609913 -0.000986163 0)
(0.0610775 -0.00100383 0)
(0.0611683 -0.00102006 0)
(0.0612619 -0.0010338 0)
(0.0613597 -0.00104676 0)
(0.061459 -0.0010568 0)
(0.0615623 -0.00106714 0)
(0.0616658 -0.0010736 0)
(0.0617732 -0.0010821 0)
(0.0618798 -0.00108491 0)
(0.0619898 -0.00109261 0)
(0.0620994 -0.00109143 0)
(0.0622096 -0.00109961 0)
(0.0623236 -0.0010938 0)
(0.0624289 -0.00110408 0)
(0.0625526 -0.00109238 0)
(0.0626447 -0.00110689 0)
(0.0627877 -0.00108961 0)
(0.0628478 -0.00110473 0)
(0.0630355 -0.00108872 0)
(0.116415 0.000673202 0)
(0.116285 0.00102976 0)
(0.116151 0.00136238 0)
(0.116018 0.00167471 0)
(0.115881 0.00196708 0)
(0.115742 0.00224164 0)
(0.115598 0.00249948 0)
(0.115451 0.00274211 0)
(0.115298 0.00297076 0)
(0.115138 0.00318663 0)
(0.114971 0.00339084 0)
(0.114797 0.00358438 0)
(0.114613 0.00376822 0)
(0.11442 0.00394316 0)
(0.114216 0.00410996 0)
(0.114001 0.00426927 0)
(0.113774 0.00442168 0)
(0.113535 0.00456765 0)
(0.113281 0.00470761 0)
(0.113014 0.00484186 0)
(0.112732 0.00497067 0)
(0.112434 0.00509421 0)
(0.11212 0.00521259 0)
(0.111789 0.00532586 0)
(0.111441 0.00543401 0)
(0.111075 0.00553697 0)
(0.110691 0.00563461 0)
(0.110288 0.00572677 0)
(0.109866 0.00581325 0)
(0.109424 0.0058938 0)
(0.108962 0.00596815 0)
(0.10848 0.00603599 0)
(0.107978 0.00609701 0)
(0.107456 0.00615088 0)
(0.106913 0.00619726 0)
(0.10635 0.00623581 0)
(0.105767 0.0062662 0)
(0.105164 0.00628811 0)
(0.104542 0.00630125 0)
(0.1039 0.00630533 0)
(0.10324 0.00630012 0)
(0.102563 0.00628541 0)
(0.101868 0.00626103 0)
(0.101158 0.00622688 0)
(0.100433 0.00618288 0)
(0.0996936 0.00612903 0)
(0.0989418 0.00606536 0)
(0.0981787 0.00599199 0)
(0.0974058 0.00590908 0)
(0.0966245 0.00581684 0)
(0.0958364 0.00571556 0)
(0.095043 0.00560557 0)
(0.0942462 0.00548727 0)
(0.0934475 0.00536108 0)
(0.0926488 0.00522749 0)
(0.0918518 0.00508702 0)
(0.0910583 0.00494023 0)
(0.09027 0.0047877 0)
(0.0894886 0.00463004 0)
(0.0887158 0.00446787 0)
(0.0879533 0.00430182 0)
(0.0872027 0.00413253 0)
(0.0864654 0.00396064 0)
(0.085743 0.00378676 0)
(0.0850367 0.00361151 0)
(0.0843477 0.00343549 0)
(0.0836773 0.00325926 0)
(0.0830265 0.00308338 0)
(0.0823961 0.00290836 0)
(0.081787 0.00273469 0)
(0.0811998 0.00256281 0)
(0.0806351 0.00239315 0)
(0.0800934 0.00222609 0)
(0.0795751 0.00206197 0)
(0.0790802 0.00190112 0)
(0.0786089 0.0017438 0)
(0.0781613 0.00159026 0)
(0.0777373 0.00144071 0)
(0.0773366 0.00129533 0)
(0.076959 0.00115428 0)
(0.0766042 0.00101768 0)
(0.0762717 0.000885622 0)
(0.0759612 0.000758185 0)
(0.0756719 0.00063542 0)
(0.0754034 0.000517361 0)
(0.075155 0.00040402 0)
(0.0749261 0.000295395 0)
(0.0747159 0.000191468 0)
(0.0745237 9.22066e-05 0)
(0.0743488 -2.43293e-06 0)
(0.0741905 -9.25055e-05 0)
(0.0740479 -0.000178076 0)
(0.0739203 -0.000259219 0)
(0.073807 -0.000336015 0)
(0.0737071 -0.000408552 0)
(0.0736199 -0.000476926 0)
(0.0735447 -0.000541236 0)
(0.0734807 -0.000601586 0)
(0.0734272 -0.000658087 0)
(0.0733836 -0.000710846 0)
(0.0733491 -0.000759991 0)
(0.0733232 -0.000805619 0)
(0.0733051 -0.000847885 0)
(0.0732942 -0.000886858 0)
(0.0732901 -0.000922747 0)
(0.073292 -0.000955551 0)
(0.0732996 -0.000985587 0)
(0.0733122 -0.0010127 0)
(0.0733296 -0.00103744 0)
(0.0733509 -0.00105932 0)
(0.0733763 -0.00107936 0)
(0.0734045 -0.00109642 0)
(0.0734364 -0.00111244 0)
(0.0734701 -0.00112497 0)
(0.0735072 -0.00113778 0)
(0.0735448 -0.0011459 0)
(0.0735862 -0.00115657 0)
(0.0736265 -0.00116004 0)
(0.0736711 -0.00117006 0)
(0.0737133 -0.00116808 0)
(0.0737601 -0.00117956 0)
(0.0738038 -0.00117074 0)
(0.0738512 -0.00118553 0)
(0.0738987 -0.00117133 0)
(0.0739401 -0.00118588 0)
(0.073998 -0.00116839 0)
(0.0740212 -0.00118292 0)
(0.0741065 -0.00116582 0)
(0.110692 0.000795883 0)
(0.110598 0.0011422 0)
(0.110521 0.00146558 0)
(0.110469 0.00176977 0)
(0.110432 0.00205583 0)
(0.110412 0.00232528 0)
(0.110405 0.00257974 0)
(0.11041 0.0028203 0)
(0.110425 0.00304843 0)
(0.110447 0.00326507 0)
(0.110475 0.00347146 0)
(0.110507 0.00366841 0)
(0.110541 0.00385692 0)
(0.110576 0.00403766 0)
(0.11061 0.00421142 0)
(0.110642 0.00437873 0)
(0.11067 0.00454018 0)
(0.110694 0.00469617 0)
(0.110711 0.00484709 0)
(0.11072 0.00499321 0)
(0.110722 0.00513477 0)
(0.110713 0.00527189 0)
(0.110694 0.00540466 0)
(0.110663 0.00553309 0)
(0.110619 0.00565713 0)
(0.110561 0.00577668 0)
(0.110489 0.00589158 0)
(0.110401 0.00600161 0)
(0.110296 0.00610652 0)
(0.110175 0.00620602 0)
(0.110035 0.00629978 0)
(0.109877 0.00638743 0)
(0.109699 0.00646859 0)
(0.109502 0.00654284 0)
(0.109284 0.00660979 0)
(0.109046 0.00666898 0)
(0.108787 0.00672001 0)
(0.108507 0.00676246 0)
(0.108205 0.00679592 0)
(0.107882 0.00682002 0)
(0.107539 0.00683439 0)
(0.107174 0.00683872 0)
(0.106788 0.00683274 0)
(0.106383 0.00681621 0)
(0.105958 0.00678895 0)
(0.105514 0.00675085 0)
(0.105052 0.00670184 0)
(0.104573 0.00664192 0)
(0.104078 0.00657116 0)
(0.103568 0.0064897 0)
(0.103045 0.00639774 0)
(0.102509 0.00629554 0)
(0.101961 0.00618343 0)
(0.101404 0.00606182 0)
(0.100839 0.00593114 0)
(0.100268 0.0057919 0)
(0.0996914 0.00564465 0)
(0.0991114 0.00548998 0)
(0.0985296 0.00532851 0)
(0.0979475 0.0051609 0)
(0.0973668 0.00498783 0)
(0.0967888 0.00480997 0)
(0.0962153 0.00462804 0)
(0.0956474 0.00444273 0)
(0.0950867 0.00425474 0)
(0.0945344 0.00406474 0)
(0.0939918 0.00387342 0)
(0.0934598 0.00368141 0)
(0.0929397 0.00348933 0)
(0.0924323 0.00329779 0)
(0.0919385 0.00310733 0)
(0.091459 0.0029185 0)
(0.0909945 0.00273177 0)
(0.0905454 0.00254761 0)
(0.0901123 0.00236643 0)
(0.0896954 0.00218861 0)
(0.089295 0.00201449 0)
(0.0889113 0.00184438 0)
(0.0885443 0.00167854 0)
(0.0881941 0.0015172 0)
(0.0878605 0.00136058 0)
(0.0875433 0.00120882 0)
(0.0872424 0.00106207 0)
(0.0869575 0.000920441 0)
(0.0866882 0.000784011 0)
(0.0864341 0.000652838 0)
(0.0861948 0.000526956 0)
(0.0859699 0.000406377 0)
(0.0857589 0.000291097 0)
(0.0855612 0.000181089 0)
(0.0853763 7.63136e-05 0)
(0.0852036 -2.32841e-05 0)
(0.0850427 -0.000117773 0)
(0.0848929 -0.000207232 0)
(0.0847536 -0.000291754 0)
(0.0846244 -0.000371437 0)
(0.0845046 -0.000446393 0)
(0.0843936 -0.000516735 0)
(0.084291 -0.000582591 0)
(0.0841962 -0.000644082 0)
(0.0841086 -0.000701354 0)
(0.0840278 -0.000754527 0)
(0.0839533 -0.000803769 0)
(0.0838845 -0.000849187 0)
(0.0838212 -0.000890987 0)
(0.0837626 -0.000929229 0)