/*--------------------------------*- C++ -*----------------------------------*\
| =========                 |                                                 |
| \\      /  F ield         | OpenFOAM: The Open Source CFD Toolbox           |
|  \\    /   O peration     | Version:  4.1                                   |
|   \\  /    A nd           | Web:      www.OpenFOAM.org                      |
|    \\/     M anipulation  |                                                 |
\*---------------------------------------------------------------------------*/
FoamFile
{
    version     2.0;
    format      ascii;
    class       volScalarField;
    location    "358";
    object      p;
}
// * * * * * * * * * * * * * * * * * * * * * * * * * * * * * * * * * * * * * //

dimensions      [1 -1 -2 0 0 0 0];

internalField   nonuniform List<scalar> 
3264
(
0.712478
0.712476
0.712475
0.712474
0.712474
0.712475
0.712476
0.712478
0.71248
0.712484
0.712488
0.712493
0.712499
0.712507
0.712515
0.712524
0.712534
0.712545
0.712557
0.712571
0.712586
0.712601
0.712619
0.712637
0.712657
0.712679
0.712702
0.712728
0.712755
0.712785
0.712817
0.712852
0.712889
0.71293
0.712973
0.713019
0.713069
0.713121
0.713177
0.713235
0.713296
0.71336
0.713426
0.713494
0.713563
0.713633
0.713704
0.713774
0.713845
0.713914
0.713982
0.714047
0.71411
0.71417
0.714226
0.714279
0.714328
0.714372
0.714412
0.714447
0.714478
0.714504
0.714527
0.714545
0.71456
0.714571
0.714579
0.714585
0.714588
0.714589
0.714589
0.714588
0.714586
0.714583
0.714581
0.714578
0.714575
0.714573
0.714571
0.71457
0.714569
0.714569
0.71457
0.714571
0.714573
0.714575
0.714578
0.714582
0.714585
0.714589
0.714593
0.714597
0.714602
0.714606
0.71461
0.714614
0.714618
0.714621
0.714625
0.714628
0.714631
0.714633
0.714635
0.714637
0.714639
0.714641
0.714642
0.714643
0.714644
0.714644
0.714645
0.714645
0.714645
0.714646
0.714646
0.714646
0.714646
0.714646
0.714646
0.714645
0.714645
0.714646
0.714646
0.714646
0.714646
0.714647
0.714648
0.714649
0.71465
0.714651
0.714652
0.714654
0.714655
0.714657
0.714659
0.71466
0.714662
0.714664
0.714665
0.714667
0.714668
0.714669
0.714669
0.714669
0.714669
0.714668
0.714667
0.714665
0.714663
0.71466
0.714656
0.714652
0.714647
0.714642
0.714636
0.71463
0.714623
0.714616
0.714609
0.714601
0.714593
0.714585
0.714577
0.714569
0.71456
0.714552
0.714544
0.714535
0.714527
0.714519
0.714512
0.714504
0.714496
0.714489
0.714482
0.714475
0.714469
0.714462
0.714455
0.714449
0.714442
0.714436
0.714429
0.714423
0.714416
0.714409
0.714402
0.714395
0.714388
0.71438
0.714372
0.714364
0.714356
0.714347
0.714338
0.714329
0.71432
0.714311
0.714301
0.714291
0.712479
0.712478
0.712477
0.712477
0.712477
0.712477
0.712478
0.71248
0.712483
0.712486
0.71249
0.712495
0.712501
0.712508
0.712516
0.712525
0.712536
0.712547
0.712559
0.712572
0.712587
0.712603
0.71262
0.712638
0.712658
0.71268
0.712703
0.712728
0.712756
0.712785
0.712817
0.712851
0.712888
0.712928
0.712971
0.713017
0.713065
0.713117
0.713172
0.71323
0.713291
0.713354
0.71342
0.713487
0.713556
0.713626
0.713696
0.713767
0.713837
0.713906
0.713974
0.714039
0.714102
0.714162
0.714218
0.714271
0.71432
0.714364
0.714404
0.71444
0.714471
0.714497
0.71452
0.714539
0.714554
0.714565
0.714574
0.71458
0.714583
0.714585
0.714586
0.714585
0.714583
0.714581
0.714579
0.714577
0.714574
0.714573
0.714571
0.71457
0.71457
0.714571
0.714572
0.714573
0.714575
0.714578
0.714581
0.714585
0.714588
0.714592
0.714596
0.714601
0.714605
0.714609
0.714613
0.714617
0.71462
0.714624
0.714627
0.71463
0.714633
0.714635
0.714637
0.714639
0.71464
0.714642
0.714643
0.714644
0.714645
0.714645
0.714645
0.714646
0.714646
0.714646
0.714646
0.714646
0.714646
0.714645
0.714645
0.714645
0.714645
0.714645
0.714645
0.714645
0.714646
0.714646
0.714647
0.714647
0.714648
0.714649
0.714651
0.714652
0.714654
0.714655
0.714657
0.714659
0.71466
0.714662
0.714664
0.714665
0.714666
0.714667
0.714668
0.714668
0.714668
0.714667
0.714666
0.714664
0.714662
0.714659
0.714656
0.714652
0.714647
0.714642
0.714636
0.71463
0.714624
0.714617
0.714609
0.714602
0.714594
0.714586
0.714577
0.714569
0.714561
0.714552
0.714544
0.714536
0.714527
0.714519
0.714512
0.714504
0.714496
0.714489
0.714482
0.714475
0.714468
0.714462
0.714455
0.714449
0.714442
0.714436
0.714429
0.714423
0.714416
0.714409
0.714402
0.714395
0.714388
0.71438
0.714372
0.714364
0.714356
0.714347
0.714338
0.714329
0.71432
0.714311
0.714301
0.714291
0.712481
0.712479
0.712477
0.712477
0.712477
0.712477
0.712478
0.712479
0.712482
0.712485
0.712489
0.712494
0.7125
0.712507
0.712515
0.712524
0.712534
0.712546
0.712558
0.712571
0.712586
0.712601
0.712618
0.712637
0.712657
0.712678
0.712701
0.712726
0.712753
0.712782
0.712813
0.712847
0.712884
0.712923
0.712966
0.713011
0.71306
0.713112
0.713166
0.713224
0.713285
0.713348
0.713413
0.71348
0.713549
0.713619
0.713689
0.71376
0.71383
0.713899
0.713966
0.714032
0.714094
0.714154
0.714211
0.714263
0.714312
0.714356
0.714396
0.714431
0.714462
0.714489
0.714511
0.71453
0.714545
0.714556
0.714565
0.714571
0.714575
0.714577
0.714578
0.714577
0.714576
0.714574
0.714572
0.71457
0.714569
0.714567
0.714566
0.714566
0.714566
0.714567
0.714569
0.714571
0.714573
0.714577
0.71458
0.714584
0.714588
0.714593
0.714597
0.714602
0.714606
0.71461
0.714614
0.714618
0.714622
0.714626
0.714629
0.714632
0.714634
0.714637
0.714639
0.71464
0.714642
0.714643
0.714644
0.714645
0.714646
0.714646
0.714646
0.714647
0.714647
0.714647
0.714646
0.714646
0.714646
0.714646
0.714645
0.714645
0.714645
0.714645
0.714645
0.714645
0.714645
0.714646
0.714646
0.714647
0.714648
0.714649
0.71465
0.714651
0.714653
0.714654
0.714656
0.714658
0.714659
0.714661
0.714663
0.714664
0.714665
0.714666
0.714667
0.714667
0.714667
0.714666
0.714665
0.714663
0.714661
0.714658
0.714655
0.714651
0.714646
0.714641
0.714636
0.71463
0.714623
0.714616
0.714609
0.714601
0.714594
0.714586
0.714577
0.714569
0.714561
0.714552
0.714544
0.714536
0.714527
0.714519
0.714512
0.714504
0.714496
0.714489
0.714482
0.714475
0.714468
0.714462
0.714455
0.714449
0.714442
0.714436
0.714429
0.714423
0.714416
0.714409
0.714402
0.714395
0.714388
0.71438
0.714372
0.714364
0.714356
0.714347
0.714339
0.71433
0.71432
0.714311
0.714301
0.714291
0.712475
0.712475
0.712473
0.712474
0.712474
0.712474
0.712475
0.712477
0.712479
0.712483
0.712487
0.712492
0.712498
0.712505
0.712513
0.712522
0.712533
0.712544
0.712556
0.712569
0.712584
0.712599
0.712616
0.712634
0.712654
0.712675
0.712698
0.712722
0.712749
0.712778
0.712809
0.712842
0.712878
0.712917
0.712959
0.713004
0.713053
0.713104
0.713158
0.713216
0.713276
0.713339
0.713404
0.713471
0.713539
0.713608
0.713678
0.713748
0.713818
0.713886
0.713953
0.714018
0.71408
0.714139
0.714194
0.714246
0.714294
0.714337
0.714376
0.714411
0.714441
0.714467
0.714489
0.714508
0.714522
0.714534
0.714542
0.714549
0.714553
0.714555
0.714556
0.714557
0.714556
0.714555
0.714554
0.714553
0.714553
0.714553
0.714553
0.714554
0.714555
0.714557
0.71456
0.714563
0.714566
0.71457
0.714575
0.71458
0.714585
0.71459
0.714595
0.714601
0.714606
0.714611
0.714616
0.71462
0.714624
0.714628
0.714632
0.714635
0.714638
0.71464
0.714642
0.714644
0.714645
0.714647
0.714648
0.714648
0.714649
0.714649
0.714649
0.714649
0.714649
0.714649
0.714648
0.714648
0.714647
0.714647
0.714647
0.714646
0.714646
0.714646
0.714646
0.714646
0.714646
0.714646
0.714646
0.714647
0.714647
0.714648
0.714649
0.714651
0.714652
0.714653
0.714655
0.714657
0.714658
0.71466
0.714661
0.714662
0.714663
0.714664
0.714665
0.714665
0.714665
0.714664
0.714663
0.714661
0.714659
0.714656
0.714653
0.714649
0.714644
0.714639
0.714634
0.714628
0.714622
0.714615
0.714608
0.7146
0.714593
0.714585
0.714577
0.714569
0.71456
0.714552
0.714544
0.714536
0.714528
0.71452
0.714512
0.714504
0.714497
0.71449
0.714482
0.714475
0.714469
0.714462
0.714455
0.714449
0.714442
0.714436
0.714429
0.714423
0.714416
0.714409
0.714402
0.714395
0.714388
0.71438
0.714372
0.714364
0.714356
0.714347
0.714339
0.71433
0.71432
0.714311
0.714301
0.714292
0.712472
0.712472
0.71247
0.71247
0.712469
0.712469
0.71247
0.712472
0.712475
0.712478
0.712483
0.712488
0.712494
0.712502
0.71251
0.712519
0.71253
0.712541
0.712553
0.712567
0.712581
0.712597
0.712613
0.712632
0.712651
0.712672
0.712695
0.712719
0.712745
0.712774
0.712805
0.712838
0.712874
0.712913
0.712955
0.713
0.713048
0.713099
0.713153
0.71321
0.71327
0.713332
0.713397
0.713463
0.713531
0.713599
0.713668
0.713737
0.713806
0.713873
0.713938
0.714001
0.714062
0.714119
0.714173
0.714222
0.714268
0.71431
0.714347
0.71438
0.714408
0.714433
0.714454
0.714471
0.714484
0.714495
0.714504
0.71451
0.714514
0.714517
0.714519
0.71452
0.714521
0.714521
0.714522
0.714522
0.714523
0.714525
0.714526
0.714529
0.714532
0.714536
0.71454
0.714545
0.71455
0.714556
0.714562
0.714568
0.714575
0.714581
0.714588
0.714595
0.714601
0.714607
0.714613
0.714619
0.714624
0.714629
0.714634
0.714638
0.714641
0.714644
0.714647
0.714649
0.714651
0.714652
0.714653
0.714654
0.714654
0.714655
0.714655
0.714654
0.714654
0.714654
0.714653
0.714652
0.714652
0.714651
0.71465
0.71465
0.714649
0.714649
0.714648
0.714648
0.714648
0.714648
0.714648
0.714648
0.714649
0.71465
0.71465
0.714651
0.714652
0.714654
0.714655
0.714656
0.714657
0.714659
0.71466
0.714661
0.714661
0.714662
0.714662
0.714662
0.714662
0.714661
0.714659
0.714657
0.714655
0.714652
0.714649
0.714645
0.71464
0.714635
0.71463
0.714624
0.714618
0.714612
0.714605
0.714598
0.71459
0.714583
0.714575
0.714567
0.714559
0.714552
0.714544
0.714536
0.714528
0.71452
0.714513
0.714505
0.714498
0.714491
0.714484
0.714477
0.71447
0.714463
0.714457
0.71445
0.714443
0.714437
0.71443
0.714423
0.714417
0.71441
0.714403
0.714395
0.714388
0.71438
0.714372
0.714364
0.714356
0.714347
0.714338
0.714329
0.71432
0.714311
0.714301
0.714292
0.71244
0.712455
0.712455
0.712461
0.712462
0.712464
0.712466
0.712469
0.712472
0.712476
0.71248
0.712486
0.712492
0.7125
0.712508
0.712518
0.712528
0.712539
0.712552
0.712565
0.71258
0.712595
0.712612
0.71263
0.71265
0.712671
0.712693
0.712718
0.712744
0.712773
0.712803
0.712837
0.712873
0.712912
0.712954
0.712999
0.713047
0.713098
0.713152
0.713209
0.713268
0.71333
0.713394
0.713459
0.713525
0.713593
0.71366
0.713727
0.713793
0.713858
0.713921
0.713981
0.714039
0.714093
0.714143
0.71419
0.714232
0.714271
0.714305
0.714335
0.714361
0.714383
0.714401
0.714417
0.714429
0.714439
0.714447
0.714453
0.714458
0.714461
0.714464
0.714467
0.714469
0.714471
0.714474
0.714477
0.71448
0.714484
0.714488
0.714493
0.714498
0.714504
0.71451
0.714517
0.714525
0.714533
0.714541
0.714549
0.714558
0.714566
0.714575
0.714583
0.714592
0.7146
0.714608
0.714615
0.714622
0.714628
0.714634
0.71464
0.714645
0.714649
0.714653
0.714656
0.714658
0.714661
0.714662
0.714663
0.714664
0.714664
0.714665
0.714664
0.714664
0.714663
0.714663
0.714662
0.714661
0.71466
0.714659
0.714658
0.714657
0.714656
0.714655
0.714654
0.714654
0.714654
0.714653
0.714653
0.714653
0.714653
0.714654
0.714654
0.714655
0.714655
0.714656
0.714657
0.714658
0.714658
0.714659
0.714659
0.714659
0.714659
0.714659
0.714658
0.714657
0.714656
0.714654
0.714652
0.714649
0.714646
0.714642
0.714638
0.714634
0.714629
0.714624
0.714618
0.714612
0.714606
0.7146
0.714593
0.714586
0.714579
0.714572
0.714565
0.714558
0.71455
0.714543
0.714536
0.714528
0.714521
0.714514
0.714507
0.714499
0.714492
0.714486
0.714479
0.714472
0.714465
0.714458
0.714452
0.714445
0.714438
0.714432
0.714425
0.714418
0.71441
0.714403
0.714396
0.714388
0.71438
0.714372
0.714364
0.714355
0.714347
0.714338
0.714329
0.71432
0.71431
0.714301
0.714292
0.71244
0.712456
0.712455
0.712458
0.712458
0.712461
0.712463
0.712466
0.71247
0.712474
0.712479
0.712485
0.712492
0.712499
0.712508
0.712517
0.712528
0.712539
0.712552
0.712565
0.71258
0.712596
0.712613
0.712631
0.712651
0.712672
0.712695
0.71272
0.712747
0.712776
0.712808
0.712842
0.712878
0.712918
0.71296
0.713006
0.713054
0.713105
0.713159
0.713216
0.713275
0.713336
0.713398
0.713462
0.713527
0.713592
0.713657
0.713722
0.713785
0.713846
0.713905
0.713961
0.714014
0.714064
0.71411
0.714152
0.71419
0.714223
0.714253
0.714279
0.714302
0.71432
0.714336
0.71435
0.714361
0.71437
0.714377
0.714383
0.714389
0.714393
0.714398
0.714402
0.714407
0.714411
0.714416
0.714422
0.714428
0.714434
0.714441
0.714449
0.714457
0.714466
0.714475
0.714484
0.714494
0.714504
0.714515
0.714525
0.714536
0.714547
0.714558
0.714568
0.714579
0.714589
0.714599
0.714608
0.714617
0.714626
0.714634
0.714641
0.714648
0.714654
0.714659
0.714664
0.714668
0.714671
0.714674
0.714676
0.714677
0.714678
0.714679
0.714679
0.714679
0.714678
0.714677
0.714676
0.714675
0.714674
0.714673
0.714671
0.71467
0.714668
0.714667
0.714666
0.714665
0.714664
0.714663
0.714662
0.714661
0.714661
0.714661
0.71466
0.71466
0.71466
0.71466
0.71466
0.71466
0.714659
0.714659
0.714658
0.714658
0.714657
0.714656
0.714654
0.714652
0.71465
0.714647
0.714644
0.714641
0.714638
0.714634
0.714629
0.714625
0.71462
0.714615
0.714609
0.714604
0.714598
0.714592
0.714586
0.71458
0.714574
0.714568
0.714561
0.714555
0.714548
0.714542
0.714535
0.714528
0.714522
0.714515
0.714508
0.714502
0.714495
0.714488
0.714482
0.714475
0.714468
0.714461
0.714455
0.714448
0.714441
0.714434
0.714426
0.714419
0.714412
0.714404
0.714396
0.714388
0.71438
0.714372
0.714364
0.714355
0.714346
0.714338
0.714328
0.714319
0.71431
0.714301
0.714291
0.712285
0.712424
0.712441
0.712462
0.712465
0.712468
0.71247
0.712472
0.712475
0.712479
0.712483
0.712489
0.712495
0.712503
0.712511
0.712521
0.712532
0.712543
0.712556
0.71257
0.712585
0.712601
0.712619
0.712638
0.712658
0.712681
0.712705
0.71273
0.712758
0.712789
0.712821
0.712856
0.712894
0.712935
0.712978
0.713024
0.713073
0.713125
0.713179
0.713235
0.713293
0.713353
0.713415
0.713477
0.713539
0.713601
0.713663
0.713723
0.713782
0.713838
0.713892
0.713943
0.71399
0.714034
0.714074
0.71411
0.714142
0.714171
0.714195
0.714217
0.714235
0.714251
0.714264
0.714276
0.714286
0.714294
0.714302
0.714309
0.714316
0.714322
0.714329
0.714336
0.714343
0.714351
0.714359
0.714367
0.714376
0.714386
0.714396
0.714406
0.714417
0.714428
0.71444
0.714452
0.714464
0.714476
0.714489
0.714502
0.714514
0.714527
0.71454
0.714553
0.714565
0.714577
0.714589
0.714601
0.714612
0.714622
0.714632
0.714642
0.71465
0.714658
0.714666
0.714672
0.714678
0.714683
0.714687
0.71469
0.714693
0.714695
0.714696
0.714697
0.714698
0.714697
0.714697
0.714696
0.714695
0.714693
0.714692
0.71469
0.714688
0.714686
0.714684
0.714683
0.714681
0.714679
0.714677
0.714676
0.714674
0.714673
0.714671
0.71467
0.714669
0.714667
0.714666
0.714665
0.714664
0.714662
0.71466
0.714659
0.714657
0.714655
0.714652
0.71465
0.714647
0.714643
0.71464
0.714636
0.714632
0.714628
0.714623
0.714619
0.714614
0.714609
0.714604
0.714599
0.714594
0.714589
0.714583
0.714578
0.714573
0.714567
0.714562
0.714556
0.714551
0.714545
0.71454
0.714534
0.714528
0.714522
0.714516
0.71451
0.714504
0.714498
0.714491
0.714485
0.714478
0.714472
0.714465
0.714458
0.714451
0.714444
0.714436
0.714429
0.714421
0.714413
0.714405
0.714397
0.714389
0.714381
0.714372
0.714364
0.714355
0.714346
0.714337
0.714328
0.714319
0.714309
0.7143
0.714291
0.713011
0.712955
0.712893
0.712826
0.712753
0.712675
0.712589
0.71247
0.713017
0.712971
0.712908
0.712839
0.712766
0.712688
0.712598
0.712501
0.713021
0.712982
0.712925
0.712859
0.71279
0.712718
0.712648
0.712578
0.713031
0.712997
0.712945
0.712884
0.712819
0.712755
0.712692
0.712634
0.713044
0.713012
0.712963
0.712906
0.712847
0.71279
0.712736
0.712688
0.713058
0.713025
0.712977
0.712923
0.712869
0.712817
0.712769
0.712727
0.713073
0.713036
0.712986
0.712934
0.712882
0.712834
0.71279
0.71275
0.713081
0.713034
0.712984
0.712934
0.712885
0.712839
0.712797
0.712757
0.712409
0.71243
0.71245
0.712461
0.712467
0.71247
0.712473
0.712475
0.712478
0.712482
0.712487
0.712493
0.7125
0.712508
0.712517
0.712527
0.712538
0.712551
0.712564
0.712579
0.712595
0.712613
0.712631
0.712652
0.712674
0.712698
0.712723
0.712751
0.712781
0.712813
0.712848
0.712885
0.712924
0.712967
0.713012
0.713059
0.713109
0.713161
0.713215
0.713271
0.713329
0.713387
0.713446
0.713506
0.713565
0.713623
0.71368
0.713735
0.713788
0.713838
0.713885
0.713929
0.713969
0.714006
0.714039
0.714069
0.714095
0.714117
0.714137
0.714155
0.71417
0.714183
0.714195
0.714205
0.714215
0.714225
0.714234
0.714242
0.714251
0.714261
0.71427
0.71428
0.71429
0.7143
0.714311
0.714323
0.714334
0.714346
0.714359
0.714371
0.714384
0.714398
0.714411
0.714425
0.714439
0.714453
0.714468
0.714482
0.714497
0.714511
0.714526
0.71454
0.714554
0.714568
0.714582
0.714595
0.714608
0.71462
0.714632
0.714643
0.714654
0.714664
0.714673
0.714681
0.714688
0.714695
0.714701
0.714706
0.71471
0.714713
0.714715
0.714717
0.714718
0.714719
0.714719
0.714718
0.714717
0.714716
0.714714
0.714712
0.71471
0.714708
0.714705
0.714703
0.7147
0.714698
0.714695
0.714692
0.71469
0.714687
0.714685
0.714682
0.71468
0.714677
0.714675
0.714672
0.714669
0.714666
0.714663
0.71466
0.714656
0.714653
0.714649
0.714645
0.714641
0.714637
0.714632
0.714627
0.714623
0.714618
0.714613
0.714608
0.714603
0.714598
0.714593
0.714588
0.714583
0.714578
0.714574
0.714569
0.714565
0.71456
0.714556
0.714551
0.714547
0.714542
0.714538
0.714533
0.714528
0.714523
0.714518
0.714512
0.714507
0.714501
0.714495
0.714489
0.714482
0.714476
0.714469
0.714462
0.714454
0.714447
0.714439
0.714431
0.714423
0.714415
0.714407
0.714399
0.71439
0.714381
0.714372
0.714364
0.714355
0.714346
0.714336
0.714327
0.714318
0.714309
0.714299
0.71429
0.71243
0.71244
0.712453
0.712466
0.712473
0.712478
0.712482
0.712485
0.712488
0.712492
0.712497
0.712504
0.712511
0.712519
0.712529
0.712539
0.712552
0.712565
0.71258
0.712596
0.712614
0.712633
0.712654
0.712676
0.7127
0.712727
0.712755
0.712785
0.712818
0.712853
0.71289
0.712929
0.712971
0.713016
0.713062
0.713111
0.713162
0.713215
0.713269
0.713324
0.71338
0.713436
0.713492
0.713548
0.713602
0.713655
0.713706
0.713755
0.7138
0.713843
0.713883
0.713919
0.713952
0.713981
0.714007
0.71403
0.714051
0.714069
0.714086
0.7141
0.714114
0.714126
0.714138
0.714149
0.71416
0.714172
0.714183
0.714194
0.714206
0.714217
0.714229
0.714241
0.714254
0.714267
0.71428
0.714293
0.714307
0.71432
0.714334
0.714349
0.714363
0.714378
0.714393
0.714408
0.714423
0.714438
0.714454
0.714469
0.714485
0.714501
0.714516
0.714532
0.714547
0.714563
0.714578
0.714592
0.714607
0.71462
0.714634
0.714646
0.714658
0.71467
0.71468
0.71469
0.714699
0.714707
0.714714
0.714721
0.714726
0.71473
0.714734
0.714737
0.714739
0.71474
0.71474
0.71474
0.71474
0.714739
0.714737
0.714735
0.714732
0.71473
0.714727
0.714724
0.714721
0.714717
0.714714
0.71471
0.714706
0.714703
0.714699
0.714695
0.714691
0.714687
0.714683
0.714679
0.714675
0.71467
0.714666
0.714661
0.714656
0.714651
0.714646
0.714641
0.714635
0.71463
0.714624
0.714619
0.714613
0.714608
0.714602
0.714597
0.714592
0.714587
0.714582
0.714578
0.714573
0.714569
0.714565
0.714561
0.714558
0.714554
0.714551
0.714547
0.714544
0.71454
0.714536
0.714532
0.714528
0.714524
0.714519
0.714515
0.714509
0.714504
0.714498
0.714492
0.714486
0.714479
0.714472
0.714465
0.714458
0.71445
0.714442
0.714434
0.714426
0.714417
0.714409
0.7144
0.714391
0.714382
0.714373
0.714364
0.714355
0.714345
0.714336
0.714327
0.714318
0.714308
0.714299
0.71429
0.712526
0.712502
0.712496
0.712495
0.712497
0.712498
0.712499
0.712501
0.712504
0.712508
0.712513
0.712519
0.712526
0.712535
0.712545
0.712557
0.712571
0.712585
0.712602
0.71262
0.71264
0.712661
0.712684
0.71271
0.712737
0.712766
0.712797
0.712831
0.712866
0.712904
0.712944
0.712987
0.713031
0.713078
0.713126
0.713176
0.713228
0.71328
0.713333
0.713387
0.71344
0.713493
0.713545
0.713595
0.713644
0.713691
0.713735
0.713776
0.713814
0.713848
0.71388
0.713909
0.713935
0.713958
0.713979
0.713998
0.714016
0.714032
0.714047
0.714062
0.714075
0.714089
0.714102
0.714115
0.714128
0.714141
0.714154
0.714167
0.714181
0.714194
0.714208
0.714221
0.714235
0.714249
0.714263
0.714278
0.714292
0.714307
0.714322
0.714337
0.714352
0.714368
0.714383
0.714399
0.714415
0.714431
0.714447
0.714463
0.714479
0.714496
0.714512
0.714528
0.714545
0.714561
0.714577
0.714592
0.714608
0.714622
0.714637
0.714651
0.714664
0.714676
0.714688
0.714699
0.714709
0.714718
0.714727
0.714734
0.71474
0.714746
0.71475
0.714754
0.714757
0.714758
0.714759
0.71476
0.714759
0.714758
0.714757
0.714755
0.714752
0.714749
0.714746
0.714742
0.714739
0.714734
0.71473
0.714726
0.714721
0.714716
0.714712
0.714707
0.714701
0.714696
0.714691
0.714685
0.71468
0.714674
0.714668
0.714662
0.714656
0.71465
0.714643
0.714637
0.714631
0.714624
0.714618
0.714612
0.714606
0.7146
0.714594
0.714589
0.714583
0.714578
0.714574
0.71457
0.714566
0.714562
0.714559
0.714555
0.714552
0.714549
0.714547
0.714544
0.714541
0.714538
0.714535
0.714532
0.714529
0.714525
0.714521
0.714517
0.714512
0.714507
0.714501
0.714496
0.714489
0.714483
0.714476
0.714468
0.714461
0.714453
0.714445
0.714436
0.714428
0.714419
0.71441
0.714401
0.714392
0.714382
0.714373
0.714364
0.714354
0.714345
0.714336
0.714326
0.714317
0.714308
0.714299
0.71429
0.712588
0.71256
0.712545
0.712537
0.712532
0.712529
0.712528
0.712527
0.712528
0.71253
0.712534
0.71254
0.712547
0.712556
0.712567
0.712579
0.712593
0.71261
0.712628
0.712647
0.712669
0.712693
0.712719
0.712747
0.712777
0.712809
0.712843
0.71288
0.712918
0.712959
0.713002
0.713047
0.713093
0.713141
0.713191
0.713241
0.713292
0.713343
0.713395
0.713445
0.713495
0.713543
0.71359
0.713635
0.713677
0.713717
0.713754
0.713788
0.713819
0.713847
0.713874
0.713898
0.71392
0.71394
0.713959
0.713977
0.713994
0.71401
0.714025
0.714041
0.714055
0.71407
0.714085
0.714099
0.714114
0.714128
0.714142
0.714156
0.714171
0.714185
0.714199
0.714213
0.714228
0.714242
0.714257
0.714272
0.714287
0.714302
0.714317
0.714332
0.714348
0.714364
0.71438
0.714396
0.714412
0.714428
0.714445
0.714461
0.714478
0.714495
0.714512
0.714528
0.714545
0.714562
0.714578
0.714594
0.71461
0.714626
0.714641
0.714656
0.714669
0.714683
0.714695
0.714707
0.714718
0.714728
0.714737
0.714745
0.714752
0.714758
0.714763
0.714767
0.714771
0.714773
0.714774
0.714775
0.714775
0.714774
0.714772
0.71477
0.714767
0.714764
0.714761
0.714757
0.714752
0.714748
0.714743
0.714737
0.714732
0.714726
0.714721
0.714715
0.714709
0.714702
0.714696
0.714689
0.714683
0.714676
0.714669
0.714662
0.714655
0.714648
0.714641
0.714633
0.714626
0.71462
0.714613
0.714606
0.7146
0.714594
0.714588
0.714583
0.714577
0.714573
0.714568
0.714564
0.714561
0.714557
0.714554
0.714552
0.714549
0.714547
0.714545
0.714542
0.71454
0.714538
0.714535
0.714532
0.714529
0.714526
0.714523
0.714518
0.714514
0.714509
0.714504
0.714498
0.714492
0.714485
0.714478
0.714471
0.714463
0.714455
0.714446
0.714438
0.714429
0.71442
0.714411
0.714402
0.714392
0.714383
0.714373
0.714364
0.714354
0.714345
0.714336
0.714326
0.714317
0.714308
0.714299
0.71429
0.712648
0.712619
0.712599
0.712585
0.712574
0.712566
0.71256
0.712556
0.712554
0.712554
0.712556
0.712561
0.712567
0.712576
0.712587
0.7126
0.712615
0.712632
0.712652
0.712673
0.712697
0.712722
0.71275
0.712781
0.712813
0.712847
0.712884
0.712923
0.712964
0.713007
0.713051
0.713097
0.713145
0.713193
0.713242
0.713292
0.713341
0.71339
0.713439
0.713485
0.713531
0.713575
0.713617
0.713656
0.713693
0.713728
0.71376
0.71379
0.713817
0.713842
0.713865
0.713887
0.713908
0.713927
0.713946
0.713965
0.713983
0.714
0.714017
0.714033
0.714049
0.714065
0.71408
0.714095
0.71411
0.714124
0.714139
0.714153
0.714168
0.714182
0.714196
0.714211
0.714226
0.71424
0.714255
0.71427
0.714285
0.714301
0.714316
0.714331
0.714347
0.714363
0.714379
0.714395
0.714412
0.714428
0.714445
0.714462
0.714479
0.714496
0.714513
0.71453
0.714547
0.714564
0.714581
0.714597
0.714614
0.714629
0.714645
0.71466
0.714674
0.714688
0.714701
0.714713
0.714724
0.714735
0.714744
0.714753
0.71476
0.714767
0.714772
0.714777
0.71478
0.714783
0.714784
0.714785
0.714785
0.714784
0.714782
0.71478
0.714777
0.714774
0.71477
0.714766
0.714761
0.714756
0.71475
0.714745
0.714739
0.714732
0.714726
0.714719
0.714712
0.714705
0.714698
0.714691
0.714684
0.714676
0.714669
0.714661
0.714653
0.714646
0.714638
0.714631
0.714624
0.714617
0.71461
0.714603
0.714597
0.71459
0.714585
0.714579
0.714574
0.71457
0.714566
0.714562
0.714558
0.714555
0.714553
0.71455
0.714548
0.714546
0.714544
0.714542
0.71454
0.714538
0.714535
0.714533
0.71453
0.714527
0.714524
0.71452
0.714515
0.714511
0.714505
0.7145
0.714493
0.714487
0.71448
0.714472
0.714464
0.714456
0.714448
0.714439
0.71443
0.714421
0.714411
0.714402
0.714392
0.714383
0.714373
0.714364
0.714354
0.714345
0.714335
0.714326
0.714317
0.714308
0.714299
0.71429
0.71269
0.712661
0.712638
0.712619
0.712604
0.712592
0.712582
0.712575
0.712571
0.712569
0.71257
0.712574
0.71258
0.712588
0.7126
0.712613
0.712629
0.712647
0.712667
0.71269
0.712715
0.712742
0.712771
0.712803
0.712836
0.712872
0.71291
0.71295
0.712992
0.713035
0.71308
0.713127
0.713174
0.713222
0.71327
0.713318
0.713365
0.713412
0.713457
0.713501
0.713543
0.713583
0.713621
0.713657
0.713691
0.713723
0.713752
0.71378
0.713807
0.713832
0.713856
0.71388
0.713902
0.713923
0.713943
0.713962
0.71398
0.713998
0.714015
0.714031
0.714047
0.714062
0.714078
0.714093
0.714108
0.714123
0.714138
0.714152
0.714167
0.714181
0.714196
0.714211
0.714226
0.71424
0.714255
0.71427
0.714286
0.714301
0.714317
0.714332
0.714348
0.714364
0.71438
0.714397
0.714413
0.71443
0.714447
0.714464
0.714481
0.714498
0.714515
0.714532
0.71455
0.714567
0.714584
0.7146
0.714617
0.714633
0.714649
0.714664
0.714678
0.714692
0.714705
0.714718
0.714729
0.71474
0.714749
0.714758
0.714766
0.714772
0.714778
0.714782
0.714786
0.714789
0.71479
0.714791
0.714791
0.71479
0.714788
0.714786
0.714782
0.714779
0.714775
0.71477
0.714765
0.714759
0.714754
0.714748
0.714741
0.714735
0.714728
0.714721
0.714713
0.714706
0.714699
0.714691
0.714683
0.714675
0.714668
0.71466
0.714652
0.714644
0.714637
0.714629
0.714622
0.714615
0.714608
0.714601
0.714595
0.714589
0.714584
0.714578
0.714573
0.714569
0.714565
0.714561
0.714558
0.714555
0.714552
0.71455
0.714548
0.714546
0.714544
0.714542
0.71454
0.714538
0.714536
0.714534
0.714531
0.714528
0.714524
0.714521
0.714516
0.714511
0.714506
0.7145
0.714494
0.714487
0.71448
0.714473
0.714465
0.714456
0.714448
0.714439
0.71443
0.714421
0.714411
0.714402
0.714392
0.714383
0.714373
0.714364
0.714354
0.714345
0.714335
0.714326
0.714317
0.714308
0.714299
0.71429
0.712715
0.712685
0.71266
0.712638
0.71262
0.712604
0.712593
0.712584
0.712578
0.712576
0.712576
0.71258
0.712586
0.712595
0.712606
0.71262
0.712636
0.712654
0.712675
0.712698
0.712724
0.712751
0.712781
0.712813
0.712847
0.712884
0.712922
0.712962
0.713004
0.713047
0.713091
0.713137
0.713183
0.713229
0.713276
0.713322
0.713367
0.713411
0.713454
0.713496
0.713537
0.713576
0.713614
0.713651
0.713685
0.713718
0.713749
0.713778
0.713806
0.713831
0.713855
0.713878
0.7139
0.713921
0.713941
0.71396
0.713978
0.713996
0.714013
0.71403
0.714046
0.714062
0.714077
0.714093
0.714108
0.714123
0.714137
0.714152
0.714167
0.714182
0.714196
0.714211
0.714226
0.714241
0.714256
0.714271
0.714286
0.714302
0.714317
0.714333
0.714349
0.714365
0.714381
0.714398
0.714414
0.714431
0.714448
0.714465
0.714482
0.714499
0.714517
0.714534
0.714551
0.714569
0.714586
0.714602
0.714619
0.714635
0.714651
0.714666
0.714681
0.714695
0.714708
0.71472
0.714732
0.714742
0.714752
0.714761
0.714768
0.714775
0.71478
0.714785
0.714788
0.714791
0.714792
0.714793
0.714793
0.714792
0.71479
0.714787
0.714784
0.71478
0.714776
0.714771
0.714766
0.71476
0.714754
0.714748
0.714742
0.714735
0.714728
0.714721
0.714713
0.714706
0.714698
0.71469
0.714683
0.714675
0.714667
0.714659
0.714651
0.714644
0.714636
0.714629
0.714622
0.714614
0.714608
0.714601
0.714595
0.714589
0.714583
0.714578
0.714573
0.714569
0.714565
0.714561
0.714558
0.714555
0.714553
0.71455
0.714548
0.714546
0.714544
0.714543
0.714541
0.714539
0.714536
0.714534
0.714531
0.714528
0.714525
0.714521
0.714516
0.714512
0.714506
0.7145
0.714494
0.714487
0.71448
0.714473
0.714465
0.714456
0.714448
0.714439
0.71443
0.714421
0.714411
0.714402
0.714392
0.714383
0.714373
0.714364
0.714354
0.714345
0.714336
0.714326
0.714317
0.714308
0.714299
0.71429
0.712722
0.71269
0.712662
0.712638
0.712618
0.712601
0.712589
0.712579
0.712574
0.712571
0.712572
0.712575
0.712581
0.71259
0.712601
0.712615
0.712631
0.71265
0.712671
0.712694
0.712719
0.712747
0.712776
0.712808
0.712842
0.712878
0.712915
0.712955
0.712996
0.713038
0.713082
0.713127
0.713173
0.713219
0.713266
0.713312
0.713358
0.713403
0.713447
0.71349
0.713531
0.713571
0.71361
0.713646
0.713681
0.713713
0.713744
0.713773
0.713801
0.713827
0.713852
0.713875
0.713898
0.713919
0.713939
0.713959
0.713977
0.713995
0.714012
0.714029
0.714045
0.714061
0.714077
0.714092
0.714107
0.714123
0.714137
0.714152
0.714167
0.714182
0.714197
0.714211
0.714226
0.714241
0.714256
0.714272
0.714287
0.714303
0.714318
0.714334
0.71435
0.714366
0.714383
0.714399
0.714416
0.714433
0.71445
0.714467
0.714484
0.714502
0.714519
0.714537
0.714554
0.714572
0.714589
0.714606
0.714622
0.714638
0.714654
0.714669
0.714684
0.714698
0.714711
0.714723
0.714735
0.714746
0.714755
0.714764
0.714771
0.714778
0.714783
0.714787
0.714791
0.714793
0.714794
0.714795
0.714794
0.714793
0.714791
0.714788
0.714785
0.714781
0.714776
0.714771
0.714766
0.71476
0.714754
0.714747
0.714741
0.714734
0.714727
0.714719
0.714712
0.714704
0.714697
0.714689
0.714681
0.714674
0.714666
0.714658
0.71465
0.714643
0.714635
0.714628
0.714621
0.714614
0.714607
0.714601
0.714595
0.714589
0.714584
0.714579
0.714574
0.71457
0.714566
0.714562
0.714559
0.714556
0.714554
0.714551
0.714549
0.714547
0.714545
0.714544
0.714542
0.71454
0.714537
0.714535
0.714532
0.714529
0.714525
0.714521
0.714517
0.714512
0.714507
0.714501
0.714494
0.714488
0.71448
0.714473
0.714465
0.714456
0.714448
0.714439
0.71443
0.714421
0.714411
0.714402
0.714392
0.714383
0.714373
0.714364
0.714354
0.714345
0.714336
0.714326
0.714317
0.714308
0.714299
0.71429
)
;

boundaryField
{
    inlet
    {
        type            zeroGradient;
    }
    outlet
    {