/*--------------------------------*- C++ -*----------------------------------*\
| =========                 |                                                 |
| \\      /  F ield         | OpenFOAM: The Open Source CFD Toolbox           |
|  \\    /   O peration     | Version:  4.1                                   |
|   \\  /    A nd           | Web:      www.OpenFOAM.org                      |
|    \\/     M anipulation  |                                                 |
\*---------------------------------------------------------------------------*/
FoamFile
{
    version     2.0;
    format      ascii;
    class       volScalarField;
    location    "231";
    object      p;
}
// * * * * * * * * * * * * * * * * * * * * * * * * * * * * * * * * * * * * * //

dimensions      [1 -1 -2 0 0 0 0];

internalField   nonuniform List<scalar> 
3264
(
0.712543
0.712541
0.71254
0.71254
0.71254
0.71254
0.712541
0.712542
0.712544
0.712546
0.712549
0.712553
0.712557
0.712562
0.712568
0.712575
0.712583
0.712592
0.712603
0.712615
0.712629
0.712646
0.712666
0.712688
0.712714
0.712744
0.712779
0.712818
0.712862
0.712911
0.712965
0.713025
0.713089
0.713159
0.713234
0.713312
0.713395
0.713481
0.713569
0.713659
0.713749
0.71384
0.713929
0.714017
0.714101
0.714182
0.714258
0.714329
0.714394
0.714453
0.714505
0.714551
0.71459
0.714623
0.714649
0.714669
0.714684
0.714694
0.7147
0.714703
0.714703
0.714701
0.714697
0.714692
0.714687
0.714682
0.714678
0.714674
0.71467
0.714668
0.714666
0.714665
0.714665
0.714665
0.714665
0.714666
0.714666
0.714667
0.714667
0.714668
0.714668
0.714668
0.714668
0.714668
0.714668
0.714668
0.714667
0.714667
0.714668
0.714669
0.71467
0.714672
0.714676
0.714681
0.714687
0.714695
0.714705
0.714716
0.71473
0.714745
0.714761
0.71478
0.714799
0.71482
0.714841
0.714863
0.714885
0.714906
0.714928
0.714948
0.714967
0.714985
0.715001
0.715015
0.715027
0.715037
0.715045
0.71505
0.715054
0.715055
0.715055
0.715052
0.715048
0.715043
0.715036
0.715028
0.715019
0.715009
0.714999
0.714988
0.714977
0.714966
0.714955
0.714944
0.714933
0.714923
0.714913
0.714902
0.714893
0.714883
0.714873
0.714864
0.714855
0.714845
0.714836
0.714827
0.714818
0.714809
0.714799
0.71479
0.71478
0.714771
0.714761
0.714751
0.714741
0.714731
0.714721
0.714711
0.714701
0.714691
0.714681
0.714671
0.714661
0.714651
0.714641
0.714631
0.714621
0.714611
0.714601
0.714591
0.714581
0.714571
0.714561
0.714551
0.714541
0.714531
0.714521
0.714511
0.714501
0.714491
0.714481
0.714471
0.714461
0.714451
0.714441
0.714431
0.714421
0.714411
0.714401
0.714391
0.714381
0.714371
0.714361
0.714351
0.714341
0.714331
0.714321
0.714311
0.714301
0.714291
0.712544
0.712543
0.712542
0.712542
0.712542
0.712542
0.712543
0.712544
0.712546
0.712549
0.712552
0.712556
0.71256
0.712565
0.712571
0.712578
0.712586
0.712595
0.712606
0.712618
0.712632
0.712648
0.712667
0.712689
0.712714
0.712744
0.712777
0.712815
0.712858
0.712906
0.71296
0.713018
0.713082
0.713151
0.713225
0.713304
0.713386
0.713471
0.713559
0.713648
0.713739
0.713829
0.713918
0.714006
0.71409
0.714171
0.714247
0.714318
0.714384
0.714443
0.714496
0.714542
0.714581
0.714614
0.71464
0.714661
0.714677
0.714687
0.714694
0.714698
0.714698
0.714697
0.714694
0.714691
0.714687
0.714683
0.71468
0.714677
0.714674
0.714672
0.714671
0.71467
0.71467
0.714669
0.71467
0.71467
0.71467
0.714671
0.714671
0.714671
0.714671
0.714671
0.714671
0.714671
0.71467
0.71467
0.714669
0.714669
0.714669
0.714669
0.71467
0.714672
0.714675
0.71468
0.714686
0.714693
0.714703
0.714714
0.714727
0.714742
0.714758
0.714776
0.714796
0.714816
0.714837
0.714859
0.714881
0.714903
0.714924
0.714944
0.714964
0.714982
0.714998
0.715012
0.715025
0.715035
0.715043
0.715049
0.715053
0.715055
0.715055
0.715053
0.715049
0.715043
0.715036
0.715028
0.715019
0.71501
0.714999
0.714989
0.714978
0.714967
0.714955
0.714944
0.714934
0.714923
0.714913
0.714902
0.714892
0.714883
0.714873
0.714864
0.714855
0.714845
0.714836
0.714827
0.714818
0.714809
0.714799
0.71479
0.71478
0.714771
0.714761
0.714751
0.714741
0.714731
0.714721
0.714711
0.714701
0.714691
0.714681
0.714671
0.714661
0.714651
0.714641
0.714631
0.714621
0.714611
0.714601
0.714591
0.714581
0.714571
0.714561
0.714551
0.714541
0.714531
0.714521
0.714511
0.714501
0.714491
0.714481
0.714471
0.714461
0.714451
0.714441
0.714431
0.714421
0.714411
0.714401
0.714391
0.714381
0.714371
0.714361
0.714351
0.714341
0.714331
0.714321
0.714311
0.714301
0.714291
0.712546
0.712544
0.712543
0.712542
0.712542
0.712542
0.712543
0.712544
0.712546
0.712548
0.712551
0.712555
0.71256
0.712565
0.712571
0.712577
0.712585
0.712594
0.712604
0.712616
0.712629
0.712645
0.712663
0.712684
0.712709
0.712737
0.71277
0.712808
0.71285
0.712898
0.712951
0.713009
0.713073
0.713141
0.713215
0.713293
0.713375
0.71346
0.713548
0.713637
0.713727
0.713818
0.713907
0.713994
0.714078
0.714159
0.714235
0.714306
0.714371
0.71443
0.714482
0.714528
0.714567
0.7146
0.714626
0.714647
0.714662
0.714673
0.71468
0.714683
0.714684
0.714683
0.714681
0.714678
0.714675
0.714672
0.714669
0.714668
0.714666
0.714666
0.714666
0.714667
0.714668
0.714669
0.71467
0.714671
0.714672
0.714673
0.714673
0.714673
0.714673
0.714673
0.714672
0.714672
0.714671
0.714671
0.71467
0.71467
0.714669
0.71467
0.71467
0.714672
0.714675
0.714679
0.714685
0.714692
0.714701
0.714712
0.714725
0.714739
0.714756
0.714774
0.714793
0.714813
0.714835
0.714856
0.714878
0.7149
0.714922
0.714942
0.714962
0.71498
0.714996
0.715011
0.715023
0.715034
0.715042
0.715048
0.715053
0.715054
0.715054
0.715052
0.715049
0.715043
0.715037
0.715029
0.71502
0.71501
0.715
0.714989
0.714978
0.714967
0.714956
0.714945
0.714934
0.714923
0.714913
0.714902
0.714892
0.714883
0.714873
0.714864
0.714855
0.714845
0.714836
0.714827
0.714818
0.714809
0.714799
0.71479
0.71478
0.714771
0.714761
0.714751
0.714741
0.714731
0.714721
0.714711
0.714701
0.714691
0.714681
0.714671
0.714661
0.714651
0.714641
0.714631
0.714621
0.714611
0.714601
0.714591
0.714581
0.714571
0.714561
0.714551
0.714541
0.714531
0.714521
0.714511
0.714501
0.714491
0.714481
0.714471
0.714461
0.714451
0.714441
0.714431
0.714421
0.714411
0.714401
0.714391
0.714381
0.714371
0.714361
0.714351
0.714341
0.714331
0.714321
0.714311
0.714301
0.714291
0.71254
0.71254
0.712539
0.71254
0.712539
0.71254
0.712541
0.712542
0.712544
0.712547
0.71255
0.712554
0.712558
0.712563
0.712569
0.712576
0.712583
0.712592
0.712601
0.712613
0.712625
0.71264
0.712658
0.712678
0.712702
0.71273
0.712762
0.712799
0.71284
0.712887
0.71294
0.712997
0.713061
0.713129
0.713202
0.713279
0.713361
0.713445
0.713532
0.713621
0.71371
0.7138
0.713888
0.713974
0.714057
0.714136
0.71421
0.71428
0.714343
0.714401
0.714452
0.714496
0.714534
0.714565
0.71459
0.71461
0.714625
0.714635
0.714641
0.714645
0.714646
0.714646
0.714645
0.714643
0.714641
0.71464
0.71464
0.71464
0.714641
0.714643
0.714646
0.714649
0.714653
0.714657
0.714662
0.714665
0.714669
0.714672
0.714674
0.714676
0.714677
0.714677
0.714677
0.714676
0.714675
0.714674
0.714673
0.714672
0.714672
0.714671
0.714672
0.714673
0.714676
0.71468
0.714685
0.714692
0.7147
0.714711
0.714723
0.714738
0.714754
0.714771
0.714791
0.714811
0.714832
0.714853
0.714875
0.714897
0.714918
0.714939
0.714958
0.714976
0.714992
0.715007
0.71502
0.71503
0.715039
0.715045
0.715049
0.715051
0.715051
0.71505
0.715046
0.715041
0.715035
0.715027
0.715019
0.715009
0.714999
0.714989
0.714978
0.714967
0.714956
0.714945
0.714934
0.714923
0.714913
0.714903
0.714893
0.714883
0.714874
0.714864
0.714855
0.714846
0.714836
0.714827
0.714818
0.714809
0.714799
0.71479
0.71478
0.714771
0.714761
0.714751
0.714741
0.714731
0.714721
0.714711
0.714701
0.714691
0.714681
0.714671
0.714661
0.714651
0.714641
0.714631
0.714621
0.714611
0.714601
0.714591
0.714581
0.714571
0.714561
0.714551
0.714541
0.714531
0.714521
0.714511
0.714501
0.714491
0.714481
0.714471
0.714461
0.714451
0.714441
0.714431
0.714421
0.714411
0.714401
0.714391
0.714381
0.714371
0.714361
0.714351
0.714341
0.714331
0.714321
0.714311
0.714301
0.714291
0.712538
0.712538
0.712535
0.712536
0.712534
0.712535
0.712536
0.712538
0.71254
0.712543
0.712546
0.712551
0.712555
0.712561
0.712567
0.712573
0.712581
0.712589
0.712598
0.712609
0.712621
0.712636
0.712653
0.712673
0.712697
0.712724
0.712756
0.712792
0.712833
0.71288
0.712932
0.71299
0.713052
0.71312
0.713193
0.713269
0.71335
0.713433
0.713519
0.713606
0.713694
0.713781
0.713867
0.71395
0.71403
0.714107
0.714178
0.714244
0.714304
0.714358
0.714406
0.714446
0.714481
0.714509
0.714532
0.714549
0.714561
0.71457
0.714575
0.714578
0.714579
0.714579
0.714579
0.714578
0.714578
0.714579
0.714581
0.714584
0.714589
0.714594
0.714601
0.714609
0.714617
0.714626
0.714635
0.714644
0.714652
0.71466
0.714666
0.714672
0.714676
0.714679
0.714681
0.714683
0.714683
0.714683
0.714682
0.714681
0.71468
0.714679
0.714679
0.71468
0.714682
0.714685
0.71469
0.714696
0.714705
0.714715
0.714727
0.714741
0.714756
0.714773
0.714792
0.714811
0.714832
0.714853
0.714874
0.714895
0.714916
0.714935
0.714954
0.714972
0.714988
0.715002
0.715014
0.715024
0.715032
0.715039
0.715043
0.715045
0.715045
0.715044
0.715041
0.715036
0.71503
0.715023
0.715015
0.715007
0.714997
0.714987
0.714977
0.714966
0.714956
0.714945
0.714934
0.714924
0.714914
0.714904
0.714894
0.714884
0.714874
0.714865
0.714855
0.714846
0.714837
0.714828
0.714818
0.714809
0.7148
0.71479
0.71478
0.714771
0.714761
0.714751
0.714741
0.714731
0.714721
0.714711
0.714701
0.714691
0.714681
0.714671
0.714661
0.714651
0.714641
0.714631
0.714621
0.714611
0.714601
0.714591
0.714581
0.714571
0.714561
0.714551
0.714541
0.714531
0.714521
0.714511
0.714501
0.714491
0.714481
0.714471
0.714461
0.714451
0.714441
0.714431
0.714421
0.714411
0.714401
0.714391
0.714381
0.714371
0.714361
0.714351
0.714341
0.714331
0.714321
0.714311
0.714301
0.714291
0.712506
0.712521
0.712521
0.712527
0.712528
0.71253
0.712532
0.712535
0.712538
0.712541
0.712545
0.712549
0.712554
0.71256
0.712566
0.712572
0.71258
0.712588
0.712597
0.712608
0.71262
0.712635
0.712652
0.712672
0.712695
0.712722
0.712754
0.712791
0.712832
0.712879
0.712931
0.712988
0.71305
0.713117
0.713189
0.713265
0.713344
0.713426
0.713509
0.713594
0.713678
0.713762
0.713844
0.713924
0.713999
0.714071
0.714137
0.714198
0.714252
0.7143
0.714342
0.714377
0.714407
0.71443
0.714448
0.714462
0.714471
0.714477
0.714481
0.714483
0.714484
0.714484
0.714485
0.714486
0.714488
0.714492
0.714497
0.714504
0.714513
0.714523
0.714534
0.714547
0.714561
0.714576
0.714591
0.714606
0.714621
0.714635
0.714648
0.714659
0.71467
0.714678
0.714685
0.71469
0.714694
0.714696
0.714698
0.714698
0.714698
0.714698
0.714698
0.714698
0.714699
0.714702
0.714706
0.714711
0.714719
0.714728
0.714739
0.714751
0.714766
0.714782
0.714799
0.714817
0.714837
0.714856
0.714876
0.714896
0.714915
0.714933
0.714951
0.714967
0.714981
0.714995
0.715006
0.715015
0.715023
0.715029
0.715033
0.715035
0.715036
0.715035
0.715032
0.715029
0.715023
0.715017
0.71501
0.715002
0.714994
0.714985
0.714975
0.714965
0.714955
0.714945
0.714935
0.714925
0.714915
0.714905
0.714895
0.714885
0.714876
0.714866
0.714857
0.714847
0.714838
0.714828
0.714819
0.714809
0.7148
0.71479
0.71478
0.714771
0.714761
0.714751
0.714741
0.714731
0.714721
0.714711
0.714701
0.714691
0.714681
0.714671
0.714661
0.714651
0.714641
0.714631
0.714621
0.714611
0.714601
0.714591
0.714581
0.714571
0.714561
0.714551
0.714541
0.714531
0.714521
0.714511
0.714501
0.714491
0.714481
0.714471
0.714461
0.714451
0.714441
0.714431
0.714421
0.714411
0.714401
0.714391
0.714381
0.714371
0.714361
0.714351
0.714341
0.714331
0.714321
0.714311
0.714301
0.714291
0.712505
0.712522
0.71252
0.712524
0.712524
0.712527
0.712529
0.712532
0.712536
0.71254
0.712544
0.712549
0.712554
0.71256
0.712566
0.712573
0.712581
0.712589
0.712599
0.71261
0.712623
0.712638
0.712655
0.712676
0.7127
0.712728
0.712761
0.712798
0.71284
0.712887
0.71294
0.712997
0.713059
0.713126
0.713197
0.713271
0.713349
0.713428
0.713509
0.71359
0.71367
0.713749
0.713826
0.713899
0.713968
0.714033
0.714091
0.714144
0.714191
0.714232
0.714266
0.714294
0.714317
0.714334
0.714347
0.714356
0.714362
0.714366
0.714369
0.71437
0.714372
0.714373
0.714376
0.714379
0.714384
0.714391
0.7144
0.714411
0.714424
0.714439
0.714456
0.714474
0.714494
0.714514
0.714536
0.714557
0.714579
0.7146
0.71462
0.714639
0.714657
0.714672
0.714686
0.714698
0.714707
0.714715
0.71472
0.714724
0.714727
0.714728
0.71473
0.714731
0.714732
0.714734
0.714737
0.714741
0.714747
0.714755
0.714764
0.714775
0.714787
0.714801
0.714816
0.714832
0.714849
0.714866
0.714883
0.7149
0.714917
0.714933
0.714948
0.714962
0.714975
0.714987
0.714996
0.715005
0.715011
0.715017
0.71502
0.715023
0.715023
0.715023
0.715021
0.715018
0.715014
0.715009
0.715003
0.714997
0.714989
0.714981
0.714973
0.714964
0.714955
0.714945
0.714936
0.714926
0.714916
0.714907
0.714897
0.714887
0.714877
0.714868
0.714858
0.714848
0.714839
0.714829
0.714819
0.71481
0.7148
0.71479
0.71478
0.714771
0.714761
0.714751
0.714741
0.714731
0.714721
0.714711
0.714701
0.714691
0.714681
0.714671
0.714661
0.714651
0.714641
0.714631
0.714621
0.714611
0.714601
0.714591
0.714581
0.714571
0.714561
0.714551
0.714541
0.714531
0.714521
0.714511
0.714501
0.714491
0.714481
0.714471
0.714461
0.714451
0.714441
0.714431
0.714421
0.714411
0.714401
0.714391
0.714381
0.714371
0.714361
0.714351
0.714341
0.714331
0.714321
0.714311
0.714301
0.714291
0.712349
0.712489
0.712506
0.712527
0.712531
0.712534
0.712536
0.712538
0.712541
0.712545
0.712549
0.712553
0.712559
0.712564
0.712571
0.712578
0.712586
0.712596
0.712606
0.712618
0.712632
0.712649
0.712668
0.71269
0.712716
0.712746
0.712781
0.71282
0.712863
0.712912
0.712965
0.713023
0.713086
0.713152
0.713222
0.713295
0.71337
0.713446
0.713523
0.713599
0.713674
0.713746
0.713815
0.713881
0.713941
0.713996
0.714046
0.714089
0.714126
0.714158
0.714183
0.714203
0.714219
0.714231
0.714239
0.714245
0.714249
0.714252
0.714254
0.714257
0.71426
0.714264
0.714269
0.714276
0.714285
0.714296
0.714308
0.714323
0.714341
0.71436
0.714381
0.714404
0.714429
0.714455
0.714482
0.714509
0.714537
0.714565
0.714592
0.714618
0.714643
0.714666
0.714687
0.714706
0.714722
0.714736
0.714747
0.714756
0.714764
0.714769
0.714773
0.714776
0.714778
0.714781
0.714784
0.714787
0.714792
0.714797
0.714804
0.714812
0.714822
0.714832
0.714844
0.714856
0.71487
0.714883
0.714897
0.71491
0.714923
0.714936
0.714948
0.714959
0.714969
0.714978
0.714986
0.714992
0.714998
0.715002
0.715005
0.715007
0.715009
0.715009
0.715008
0.715006
0.715003
0.715
0.714995
0.71499
0.714984
0.714977
0.71497
0.714962
0.714954
0.714946
0.714937
0.714927
0.714918
0.714908
0.714899
0.714889
0.714879
0.714869
0.71486
0.71485
0.71484
0.71483
0.71482
0.71481
0.7148
0.71479
0.714781
0.714771
0.714761
0.714751
0.714741
0.714731
0.714721
0.714711
0.714701
0.714691
0.714681
0.714671
0.714661
0.714651
0.714641
0.714631
0.714621
0.714611
0.714601
0.714591
0.714581
0.714571
0.714561
0.714551
0.714541
0.714531
0.714521
0.714511
0.714501
0.714491
0.714481
0.714471
0.714461
0.714451
0.714441
0.714431
0.714421
0.714411
0.714401
0.714391
0.714381
0.714371
0.714361
0.714351
0.714341
0.714331
0.714321
0.714311
0.714301
0.714291
0.713083
0.713027
0.712964
0.712897
0.712824
0.712746
0.712658
0.712539
0.71309
0.713043
0.71298
0.712911
0.712837
0.712759
0.712668
0.71257
0.713094
0.713055
0.712997
0.712931
0.712862
0.71279
0.712719
0.712648
0.713104
0.71307
0.713018
0.712956
0.712892
0.712828
0.712764
0.712706
0.713117
0.713085
0.713036
0.712979
0.712921
0.712864
0.71281
0.712762
0.713132
0.713099
0.713051
0.712997
0.712943
0.712892
0.712844
0.712802
0.713147
0.71311
0.713061
0.713008
0.712957
0.71291
0.712866
0.712827
0.713155
0.713108
0.713059
0.713009
0.712961
0.712915
0.712873
0.712834
0.712475
0.712495
0.712515
0.712527
0.712533
0.712537
0.712539
0.712542
0.712546
0.71255
0.712554
0.71256
0.712566
0.712573
0.71258
0.712589
0.712599
0.71261
0.712623
0.712637
0.712654
0.712673
0.712695
0.712721
0.71275
0.712783
0.712821
0.712863
0.712909
0.71296
0.713015
0.713074
0.713137
0.713203
0.713271
0.713342
0.713413
0.713485
0.713556
0.713626
0.713693
0.713757
0.713816
0.713871
0.713921
0.713965
0.714004
0.714036
0.714063
0.714085
0.714102
0.714116
0.714126
0.714134
0.71414
0.714145
0.714149
0.714153
0.714158
0.714163
0.714169
0.714177
0.714185
0.714196
0.714208
0.714222
0.714238
0.714256
0.714276
0.714299
0.714323
0.71435
0.714378
0.714408
0.71444
0.714472
0.714505
0.714538
0.714571
0.714603
0.714634
0.714663
0.714691
0.714716
0.714739
0.714759
0.714777
0.714791
0.714804
0.714814
0.714822
0.714828
0.714833
0.714837
0.71484
0.714843
0.714847
0.71485
0.714855
0.71486
0.714866
0.714873
0.714881
0.714889
0.714897
0.714906
0.714915
0.714924
0.714933
0.714941
0.714949
0.714956
0.714963
0.714969
0.714974
0.714979
0.714983
0.714986
0.714989
0.714991
0.714993
0.714994
0.714994
0.714993
0.714992
0.71499
0.714987
0.714983
0.714979
0.714974
0.714968
0.714961
0.714954
0.714946
0.714938
0.714929
0.71492
0.714911
0.714901
0.714891
0.714881
0.714872
0.714861
0.714851
0.714841
0.714831
0.714821
0.714811
0.714801
0.714791
0.714781
0.714771
0.714761
0.714751
0.71474
0.71473
0.71472
0.714711
0.714701
0.714691
0.714681
0.714671
0.714661
0.714651
0.714641
0.714631
0.714621
0.714611
0.714601
0.714591
0.714581
0.714571
0.714561
0.714551
0.714541
0.714531
0.714521
0.714511
0.714501
0.714491
0.714481
0.714471
0.714461
0.714451
0.714441
0.714431
0.714421
0.714411
0.714401
0.714391
0.714381
0.714371
0.714361
0.714351
0.714341
0.714331
0.714321
0.714311
0.714301
0.714291
0.712498
0.712507
0.71252
0.712533
0.712541
0.712546
0.712551
0.712554
0.712558
0.712563
0.712568
0.712575
0.712582
0.712591
0.7126
0.712611
0.712624
0.712638
0.712654
0.712672
0.712693
0.712716
0.712743
0.712773
0.712807
0.712844
0.712886
0.712932
0.712981
0.713035
0.713092
0.713152
0.713214
0.713279
0.713345
0.713412
0.713479
0.713545
0.713608
0.713669
0.713726
0.713779
0.713827
0.71387
0.713907
0.713939
0.713967
0.713989
0.714007
0.714021
0.714033
0.714043
0.714051
0.714058
0.714065
0.714072
0.714079
0.714086
0.714094
0.714103
0.714112
0.714123
0.714134
0.714147
0.714161
0.714177
0.714195
0.714215
0.714237
0.714262
0.714288
0.714317
0.714348
0.71438
0.714414
0.71445
0.714486
0.714523
0.71456
0.714596
0.714632
0.714666
0.714699
0.714729
0.714758
0.714783
0.714806
0.714826
0.714844
0.714858
0.71487
0.714879
0.714887
0.714892
0.714897
0.7149
0.714903
0.714906
0.714908
0.714911
0.714913
0.714916
0.71492
0.714923
0.714927
0.714931
0.714935
0.714939
0.714943
0.714946
0.71495
0.714953
0.714956
0.71496
0.714963
0.714965
0.714968
0.714971
0.714974
0.714976
0.714978
0.71498
0.714981
0.714982
0.714982
0.714981
0.71498
0.714978
0.714975
0.714971
0.714966
0.71496
0.714954
0.714947
0.714939
0.714931
0.714922
0.714913
0.714903
0.714894
0.714884
0.714873
0.714863
0.714853
0.714843
0.714832
0.714822
0.714811
0.714801
0.714791
0.714781
0.714771
0.71476
0.71475
0.71474
0.71473
0.71472
0.71471
0.7147
0.71469
0.71468
0.71467
0.714661
0.714651
0.714641
0.714631
0.714621
0.714611
0.714601
0.714591
0.714581
0.714571
0.714561
0.714551
0.714541
0.714531
0.714521
0.714511
0.714501
0.714491
0.714481
0.714471
0.714461
0.714451
0.714441
0.714431
0.714421
0.714411
0.714401
0.714391
0.714381
0.714371
0.714361
0.714351
0.714341
0.714331
0.714321
0.714311
0.714301
0.714291
0.712595
0.712571
0.712565
0.712566
0.712568
0.71257
0.712572
0.712575
0.712579
0.712584
0.71259
0.712598
0.712607
0.712618
0.71263
0.712644
0.71266
0.712678
0.712699
0.712722
0.712748
0.712777
0.712809
0.712844
0.712883
0.712926
0.712973
0.713022
0.713075
0.713131
0.713189
0.71325
0.713311
0.713373
0.713435
0.713496
0.713556
0.713613
0.713667
0.713716
0.713761
0.713802
0.713837
0.713868
0.713894
0.713915
0.713934
0.713949
0.713963
0.713975
0.713986
0.713996
0.714006
0.714015
0.714025
0.714034
0.714044
0.714054
0.714065
0.714075
0.714087
0.714098
0.714111
0.714125
0.71414
0.714157
0.714176
0.714196
0.714219
0.714244
0.714272
0.714301
0.714333
0.714367
0.714403
0.71444
0.714479
0.714518
0.714557
0.714597
0.714636
0.714673
0.71471
0.714744
0.714777
0.714807
0.714834
0.714858
0.714879
0.714897
0.714912
0.714924
0.714934
0.714941
0.714947
0.71495
0.714953
0.714954
0.714955
0.714955
0.714955
0.714954
0.714954
0.714953
0.714952
0.714952
0.714951
0.714951
0.71495
0.71495
0.71495
0.71495
0.71495
0.714951
0.714952
0.714954
0.714956
0.714958
0.714961
0.714963
0.714966
0.714969
0.714971
0.714973
0.714974
0.714975
0.714975
0.714974
0.714972
0.714969
0.714965
0.71496
0.714955
0.714948
0.714941
0.714933
0.714924
0.714915
0.714906
0.714896
0.714886
0.714875
0.714865
0.714854
0.714844
0.714833
0.714822
0.714812
0.714801
0.714791
0.714781
0.71477
0.71476
0.71475
0.71474
0.71473
0.71472
0.71471
0.7147
0.71469
0.71468
0.71467
0.71466
0.71465
0.714641
0.714631
0.714621
0.714611
0.714601
0.714591
0.714581
0.714571
0.714561
0.714551
0.714541
0.714531
0.714521
0.714511
0.714501
0.714491
0.714481
0.714471
0.714461
0.714451
0.714441
0.714431
0.714421
0.714411
0.714401
0.714391
0.714381
0.714371
0.714361
0.714351
0.714341
0.714331
0.714321
0.714311
0.714301
0.714291
0.71266
0.712632
0.712618
0.712611
0.712607
0.712606
0.712606
0.712607
0.71261
0.712614
0.712621
0.712629
0.71264
0.712652
0.712667
0.712684
0.712704
0.712726
0.712751
0.712779
0.71281
0.712844
0.712881
0.712922
0.712967
0.713014
0.713065
0.713118
0.713174
0.713231
0.713289
0.713348
0.713406
0.713464
0.713519
0.713573
0.713623
0.713669
0.713712
0.713749
0.713782
0.713812
0.713838
0.71386
0.71388
0.713897
0.713912
0.713926
0.713938
0.71395
0.713961
0.713974
0.713986
0.713998
0.71401
0.714022
0.714034
0.714045
0.714056
0.714067
0.714079
0.714091
0.714104
0.714118
0.714133
0.71415
0.714169
0.71419
0.714213
0.714239
0.714267
0.714297
0.71433
0.714364
0.714401
0.71444
0.714479
0.71452
0.714561
0.714603
0.714643
0.714684
0.714722
0.714759
0.714794
0.714827
0.714856
0.714883
0.714906
0.714927
0.714944
0.714958
0.714969
0.714978
0.714984
0.714988
0.71499
0.71499
0.71499
0.714988
0.714985
0.714982
0.714978
0.714974
0.71497
0.714966
0.714962
0.714958
0.714954
0.714951
0.714949
0.714947
0.714945
0.714945
0.714945
0.714946
0.714947
0.714949
0.714952
0.714955
0.714958
0.714961
0.714964
0.714967
0.714969
0.714971
0.714972
0.714971
0.71497
0.714968
0.714965
0.714961
0.714955
0.714949
0.714942
0.714934
0.714926
0.714917
0.714907
0.714897
0.714887
0.714876
0.714866
0.714855
0.714844
0.714834
0.714823
0.714812
0.714802
0.714791
0.714781
0.71477
0.71476
0.71475
0.71474
0.71473
0.71472
0.71471
0.7147
0.71469
0.71468
0.71467
0.71466
0.71465
0.71464
0.714631
0.714621
0.714611
0.714601
0.714591
0.714581
0.714571
0.714561
0.714551
0.714541
0.714531
0.714521
0.714511
0.714501
0.714491
0.714481
0.714471
0.714461
0.714451
0.714441
0.714431
0.714421
0.714411
0.714401
0.714391
0.714381
0.714371
0.714361
0.714351
0.714341
0.714331
0.714321
0.714311
0.714301
0.714291
0.712723
0.712695
0.712675
0.712662
0.712653
0.712647
0.712643
0.712642
0.712643
0.712646
0.712652
0.71266
0.712672
0.712686
0.712703
0.712722
0.712745
0.712771
0.7128
0.712832
0.712867
0.712906
0.712948
0.712993
0.713042
0.713093
0.713146
0.713201
0.713257
0.713313
0.713369
0.713423
0.713476
0.713526
0.713574
0.71362
0.713662
0.7137
0.713735
0.713764
0.71379
0.713812
0.713831
0.713847
0.713863
0.713879
0.713895
0.713911
0.713927
0.713942
0.713957
0.713971
0.713984
0.713996
0.714008
0.71402
0.714031
0.714042
0.714054
0.714065
0.714077
0.71409
0.714103
0.714117
0.714133
0.71415
0.714169
0.714191
0.714214
0.71424
0.714268
0.714299
0.714332
0.714367
0.714404
0.714443
0.714484
0.714525
0.714567
0.71461
0.714652
0.714693
0.714733
0.714771
0.714808
0.714841
0.714872
0.7149
0.714925
0.714947
0.714965
0.71498
0.714992
0.715001
0.715007
0.715011
0.715013
0.715012
0.715011
0.715007
0.715003
0.714998
0.714992
0.714986
0.71498
0.714973
0.714967
0.714961
0.714956
0.714951
0.714947
0.714944
0.714942
0.714941
0.71494
0.714941
0.714942
0.714944
0.714947
0.71495
0.714954
0.714957
0.714961
0.714964
0.714967
0.714969
0.71497
0.71497
0.714969
0.714967
0.714965
0.714961
0.714956
0.71495
0.714943
0.714935
0.714927
0.714918
0.714908
0.714898
0.714888
0.714877
0.714867
0.714856
0.714845
0.714834
0.714823
0.714812
0.714802
0.714791
0.714781
0.71477
0.71476
0.71475
0.71474
0.71473
0.71472
0.71471
0.7147
0.71469
0.71468
0.71467
0.71466
0.71465
0.71464
0.714631
0.714621
0.714611
0.714601
0.714591
0.714581
0.714571
0.714561
0.714551
0.714541
0.714531
0.714521
0.714511
0.714501
0.714491
0.714481
0.714471
0.714461
0.714451
0.714441
0.714431
0.714421
0.714411
0.714401
0.714391
0.714381
0.714371
0.714361
0.714351
0.714341
0.714331
0.714321
0.714311
0.714301
0.714291
0.712767
0.712739
0.712717
0.7127
0.712687
0.712677
0.71267
0.712666
0.712665
0.712667
0.712673
0.712682
0.712694
0.712709
0.712727
0.712749
0.712774
0.712802
0.712834
0.712869
0.712907
0.712948
0.712992
0.71304
0.713089
0.713141
0.713195
0.713249
0.713304
0.713358
0.713411
0.713461
0.713509
0.713554
0.713595
0.713633
0.713668
0.713698
0.713724
0.713748
0.713771
0.713794
0.713817
0.713839
0.71386
0.713879
0.713896
0.713912
0.713927
0.713941
0.713955
0.713968
0.713981
0.713994
0.714006
0.714018
0.71403
0.714042
0.714053
0.714065
0.714078
0.71409
0.714104
0.714119
0.714135
0.714153
0.714172
0.714194
0.714218
0.714244
0.714273
0.714304
0.714337
0.714373
0.714411
0.71445
0.714491
0.714533
0.714575
0.714618
0.71466
0.714702
0.714742
0.714781
0.714818
0.714852
0.714883
0.714912
0.714937
0.714959
0.714977
0.714992
0.715004
0.715013
0.715019
0.715023
0.715024
0.715023
0.71502
0.715016
0.715011
0.715004
0.714998
0.71499
0.714983
0.714976
0.714969
0.714962
0.714956
0.714951
0.714947
0.714943
0.714941
0.714939
0.714939
0.714939
0.714941
0.714943
0.714946
0.714949
0.714952
0.714956
0.71496
0.714963
0.714966
0.714968
0.714969
0.714969
0.714969
0.714967
0.714964
0.71496
0.714956
0.71495
0.714943
0.714935
0.714927
0.714918
0.714908
0.714898
0.714888
0.714877
0.714867
0.714856
0.714845
0.714834
0.714823
0.714813
0.714802
0.714791
0.714781
0.71477
0.71476
0.71475
0.71474
0.71473
0.71472
0.71471
0.7147
0.71469
0.71468
0.71467
0.71466
0.71465
0.71464
0.714631
0.714621
0.714611
0.714601
0.714591
0.714581
0.714571
0.714561
0.714551
0.714541
0.714531
0.714521
0.714511
0.714501
0.714491
0.714481
0.714471
0.714461
0.714451
0.714441
0.714431
0.714421
0.714411
0.714401
0.714391
0.714381
0.714371
0.714361
0.714351
0.714341
0.714331
0.714321
0.714311
0.714301
0.714291
0.712793
0.712765
0.71274
0.712721
0.712704
0.712692
0.712683
0.712678
0.712676
0.712678
0.712684
0.712693
0.712705
0.712721
0.712741
0.712764
0.71279
0.712819
0.712852
0.712888
0.712927
0.712969
0.713014
0.713061
0.713111
0.713162
0.713214
0.713266
0.713317
0.713367
0.713414
0.713458
0.713501
0.713541
0.71358
0.713618
0.713655
0.713689
0.713721
0.713749
0.713775
0.713798
0.713819
0.713839
0.713858
0.713875
0.713892
0.713908
0.713924
0.713939
0.713953
0.713967
0.71398
0.713993
0.714006
0.714018
0.71403
0.714041
0.714053
0.714065
0.714078
0.714091
0.714105
0.71412
0.714137
0.714155
0.714175
0.714197
0.714221
0.714248
0.714277
0.714308
0.714342
0.714378
0.714415
0.714455
0.714496
0.714538
0.71458
0.714623
0.714665
0.714707
0.714747
0.714786
0.714823
0.714857
0.714888
0.714916
0.714941
0.714963
0.714981
0.714996
0.715008
0.715017
0.715023
0.715026
0.715027
0.715025
0.715022
0.715018
0.715012
0.715006
0.714999
0.714991
0.714984
0.714976
0.714969
0.714963
0.714957
0.714951
0.714947
0.714943
0.714941
0.714939
0.714939
0.714939
0.714941
0.714943
0.714946
0.714949
0.714952
0.714956
0.714959
0.714962
0.714965
0.714967
0.714969
0.714969
0.714968
0.714967
0.714964
0.71496
0.714955
0.714949
0.714943
0.714935
0.714927
0.714918
0.714908
0.714898
0.714888
0.714877
0.714867
0.714856
0.714845
0.714834
0.714823
0.714813
0.714802
0.714791
0.714781
0.714771
0.71476
0.71475
0.71474
0.71473
0.71472
0.71471
0.7147
0.71469
0.71468
0.71467
0.71466
0.71465
0.71464
0.714631
0.714621
0.714611
0.714601
0.714591
0.714581
0.714571
0.714561
0.714551
0.714541
0.714531
0.714521
0.714511
0.714501
0.714491
0.714481
0.714471
0.714461
0.714451
0.714441
0.714431
0.714421
0.714411
0.714401
0.714391
0.714381
0.714371
0.714361
0.714351
0.714341
0.714331
0.714321
0.714311
0.714301
0.714291
0.7128
0.71277
0.712743
0.712721
0.712703
0.712689
0.71268
0.712674
0.712672
0.712674
0.71268
0.712689
0.712702
0.712718
0.712737
0.71276
0.712786
0.712815
0.712847
0.712882
0.71292
0.712961
0.713005
0.71305
0.713098
0.713148
0.713199
0.71325
0.713302
0.713352
0.713401
0.713448
0.713494
0.713537
0.713578
0.713617
0.713653
0.713685
0.713715
0.713742
0.713768
0.713791
0.713814
0.713835
0.713855
0.713874
0.713891
0.713908
0.713923
0.713938
0.713952
0.713966
0.713979
0.713992
0.714004
0.714017
0.714028
0.71404
0.714052
0.714065
0.714077
0.714091
0.714105
0.714121
0.714138
0.714156
0.714177
0.714199
0.714224
0.714251
0.714281
0.714312
0.714346
0.714383
0.714421
0.714461
0.714502
0.714544
0.714586
0.714629
0.714672
0.714713
0.714753
0.714792
0.714828
0.714862
0.714893
0.714921
0.714946
0.714967
0.714985
0.714999
0.715011
0.715019
0.715024
0.715027
0.715027
0.715026
0.715022
0.715018
0.715012
0.715005
0.714998
0.71499
0.714983
0.714976
0.714969
0.714962
0.714956
0.714951
0.714947
0.714943
0.714941
0.71494
0.71494
0.71494
0.714942
0.714944
0.714947
0.71495
0.714953
0.714957
0.71496
0.714963
0.714966
0.714968
0.714969
0.714969
0.714969
0.714967
0.714964
0.71496
0.714955
0.714949
0.714942
0.714935
0.714926
0.714917
0.714908
0.714898
0.714888
0.714877
0.714867
0.714856
0.714845
0.714834
0.714823
0.714813
0.714802
0.714791
0.714781
0.714771
0.71476
0.71475
0.71474
0.71473
0.71472
0.71471
0.7147
0.71469
0.71468
0.71467
0.71466
0.71465
0.71464
0.714631
0.714621
0.714611
0.714601
0.714591
0.714581
0.714571
0.714561
0.714551
0.714541
0.714531
0.714521
0.714511
0.714501
0.714491
0.714481
0.714471
0.714461
0.714451
0.714441
0.714431
0.714421
0.714411
0.714401
0.714391
0.714381
0.714371
0.714361
0.714351
0.714341
0.714331
0.714321
0.714311
0.714301
0.714291
)
;

boundaryField
{
    inlet
    {
        type            zeroGradient;
    }
    outlet
    {
        type            fixedValue;