/*--------------------------------*- C++ -*----------------------------------*\
| =========                 |                                                 |
| \\      /  F ield         | OpenFOAM: The Open Source CFD Toolbox           |
|  \\    /   O peration     | Version:  4.1                                   |
|   \\  /    A nd           | Web:      www.OpenFOAM.org                      |
|    \\/     M anipulation  |                                                 |
\*---------------------------------------------------------------------------*/
FoamFile
{
    version     2.0;
    format      ascii;
    class       volVectorField;
    location    "0.0225";
    object      U;
}
// * * * * * * * * * * * * * * * * * * * * * * * * * * * * * * * * * * * * * //

dimensions      [0 1 -1 0 0 0 0];

internalField   nonuniform List<vector> 
441
(
(-0.000106581 9.0043e-05 0)
(-0.00051447 0.000288344 0)
(-0.00110943 0.000475454 0)
(-0.00183493 0.000596175 0)
(-0.00261926 0.000644125 0)
(-0.00339364 0.000627713 0)
(-0.0041002 0.000559625 0)
(-0.00469405 0.000452718 0)
(-0.00514258 0.000318458 0)
(-0.00542371 0.000166626 0)
(-0.00552431 5.69959e-06 0)
(-0.00543916 -0.000156428 0)
(-0.00517079 -0.000311616 0)
(-0.00473018 -0.000450681 0)
(-0.00413829 -0.000562795 0)
(-0.00342792 -0.000635305 0)
(-0.00264547 -0.000654296 0)
(-0.00185126 -0.000606465 0)
(-0.00111687 -0.000483489 0)
(-0.000516165 -0.000292669 0)
(-0.000106397 -9.08083e-05 0)
(-0.000344869 0.000476499 0)
(-0.00152071 0.00136041 0)
(-0.00311743 0.00208225 0)
(-0.00499376 0.00252885 0)
(-0.00698287 0.00268966 0)
(-0.00892562 0.0025986 0)
(-0.0106871 0.00230491 0)
(-0.0121619 0.00185874 0)
(-0.0132729 0.00130504 0)
(-0.0139678 0.000682211 0)
(-0.0142155 2.35846e-05 0)
(-0.0140038 -0.000639821 0)
(-0.0133388 -0.001276 0)
(-0.0122469 -0.00184885 0)
(-0.0107777 -0.0023158 0)
(-0.00900859 -0.00262723 0)
(-0.00704811 -0.00272881 0)
(-0.00503651 -0.00256886 0)
(-0.00313908 -0.00211377 0)
(-0.00152762 -0.0013777 0)
(-0.000345399 -0.000480024 0)
(-0.000591913 0.00108513 0)
(-0.00246969 0.00292741 0)
(-0.0049159 0.00432649 0)
(-0.0077217 0.00515803 0)
(-0.0106543 0.00542947 0)
(-0.0134942 0.00521355 0)
(-0.0160556 0.00460677 0)
(-0.018193 0.00370605 0)
(-0.0197998 0.00259804 0)
(-0.0208039 0.00135678 0)
(-0.0211622 4.64786e-05 0)
(-0.0208577 -0.00127316 0)
(-0.0198988 -0.00254053 0)
(-0.0183215 -0.00368608 0)
(-0.016194 -0.00462775 0)
(-0.0136229 -0.00526976 0)
(-0.0107579 -0.005507 0)
(-0.00779217 -0.00523799 0)
(-0.00495407 -0.00439033 0)
(-0.00248392 -0.00296322 0)
(-0.000593984 -0.00109303 0)
(-0.000816725 0.00190123 0)
(-0.00332772 0.00495617 0)
(-0.00652366 0.0071639 0)
(-0.0101315 0.00842819 0)
(-0.0138603 0.00879934 0)
(-0.017443 0.00840524 0)
(-0.0206565 0.00740155 0)
(-0.0233278 0.00594109 0)
(-0.0253317 0.00415925 0)
(-0.0265836 0.00217111 0)
(-0.0270333 7.5877e-05 0)
(-0.0266603 -0.00203443 0)
(-0.0254735 -0.00406484 0)
(-0.0235134 -0.00590765 0)
(-0.0208588 -0.00743511 0)
(-0.0176344 -0.00849717 0)
(-0.014018 -0.00892754 0)
(-0.0102424 -0.00856198 0)
(-0.00658711 -0.00727238 0)
(-0.00335388 -0.00501846 0)
(-0.000821457 -0.00191583 0)
(-0.00102655 0.0029124 0)
(-0.00413447 0.00742558 0)
(-0.00803579 0.0105728 0)
(-0.0123914 0.0123145 0)
(-0.0168521 0.0127692 0)
(-0.021106 0.0121394 0)
(-0.0248992 0.0106544 0)
(-0.0280393 0.00853332 0)
(-0.0303894 0.00596701 0)
(-0.0318587 0.00311572 0)
(-0.0323932 0.000116048 0)
(-0.03197 -0.00290615 0)
(-0.0305962 -0.00582078 0)
(-0.0283123 -0.00847903 0)
(-0.0252007 -0.0107022 0)
(-0.0213962 -0.0122776 0)
(-0.017097 -0.0129657 0)
(-0.0125697 -0.0125231 0)
(-0.00814291 -0.0107453 0)
(-0.00418218 -0.00752749 0)
(-0.00103627 -0.00293797 0)
(-0.00123769 0.00411914 0)
(-0.00495287 0.0103416 0)
(-0.00957154 0.0145639 0)
(-0.014682 0.0168269 0)
(-0.0198715 0.0173432 0)
(-0.024783 0.0164132 0)
(-0.0291346 0.0143576 0)
(-0.0327198 0.0114736 0)
(-0.0353964 0.0080149 0)
(-0.0370726 0.00419013 0)
(-0.037694 0.000173877 0)
(-0.0372359 -0.00387484 0)
(-0.0357014 -0.00779122 0)
(-0.0331261 -0.011384 0)
(-0.0295891 -0.0144188 0)
(-0.0252283 -0.016611 0)
(-0.0202562 -0.017633 0)
(-0.0149708 -0.0171417 0)
(-0.00975244 -0.014831 0)
(-0.00503823 -0.0105051 0)
(-0.00125636 -0.00416365 0)
(-0.00146719 0.00553867 0)
(-0.00584733 0.013743 0)
(-0.0112464 0.0191848 0)
(-0.0171677 0.02201 0)
(-0.0231263 0.0225561 0)
(-0.0287177 0.0212489 0)
(-0.0336349 0.0185224 0)
(-0.037663 0.0147669 0)
(-0.0406617 0.0103063 0)
(-0.0425441 0.00539983 0)
(-0.0432593 0.000258679 0)
(-0.0427817 -0.00492825 0)
(-0.0411078 -0.00996446 0)
(-0.0382626 -0.0146168 0)
(-0.0343141 -0.0185916 0)
(-0.0293944 -0.0215217 0)
(-0.0237235 -0.022973 0)
(-0.0176282 -0.0224767 0)
(-0.0115449 -0.019593 0)
(-0.00599421 -0.0140032 0)
(-0.00150073 -0.00561585 0)
(-0.00172978 0.00720449 0)
(-0.0068734 0.0176998 0)
(-0.0131561 0.024515 0)
(-0.0199764 0.027935 0)
(-0.0267668 0.0284606 0)
(-0.0330732 0.0266794 0)
(-0.0385682 0.0231659 0)
(-0.0430378 0.0184203 0)
(-0.0463528 0.0128453 0)
(-0.0484395 0.00675134 0)
(-0.049256 0.000381831 0)
(-0.048777 -0.00605099 0)
(-0.0469897 -0.0123255 0)
(-0.0439015 -0.0181702 0)
(-0.0395588 -0.0232297 0)
(-0.0340758 -0.0270433 0)
(-0.0276692 -0.0290482 0)
(-0.0206889 -0.028616 0)
(-0.0136309 -0.0251315 0)
(-0.00711468 -0.01811 0)
(-0.00178645 -0.00733645 0)
(-0.0020359 0.00916437 0)
(-0.00807021 0.0223062 0)
(-0.0153619 0.030655 0)
(-0.0231787 0.0346833 0)
(-0.0308583 0.0351092 0)
(-0.0378981 0.0327288 0)
(-0.0439607 0.0282912 0)
(-0.0488465 0.022427 0)
(-0.0524513 0.015625 0)
(-0.0547266 0.00824541 0)
(-0.0556466 0.000555827 0)
(-0.055189 -0.0072194 0)
(-0.0533289 -0.0148447 0)
(-0.0500473 -0.0220184 0)
(-0.0453553 -0.028324 0)
(-0.0393323 -0.0331966 0)
(-0.032174 -0.0359188 0)
(-0.0242408 -0.0356597 0)
(-0.0160874 -0.0315718 0)
(-0.00844859 -0.0229431 0)
(-0.00212661 -0.0093845 0)
(-0.00238921 0.0114767 0)
(-0.00945064 0.0276699 0)
(-0.0178714 0.037707 0)
(-0.0267564 0.0423217 0)
(-0.0353386 0.0425251 0)
(-0.0430752 0.0393831 0)
(-0.049637 0.0338617 0)
(-0.0548598 0.0267441 0)
(-0.0586848 0.0186115 0)
(-0.0611035 0.0098679 0)
(-0.0621166 0.00079227 0)
(-0.0617088 -0.00839593 0)
(-0.0598405 -0.0174647 0)
(-0.056457 -0.0260963 0)
(-0.0515173 -0.0338194 0)
(-0.045042 -0.0399574 0)
(-0.0371791 -0.0436096 0)
(-0.0282758 -0.0436902 0)
(-0.0189342 -0.0390426 0)
(-0.0100181 -0.028638 0)
(-0.00252752 -0.0118328 0)
(-0.00278233 0.0142045 0)
(-0.0109854 0.0338934 0)
(-0.020607 0.0457445 0)
(-0.0305548 0.0508642 0)
(-0.0399547 0.0506609 0)
(-0.0482447 0.046551 0)
(-0.055134 0.0397665 0)
(-0.060525 0.0312656 0)
(-0.0644296 0.0217238 0)
(-0.066899 0.0115778 0)
(-0.0679725 0.00109826 0)
(-0.0676476 -0.00952394 0)
(-0.0658689 -0.0200852 0)
(-0.062537 -0.0302742 0)
(-0.0575399 -0.0395798 0)
(-0.0508103 -0.0472125 0)
(-0.0424097 -0.0520626 0)
(-0.0326316 -0.052727 0)
(-0.0220968 -0.0476398 0)
(-0.0118001 -0.0353263 0)
(-0.00298403 -0.0147618 0)
(-0.00319006 0.0174062 0)
(-0.0125774 0.0410451 0)
(-0.0233573 0.0547671 0)
(-0.0342101 0.060216 0)
(-0.0441698 0.0593424 0)
(-0.0526967 0.0540123 0)
(-0.0595854 0.0457777 0)
(-0.0648456 0.0357895 0)
(-0.0685907 0.0248115 0)
(-0.0709517 0.0132934 0)
(-0.0720197 0.00147094 0)
(-0.0718122 -0.010524 0)
(-0.0702596 -0.0225486 0)
(-0.0672122 -0.0343304 0)
(-0.0624701 -0.0453453 0)
(-0.055846 -0.0547037 0)
(-0.0472653 -0.0610696 0)
(-0.0369056 -0.0626586 0)
(-0.0253485 -0.0573698 0)
(-0.0136955 -0.0431012 0)
(-0.00347165 -0.0182484 0)
(-0.00355824 0.0211204 0)
(-0.0140214 0.0491155 0)
(-0.0257038 0.0646322 0)
(-0.0370456 0.0700963 0)
(-0.0470383 0.0681933 0)
(-0.0552359 0.0613552 0)
(-0.0615843 0.0515029 0)
(-0.0662487 0.0399842 0)
(-0.0694735 0.0276317 0)
(-0.0714868 0.014878 0)
(-0.0724413 0.00189047 0)
(-0.0723814 -0.0112935 0)
(-0.0712295 -0.02463 0)
(-0.068787 -0.0379268 0)
(-0.0647588 -0.0506893 0)
(-0.0588104 -0.0619616 0)
(-0.0506763 -0.0701874 0)
(-0.040333 -0.0731481 0)
(-0.0282229 -0.0680643 0)
(-0.015483 -0.0519608 0)
(-0.00393422 -0.0223484 0)
(-0.00378561 0.025343 0)
(-0.0149393 0.0579505 0)
(-0.0269091 0.0749591 0)
(-0.0379265 0.0799358 0)
(-0.0470453 0.0765476 0)
(-0.0540241 0.0679111 0)
(-0.0590414 0.0563427 0)
(-0.0624628 0.0433641 0)
(-0.0646824 0.0298358 0)
(-0.0660291 0.0161318 0)
(-0.0667175 0.00231309 0)
(-0.0668236 -0.0117124 0)
(-0.0662719 -0.026038 0)
(-0.0648308 -0.0405985 0)
(-0.0621211 -0.0549869 0)
(-0.0576543 -0.0682444 0)
(-0.0509294 -0.0786415 0)
(-0.0416226 -0.0835118 0)
(-0.0298874 -0.0792601 0)
(-0.0167452 -0.0617238 0)
(-0.00426381 -0.0270672 0)
(-0.00369088 0.0299904 0)
(-0.0146678 0.0671545 0)
(-0.0257394 0.0849973 0)
(-0.0350501 0.0887528 0)
(-0.0419046 0.0833595 0)
(-0.0464135 0.0727053 0)
(-0.0490652 0.0594735 0)
(-0.0504467 0.0452909 0)
(-0.0510895 0.0309774 0)
(-0.0514005 0.0167963 0)
(-0.051639 0.00266735 0)
(-0.051909 -0.0116575 0)
(-0.0521528 -0.0264366 0)
(-0.0521387 -0.0417743 0)
(-0.0514466 -0.0574192 0)
(-0.0494699 -0.0725064 0)
(-0.0454686 -0.0852428 0)
(-0.038736 -0.0925833 0)
(-0.0289473 -0.0900394 0)
(-0.0167448 -0.071905 0)
(-0.0042658 -0.0323153 0)
(-0.00294498 0.0348405 0)
(-0.0120356 0.0759426 0)
(-0.0201483 0.0934525 0)
(-0.0256238 0.0950225 0)
(-0.0283 0.0871444 0)
(-0.0287849 0.0744598 0)
(-0.0279022 0.0598888 0)
(-0.0264164 0.0450282 0)
(-0.0249283 0.0305609 0)
(-0.0238594 0.0165853 0)
(-0.0234696 0.00285862 0)
(-0.0238754 -0.0110268 0)
(-0.0250542 -0.0254978 0)
(-0.0268257 -0.0408497 0)
(-0.0288132 -0.057048 0)
(-0.0303944 -0.0734434 0)
(-0.0306771 -0.0883646 0)
(-0.0285753 -0.0985946 0)
(-0.0231184 -0.0988367 0)
(-0.0141901 -0.0815347 0)
(-0.00358911 -0.0378362 0)
(-0.000904305 0.0394104 0)
(-0.00487016 0.0828915 0)
(-0.00666819 0.0982593 0)
(-0.00533976 0.0965789 0)
(-0.00154822 0.0860133 0)
(0.00358341 0.0717118 0)
(0.00901896 0.0565461 0)
(0.0139788 0.04188 0)
(0.0179401 0.0281492 0)
(0.0205778 0.0152509 0)
(0.021702 0.00278817 0)
(0.0212133 -0.00977305 0)
(0.0190872 -0.0229908 0)
(0.0153909 -0.0373309 0)
(0.0103388 -0.0530015 0)
(0.00438576 -0.0696808 0)
(-0.00165395 -0.0860642 0)
(-0.00652317 -0.0991486 0)
(-0.00863353 -0.103229 0)
(-0.00673539 -0.0888776 0)
(-0.00155845 -0.0430675 0)
(0.00387269 0.042718 0)
(0.011197 0.0855497 0)
(0.0208235 0.0963654 0)
(0.0324942 0.0906825 0)
(0.0448202 0.0779359 0)
(0.0565595 0.0631427 0)
(0.0668711 0.0486773 0)
(0.0752794 0.0354397 0)
(0.0815581 0.0235422 0)
(0.0856174 0.0126908 0)
(0.0874173 0.00239169 0)
(0.0869138 -0.00793762 0)
(0.0840347 -0.0188999 0)
(0.0786878 -0.0310518 0)
(0.0708069 -0.0447974 0)
(0.0604494 -0.0601829 0)
(0.0479651 -0.0764914 0)
(0.0342333 -0.0914588 0)
(0.0208945 -0.0998347 0)
(0.0101914 -0.0910419 0)
(0.00331248 -0.0468744 0)
(0.0155276 0.0424382 0)
(0.0457877 0.0794188 0)
(0.0735105 0.0835226 0)
(0.0982104 0.0744581 0)
(0.119399 0.0614114 0)
(0.136932 0.0482135 0)
(0.150912 0.0362835 0)
(0.161573 0.025938 0)
(0.16919 0.0170006 0)
(0.174002 0.0090795 0)
(0.176162 0.00169431 0)
(0.175709 -0.00566922 0)
(0.17254 -0.0135348 0)
(0.166411 -0.022415 0)
(0.156937 -0.0327693 0)
(0.143623 -0.044901 0)
(0.125946 -0.0587082 0)
(0.103534 -0.0730796 0)
(0.0765623 -0.0844328 0)
(0.0463123 -0.0831188 0)
(0.0152257 -0.0467094 0)
(0.0494037 0.0345979 0)
(0.121958 0.0584871 0)
(0.172109 0.0560212 0)
(0.207113 0.0468815 0)
(0.232631 0.0370707 0)
(0.251514 0.0282492 0)
(0.265452 0.0207961 0)
(0.275523 0.0146167 0)
(0.282455 0.00944758 0)
(0.286735 0.00497122 0)
(0.28865 0.000858372 0)
(0.288297 -0.00321912 0)
(0.285584 -0.00758784 0)
(0.28021 -0.0125741 0)
(0.271622 -0.0184987 0)
(0.258928 -0.0256542 0)
(0.24074 -0.034239 0)
(0.214859 -0.0441487 0)
(0.177872 -0.0542767 0)
(0.124161 -0.0592314 0)
(0.0494988 -0.038167 0)
(0.182848 0.00463069 0)
(0.29665 0.00813444 0)
(0.350397 0.0115281 0)
(0.377472 0.0111681 0)
(0.393835 0.00929261 0)
(0.40457 0.00720464 0)
(0.411923 0.00532282 0)
(0.416976 0.00373059 0)
(0.420334 0.00239186 0)
(0.422352 0.00123285 0)
(0.42323 0.000170194 0)
(0.42304 -0.000879676 0)
(0.421742 -0.00199693 0)
(0.419169 -0.00325389 0)
(0.414981 -0.00470341 0)
(0.408551 -0.00634844 0)
(0.398679 -0.00806632 0)
(0.382771 -0.00944246 0)
(0.354944 -0.00943693 0)
(0.298204 -0.00689854 0)
(0.181124 -0.00726776 0)
)
;

boundaryField
{
    movingWall
    {
        type            fixedValue;
        value           uniform (0.5 0 0);
    }
    fixedWalls
    {
        type            noSlip;
    }
    frontAndBack
    {
        type            empty;
    }
}


// ************************************************************************* //
