/*--------------------------------*- C++ -*----------------------------------*\
| =========                 |                                                 |
| \\      /  F ield         | OpenFOAM: The Open Source CFD Toolbox           |
|  \\    /   O peration     | Version:  4.1                                   |
|   \\  /    A nd           | Web:      www.OpenFOAM.org                      |
|    \\/     M anipulation  |                                                 |
\*---------------------------------------------------------------------------*/
FoamFile
{
    version     2.0;
    format      ascii;
    class       volVectorField;
    location    "0.0036";
    object      U;
}
// * * * * * * * * * * * * * * * * * * * * * * * * * * * * * * * * * * * * * //

dimensions      [0 1 -1 0 0 0 0];

internalField   nonuniform List<vector> 
441
(
(-0.000115769 0.000115177 0)
(-0.00044418 0.000186065 0)
(-0.000778313 0.000208369 0)
(-0.00109612 0.000203548 0)
(-0.00138662 0.000186328 0)
(-0.00164346 0.000162566 0)
(-0.00186134 0.000134602 0)
(-0.00203577 0.000103613 0)
(-0.00216321 7.04418e-05 0)
(-0.00224107 3.58246e-05 0)
(-0.00226777 4.63453e-07 0)
(-0.00224273 -3.49523e-05 0)
(-0.00216638 -6.97289e-05 0)
(-0.00204016 -0.000103152 0)
(-0.00186654 -0.000134462 0)
(-0.001649 -0.000162791 0)
(-0.00139199 -0.000186922 0)
(-0.0011008 -0.000204468 0)
(-0.000781858 -0.000209505 0)
(-0.000446282 -0.000187195 0)
(-0.000116323 -0.000115914 0)
(-0.000196546 0.000446074 0)
(-0.000797759 0.000764659 0)
(-0.00140657 0.000838969 0)
(-0.00198181 0.000810942 0)
(-0.00250469 0.000738926 0)
(-0.00296542 0.000643475 0)
(-0.00335545 0.000532351 0)
(-0.00366728 0.000409629 0)
(-0.00389484 0.000278425 0)
(-0.00403373 0.000141577 0)
(-0.00408124 1.82489e-06 0)
(-0.00403639 -0.000138133 0)
(-0.00389993 -0.000275582 0)
(-0.00367434 -0.000407735 0)
(-0.00336384 -0.000531674 0)
(-0.00297438 -0.000644176 0)
(-0.00251337 -0.000741031 0)
(-0.00198938 -0.0008143 0)
(-0.0014123 -0.000843186 0)
(-0.000801115 -0.000768921 0)
(-0.000197335 -0.000448738 0)
(-0.000239053 0.000805049 0)
(-0.00095139 0.00138909 0)
(-0.0016719 0.00151897 0)
(-0.00235263 0.00146472 0)
(-0.00297073 0.00133266 0)
(-0.00351461 0.00115941 0)
(-0.00397435 0.000958544 0)
(-0.00434146 0.00073721 0)
(-0.00460911 0.000500905 0)
(-0.00477238 0.000254654 0)
(-0.00482825 3.28539e-06 0)
(-0.00477566 -0.000248452 0)
(-0.0046154 -0.000495782 0)
(-0.00435019 -0.000733793 0)
(-0.00398475 -0.00095732 0)
(-0.00352572 -0.00116067 0)
(-0.00298152 -0.00133647 0)
(-0.00236206 -0.00147081 0)
(-0.00167905 -0.00152663 0)
(-0.000955595 -0.00139683 0)
(-0.000240055 -0.000809858 0)
(-0.000266329 0.00118647 0)
(-0.00104998 0.00204804 0)
(-0.00184097 0.0022365 0)
(-0.00258769 0.00215414 0)
(-0.00326469 0.00195798 0)
(-0.00385926 0.00170193 0)
(-0.00436085 0.001406 0)
(-0.00476066 0.00108067 0)
(-0.00505176 0.00073397 0)
(-0.00522924 0.00037312 0)
(-0.00529015 4.99645e-06 0)
(-0.00523338 -0.000363684 0)
(-0.00505969 -0.000726165 0)
(-0.0047717 -0.00107546 0)
(-0.00437404 -0.00140412 0)
(-0.0038734 -0.00170386 0)
(-0.00327847 -0.0019638 0)
(-0.00259977 -0.00216349 0)
(-0.00185016 -0.00224827 0)
(-0.0010554 -0.00205996 0)
(-0.000267639 -0.00119386 0)
(-0.000293126 0.00159637 0)
(-0.00115136 0.00275253 0)
(-0.00201577 0.00300256 0)
(-0.00283025 0.00288894 0)
(-0.00356681 0.00262296 0)
(-0.00421178 0.00227744 0)
(-0.00475428 0.00187951 0)
(-0.00518556 0.0014434 0)
(-0.00549896 0.000979782 0)
(-0.00568992 0.000498095 0)
(-0.00575572 7.12394e-06 0)
(-0.00569533 -0.000484631 0)
(-0.00550935 -0.00096862 0)
(-0.00520005 -0.00143589 0)
(-0.00477164 -0.00187675 0)
(-0.00423047 -0.00228012 0)
(-0.0035851 -0.00263127 0)
(-0.00284636 -0.00290235 0)
(-0.00202807 -0.00301952 0)
(-0.00115864 -0.00276973 0)
(-0.000294905 -0.00160705 0)
(-0.000325452 0.00204551 0)
(-0.00127648 0.00352195 0)
(-0.0022321 0.00383737 0)
(-0.00312982 0.00368738 0)
(-0.00393851 0.00334304 0)
(-0.00464362 0.00289833 0)
(-0.00523418 0.00238856 0)
(-0.00570189 0.0018322 0)
(-0.00604083 0.00124277 0)
(-0.00624714 0.00063183 0)
(-0.00631859 9.85928e-06 0)
(-0.00625433 -0.000613176 0)
(-0.00605466 -0.00122725 0)
(-0.00572126 -0.00182168 0)
(-0.00525748 -0.00238457 0)
(-0.00466883 -0.0029019 0)
(-0.0039633 -0.0033545 0)
(-0.00315176 -0.00370604 0)
(-0.00224893 -0.00386111 0)
(-0.00128648 -0.00354612 0)
(-0.000327918 -0.00206054 0)
(-0.000366182 0.00254633 0)
(-0.00143506 0.00437759 0)
(-0.00250595 0.00476285 0)
(-0.00350765 0.00456884 0)
(-0.0044051 0.00413407 0)
(-0.00518288 0.00357683 0)
(-0.00583043 0.00294209 0)
(-0.00634059 0.00225323 0)
(-0.00670883 0.00152678 0)
(-0.0069326 0.000776259 0)
(-0.0070106 1.34277e-05 0)
(-0.0069422 -0.000750814 0)
(-0.00672732 -0.00150549 0)
(-0.00636659 -0.00223864 0)
(-0.00586189 -0.00293632 0)
(-0.00521712 -0.00358138 0)
(-0.004439 -0.00414952 0)
(-0.00353786 -0.0045944 0)
(-0.00252925 -0.00479563 0)
(-0.00144898 -0.00441113 0)
(-0.000369638 -0.00256724 0)
(-0.000417594 0.00311333 0)
(-0.00163529 0.00534336 0)
(-0.00285048 0.00580302 0)
(-0.00398043 0.00555379 0)
(-0.00498511 0.0050119 0)
(-0.00584862 0.00432435 0)
(-0.00656167 0.00354778 0)
(-0.00711937 0.0027113 0)
(-0.00751972 0.00183459 0)
(-0.00776241 0.000932747 0)
(-0.0078476 1.81051e-05 0)
(-0.00777517 -0.000898368 0)
(-0.0075444 -0.00180564 0)
(-0.00715424 -0.00269115 0)
(-0.00660415 -0.00353938 0)
(-0.00589524 -0.00432989 0)
(-0.00503166 -0.00503241 0)
(-0.00402225 -0.00558842 0)
(-0.00288299 -0.00584797 0)
(-0.00165483 -0.00538968 0)
(-0.000422475 -0.00314234 0)
(-0.00048245 0.00376408 0)
(-0.00188747 0.00644738 0)
(-0.00328202 0.00698516 0)
(-0.00456811 0.00666421 0)
(-0.00569976 0.00599223 0)
(-0.00666136 0.00515094 0)
(-0.00744654 0.00421132 0)
(-0.00805458 0.00320921 0)
(-0.00848778 0.00216739 0)
(-0.00874943 0.00110181 0)
(-0.00884204 2.42298e-05 0)
(-0.00876628 -0.00105568 0)
(-0.0085205 -0.00212819 0)
(-0.00810114 -0.00318139 0)
(-0.00750376 -0.00419893 0)
(-0.0067248 -0.00515724 0)
(-0.00576383 -0.00601902 0)
(-0.00462632 -0.00671079 0)
(-0.0033277 -0.0070466 0)
(-0.00191513 -0.00651133 0)
(-0.000489403 -0.00380438 0)
(-0.000564656 0.00452075 0)
(-0.00220628 0.00772411 0)
(-0.00382342 0.00834121 0)
(-0.00529788 0.00792393 0)
(-0.00657672 0.00709001 0)
(-0.00764651 0.00606414 0)
(-0.00850673 0.00493511 0)
(-0.00916388 0.00374655 0)
(-0.00962719 0.0025239 0)
(-0.00990556 0.00128266 0)
(-0.0100051 3.22072e-05 0)
(-0.00992758 -0.00122113 0)
(-0.00967019 -0.00247103 0)
(-0.00922558 -0.0037081 0)
(-0.00858342 -0.00491663 0)
(-0.0077327 -0.00607046 0)
(-0.00666505 -0.00712433 0)
(-0.00537931 -0.00798612 0)
(-0.00388818 -0.00842509 0)
(-0.0022459 -0.00781265 0)
(-0.000574669 -0.00457701 0)
(-0.000670004 0.00541245 0)
(-0.00261354 0.00921738 0)
(-0.00450792 0.00990934 0)
(-0.0062078 0.00935841 0)
(-0.00765301 0.00831791 0)
(-0.00883618 0.0070668 0)
(-0.0097677 0.00571609 0)
(-0.0104661 0.00431788 0)
(-0.0109513 0.0028991 0)
(-0.0112407 0.00147256 0)
(-0.0113454 4.25053e-05 0)
(-0.0112691 -0.001391 0)
(-0.0110071 -0.00282803 0)
(-0.010547 -0.00426461 0)
(-0.0098698 -0.00568815 0)
(-0.00895296 -0.00707142 0)
(-0.007775 -0.00836064 0)
(-0.00632248 -0.00944064 0)
(-0.00460076 -0.0100238 0)
(-0.00267113 -0.00934059 0)
(-0.00068465 -0.00549167 0)
(-0.000807227 0.00647915 0)
(-0.00314228 0.010985 0)
(-0.0053844 0.0117359 0)
(-0.00735148 0.0109936 0)
(-0.00897783 0.00968319 0)
(-0.0102699 0.00815341 0)
(-0.0112577 0.00654225 0)
(-0.011979 0.00491002 0)
(-0.0124699 0.0032824 0)
(-0.0127594 0.00166586 0)
(-0.0128658 5.56312e-05 0)
(-0.0127953 -0.00155854 0)
(-0.0125411 -0.00318721 0)
(-0.0120838 -0.004836 0)
(-0.0113923 -0.0064995 0)
(-0.0104274 -0.00815264 0)
(-0.00914653 -0.00973403 0)
(-0.00751423 -0.0111008 0)
(-0.0055194 -0.011892 0)
(-0.00322762 -0.0111578 0)
(-0.000829082 -0.00659211 0)
(-0.000989128 0.00777842 0)
(-0.00384202 0.0131069 0)
(-0.00652356 0.013878 0)
(-0.00880157 0.012853 0)
(-0.0106121 0.0111822 0)
(-0.0119908 0.00930401 0)
(-0.0130012 0.00738754 0)
(-0.0137112 0.00549826 0)
(-0.0141798 0.00365525 0)
(-0.0144516 0.00185293 0)
(-0.0145538 7.20825e-05 0)
(-0.0144959 -0.00171295 0)
(-0.0142686 -0.00352841 0)
(-0.0138442 -0.00539522 0)
(-0.0131761 -0.00732146 0)
(-0.0122013 -0.0092906 0)
(-0.0108451 -0.0112378 0)
(-0.0090342 -0.0129895 0)
(-0.00672293 -0.0140902 0)
(-0.0039714 -0.0133515 0)
(-0.00102254 -0.00794236 0)
(-0.00123172 0.00939772 0)
(-0.00477919 0.0156988 0)
(-0.00801431 0.0164064 0)
(-0.0106377 0.0149518 0)
(-0.0126078 0.0127903 0)
(-0.0140178 0.0104748 0)
(-0.0149879 0.00820469 0)
(-0.0156294 0.00604174 0)
(-0.0160319 0.00398849 0)
(-0.0162587 0.00201884 0)
(-0.0163474 9.22594e-05 0)
(-0.0163112 -0.00183823 0)
(-0.0161385 -0.00382055 0)
(-0.0157926 -0.00589814 0)
(-0.0152089 -0.00810184 0)
(-0.0142939 -0.0104351 0)
(-0.0129264 -0.0128409 0)
(-0.0109705 -0.0151181 0)
(-0.00831224 -0.0166926 0)
(-0.00497958 -0.0160494 0)
(-0.00128399 -0.00964128 0)
(-0.00154112 0.0114748 0)
(-0.00600043 0.0189354 0)
(-0.00989967 0.0194061 0)
(-0.0128551 0.017282 0)
(-0.014896 0.0144445 0)
(-0.0162228 0.0115837 0)
(-0.017043 0.00891571 0)
(-0.0175268 0.006478 0)
(-0.017799 0.00423968 0)
(-0.0179422 0.00214232 0)
(-0.0180036 0.000116297 0)
(-0.0179998 -0.00191246 0)
(-0.0179181 -0.00401937 0)
(-0.0177142 -0.00627831 0)
(-0.0173068 -0.00875539 0)
(-0.0165682 -0.0114929 0)
(-0.0153167 -0.0144666 0)
(-0.013321 -0.0174675 0)
(-0.010342 -0.0197841 0)
(-0.00631291 -0.0194434 0)
(-0.0016237 -0.0118471 0)
(-0.0018491 0.0142224 0)
(-0.00733008 0.0230708 0)
(-0.0118581 0.022957 0)
(-0.0149632 0.0197757 0)
(-0.0168392 0.0160098 0)
(-0.0178604 0.0124885 0)
(-0.0183509 0.00940025 0)
(-0.0185454 0.00671808 0)
(-0.0185991 0.00435146 0)
(-0.0186073 0.00219525 0)
(-0.0186216 0.000143643 0)
(-0.0186602 -0.0019082 0)
(-0.0187111 -0.00406667 0)
(-0.0187289 -0.00644287 0)
(-0.0186237 -0.00915263 0)
(-0.0182419 -0.0123051 0)
(-0.0173404 -0.0159548 0)
(-0.0155653 -0.0199422 0)
(-0.0124783 -0.0234313 0)
(-0.00780042 -0.0238072 0)
(-0.00197605 -0.0148079 0)
(-0.00176758 0.0179023 0)
(-0.00759684 0.0283659 0)
(-0.0120555 0.0270137 0)
(-0.0146281 0.0221989 0)
(-0.0157809 0.0172121 0)
(-0.0160875 0.0129529 0)
(-0.0159697 0.00948261 0)
(-0.0156945 0.0066435 0)
(-0.0154186 0.00425199 0)
(-0.0152286 0.00214303 0)
(-0.0151679 0.000171861 0)
(-0.015252 -0.00179543 0)
(-0.0154727 -0.00389405 0)
(-0.0157953 -0.00627372 0)
(-0.0161434 -0.00911136 0)
(-0.0163712 -0.012616 0)
(-0.0162166 -0.0169932 0)
(-0.0152379 -0.0222518 0)
(-0.01278 -0.0275367 0)
(-0.00821841 -0.0294003 0)
(-0.00194273 -0.0188383 0)
(0.000198034 0.0225776 0)
(-0.00231617 0.0346532 0)
(-0.00394319 0.0309985 0)
(-0.00411105 0.0238946 0)
(-0.00338846 0.0175155 0)
(-0.00230926 0.0126028 0)
(-0.00120378 0.00892347 0)
(-0.000248035 0.00611011 0)
(0.000474082 0.00385996 0)
(0.000926657 0.00194645 0)
(0.00109627 0.000193812 0)
(0.000978851 -0.00154963 0)
(0.000575052 -0.0034358 0)
(-0.000107576 -0.00564238 0)
(-0.00104482 -0.0084041 0)
(-0.00217465 -0.0120494 0)
(-0.00335444 -0.0170108 0)
(-0.00428241 -0.0236504 0)
(-0.00438354 -0.0313847 0)
(-0.00288057 -0.0359509 0)
(2.15531e-05 -0.0240437 0)
(0.0091698 0.0268341 0)
(0.0217281 0.0394421 0)
(0.0301158 0.0325482 0)
(0.0360992 0.0232042 0)
(0.0404862 0.0159266 0)
(0.043752 0.0108898 0)
(0.0461845 0.00743325 0)
(0.0479556 0.00496822 0)
(0.0491756 0.00309872 0)
(0.0499153 0.00156711 0)
(0.0502165 0.000193923 0)
(0.050096 -0.00116553 0)
(0.0495463 -0.00265437 0)
(0.0485322 -0.00444802 0)
(0.0469822 -0.00680108 0)
(0.0447641 -0.01012 0)
(0.0416401 -0.0150506 0)
(0.0371932 -0.0224234 0)
(0.0308132 -0.0323884 0)
(0.0217823 -0.0406365 0)
(0.00915017 -0.0289772 0)
(0.0427634 0.0262439 0)
(0.096232 0.0360007 0)
(0.125789 0.0268056 0)
(0.141476 0.017517 0)
(0.150394 0.0112465 0)
(0.15582 0.00731862 0)
(0.159326 0.00482719 0)
(0.161653 0.00315706 0)
(0.163172 0.00194848 0)
(0.164077 0.000990647 0)
(0.164466 0.000148736 0)
(0.164378 -0.00067963 0)
(0.1638 -0.00159381 0)
(0.16266 -0.0027189 0)
(0.160787 -0.00424831 0)
(0.157815 -0.00652061 0)
(0.152939 -0.0101524 0)
(0.144363 -0.0161639 0)
(0.12836 -0.0256349 0)
(0.0974354 -0.0362007 0)
(0.0430953 -0.0287627 0)
(0.179977 0.00312743 0)
(0.285418 0.0034051 0)
(0.329848 0.00467596 0)
(0.347989 0.0039582 0)
(0.356682 0.00282137 0)
(0.361296 0.00191667 0)
(0.36401 0.00128366 0)
(0.365703 0.000843951 0)
(0.366769 0.000523499 0)
(0.367395 0.000270875 0)
(0.367673 5.08311e-05 0)
(0.367636 -0.000163631 0)
(0.367274 -0.000397626 0)
(0.366527 -0.000679581 0)
(0.36524 -0.00104519 0)
(0.363052 -0.00153651 0)
(0.359073 -0.00217829 0)
(0.350957 -0.00288574 0)
(0.332733 -0.00317198 0)
(0.286488 -0.00244669 0)
(0.17852 -0.00569566 0)
)
;

boundaryField
{
    movingWall
    {
        type            fixedValue;
        value           uniform (0.5 0 0);
    }
    fixedWalls
    {
        type            noSlip;
    }
    frontAndBack
    {
        type            empty;
    }
}


// ************************************************************************* //
