/*--------------------------------*- C++ -*----------------------------------*\
| =========                 |                                                 |
| \\      /  F ield         | OpenFOAM: The Open Source CFD Toolbox           |
|  \\    /   O peration     | Version:  4.1                                   |
|   \\  /    A nd           | Web:      www.OpenFOAM.org                      |
|    \\/     M anipulation  |                                                 |
\*---------------------------------------------------------------------------*/
FoamFile
{
    version     2.0;
    format      ascii;
    class       volScalarField;
    location    "605";
    object      p;
}
// * * * * * * * * * * * * * * * * * * * * * * * * * * * * * * * * * * * * * //

dimensions      [1 -1 -2 0 0 0 0];

internalField   nonuniform List<scalar> 
3264
(
0.712507
0.712505
0.712504
0.712504
0.712504
0.712504
0.712505
0.712507
0.71251
0.712513
0.712518
0.712523
0.712529
0.712537
0.712545
0.712554
0.712565
0.712576
0.712588
0.712602
0.712617
0.712632
0.712649
0.712667
0.712686
0.712706
0.712728
0.712751
0.712774
0.712799
0.712826
0.712853
0.712882
0.712913
0.712944
0.712977
0.713012
0.713048
0.713085
0.713124
0.713164
0.713205
0.713248
0.713293
0.713338
0.713385
0.713433
0.713482
0.713531
0.713582
0.713633
0.713684
0.713736
0.713788
0.713839
0.713891
0.713941
0.713991
0.71404
0.714087
0.714133
0.714177
0.71422
0.714261
0.714299
0.714336
0.71437
0.714402
0.714431
0.714459
0.714484
0.714506
0.714527
0.714546
0.714562
0.714577
0.71459
0.714601
0.71461
0.714619
0.714626
0.714632
0.714637
0.714642
0.714645
0.714648
0.714651
0.714653
0.714655
0.714656
0.714658
0.714659
0.71466
0.714661
0.714663
0.714664
0.714665
0.714666
0.714667
0.714669
0.71467
0.714671
0.714672
0.714674
0.714675
0.714676
0.714678
0.714679
0.71468
0.714682
0.714683
0.714684
0.714685
0.714686
0.714687
0.714687
0.714688
0.714688
0.714689
0.714689
0.714689
0.714689
0.714688
0.714688
0.714687
0.714686
0.714686
0.714684
0.714683
0.714682
0.71468
0.714678
0.714676
0.714674
0.714672
0.714669
0.714666
0.714663
0.71466
0.714657
0.714654
0.71465
0.714647
0.714643
0.714639
0.714635
0.714631
0.714626
0.714622
0.714617
0.714612
0.714608
0.714603
0.714597
0.714592
0.714587
0.714581
0.714576
0.71457
0.714565
0.714559
0.714553
0.714547
0.714541
0.714535
0.714529
0.714523
0.714516
0.71451
0.714504
0.714497
0.714491
0.714484
0.714478
0.714471
0.714464
0.714457
0.714451
0.714444
0.714437
0.71443
0.714423
0.714416
0.714409
0.714402
0.714395
0.714388
0.71438
0.714373
0.714366
0.714359
0.714351
0.714344
0.714337
0.714329
0.714322
0.714314
0.714307
0.714298
0.714292
0.712509
0.712507
0.712506
0.712506
0.712506
0.712507
0.712508
0.71251
0.712512
0.712516
0.71252
0.712525
0.712531
0.712538
0.712546
0.712556
0.712566
0.712577
0.71259
0.712603
0.712618
0.712633
0.71265
0.712668
0.712687
0.712707
0.712728
0.712751
0.712775
0.7128
0.712826
0.712853
0.712882
0.712912
0.712944
0.712977
0.713011
0.713047
0.713084
0.713122
0.713162
0.713203
0.713246
0.71329
0.713336
0.713382
0.71343
0.713478
0.713528
0.713578
0.713629
0.71368
0.713732
0.713784
0.713835
0.713886
0.713937
0.713986
0.714035
0.714082
0.714128
0.714172
0.714215
0.714256
0.714294
0.714331
0.714365
0.714397
0.714427
0.714454
0.714479
0.714502
0.714523
0.714542
0.714558
0.714573
0.714586
0.714597
0.714607
0.714616
0.714623
0.71463
0.714635
0.71464
0.714643
0.714647
0.714649
0.714652
0.714654
0.714656
0.714657
0.714659
0.71466
0.714661
0.714662
0.714664
0.714665
0.714666
0.714667
0.714669
0.71467
0.714672
0.714673
0.714674
0.714676
0.714677
0.714678
0.71468
0.714681
0.714682
0.714683
0.714685
0.714686
0.714686
0.714687
0.714688
0.714688
0.714689
0.714689
0.714689
0.714689
0.714689
0.714689
0.714688
0.714688
0.714687
0.714686
0.714685
0.714683
0.714682
0.71468
0.714678
0.714676
0.714674
0.714672
0.714669
0.714667
0.714664
0.714661
0.714657
0.714654
0.714651
0.714647
0.714643
0.714639
0.714635
0.714631
0.714626
0.714622
0.714617
0.714612
0.714608
0.714603
0.714597
0.714592
0.714587
0.714581
0.714576
0.71457
0.714565
0.714559
0.714553
0.714547
0.714541
0.714535
0.714529
0.714523
0.714516
0.71451
0.714503
0.714497
0.71449
0.714484
0.714477
0.714471
0.714464
0.714457
0.71445
0.714443
0.714437
0.71443
0.714423
0.714416
0.714409
0.714402
0.714394
0.714387
0.71438
0.714373
0.714366
0.714358
0.714351
0.714344
0.714336
0.714329
0.714321
0.714314
0.714306
0.714298
0.714292
0.71251
0.712508
0.712507
0.712506
0.712506
0.712506
0.712507
0.712509
0.712511
0.712514
0.712519
0.712524
0.71253
0.712537
0.712545
0.712554
0.712565
0.712576
0.712588
0.712602
0.712616
0.712632
0.712649
0.712666
0.712685
0.712706
0.712727
0.712749
0.712773
0.712798
0.712824
0.712852
0.71288
0.71291
0.712942
0.712974
0.713009
0.713044
0.713081
0.71312
0.713159
0.713201
0.713243
0.713287
0.713332
0.713379
0.713426
0.713475
0.713525
0.713575
0.713626
0.713677
0.713729
0.71378
0.713832
0.713883
0.713933
0.713983
0.714031
0.714079
0.714125
0.714169
0.714212
0.714252
0.714291
0.714327
0.714362
0.714394
0.714423
0.714451
0.714476
0.714499
0.714519
0.714538
0.714555
0.714569
0.714583
0.714594
0.714604
0.714613
0.71462
0.714627
0.714632
0.714637
0.714641
0.714644
0.714647
0.71465
0.714652
0.714654
0.714655
0.714657
0.714659
0.71466
0.714661
0.714663
0.714664
0.714666
0.714667
0.714668
0.71467
0.714671
0.714673
0.714674
0.714676
0.714677
0.714679
0.71468
0.714681
0.714683
0.714684
0.714685
0.714686
0.714687
0.714688
0.714688
0.714689
0.714689
0.71469
0.71469
0.71469
0.71469
0.714689
0.714689
0.714688
0.714687
0.714686
0.714685
0.714684
0.714682
0.714681
0.714679
0.714677
0.714675
0.714672
0.71467
0.714667
0.714664
0.714661
0.714658
0.714654
0.714651
0.714647
0.714643
0.714639
0.714635
0.714631
0.714627
0.714622
0.714617
0.714613
0.714608
0.714603
0.714598
0.714592
0.714587
0.714582
0.714576
0.71457
0.714565
0.714559
0.714553
0.714547
0.714541
0.714535
0.714529
0.714523
0.714516
0.71451
0.714503
0.714497
0.71449
0.714484
0.714477
0.714471
0.714464
0.714457
0.71445
0.714443
0.714437
0.71443
0.714423
0.714416
0.714409
0.714401
0.714394
0.714387
0.71438
0.714373
0.714365
0.714358
0.714351
0.714343
0.714336
0.714329
0.714321
0.714313
0.714306
0.714298
0.714293
0.712505
0.712504
0.712503
0.712504
0.712503
0.712504
0.712505
0.712506
0.712509
0.712512
0.712516
0.712522
0.712528
0.712535
0.712543
0.712552
0.712563
0.712574
0.712586
0.7126
0.712614
0.71263
0.712647
0.712664
0.712683
0.712704
0.712725
0.712747
0.712771
0.712796
0.712822
0.712849
0.712878
0.712908
0.712939
0.712971
0.713005
0.713041
0.713078
0.713116
0.713156
0.713197
0.713239
0.713283
0.713328
0.713374
0.713422
0.71347
0.71352
0.71357
0.713621
0.713672
0.713723
0.713775
0.713826
0.713877
0.713927
0.713976
0.714025
0.714072
0.714118
0.714162
0.714204
0.714245
0.714283
0.714319
0.714353
0.714385
0.714415
0.714442
0.714467
0.714489
0.71451
0.714529
0.714545
0.71456
0.714573
0.714585
0.714595
0.714604
0.714612
0.714618
0.714624
0.714629
0.714633
0.714637
0.71464
0.714643
0.714646
0.714648
0.714651
0.714653
0.714654
0.714656
0.714658
0.71466
0.714662
0.714663
0.714665
0.714667
0.714669
0.71467
0.714672
0.714674
0.714675
0.714677
0.714679
0.71468
0.714682
0.714683
0.714684
0.714686
0.714687
0.714688
0.714689
0.714689
0.71469
0.71469
0.714691
0.714691
0.714691
0.714691
0.71469
0.71469
0.714689
0.714688
0.714687
0.714686
0.714685
0.714683
0.714682
0.71468
0.714678
0.714676
0.714673
0.714671
0.714668
0.714665
0.714662
0.714659
0.714655
0.714652
0.714648
0.714644
0.71464
0.714636
0.714632
0.714627
0.714623
0.714618
0.714613
0.714608
0.714603
0.714598
0.714593
0.714588
0.714582
0.714577
0.714571
0.714565
0.714559
0.714553
0.714547
0.714541
0.714535
0.714529
0.714523
0.714516
0.71451
0.714504
0.714497
0.714491
0.714484
0.714477
0.714471
0.714464
0.714457
0.71445
0.714443
0.714437
0.71443
0.714423
0.714416
0.714408
0.714401
0.714394
0.714387
0.71438
0.714373
0.714365
0.714358
0.714351
0.714343
0.714336
0.714328
0.714321
0.714313
0.714306
0.714298
0.714293
0.712502
0.712502
0.712499
0.712499
0.712498
0.712499
0.7125
0.712502
0.712504
0.712508
0.712512
0.712518
0.712524
0.712531
0.71254
0.712549
0.71256
0.712571
0.712583
0.712597
0.712612
0.712627
0.712644
0.712662
0.712681
0.712701
0.712722
0.712745
0.712768
0.712793
0.712819
0.712847
0.712875
0.712905
0.712936
0.712969
0.713003
0.713038
0.713075
0.713113
0.713153
0.713194
0.713236
0.71328
0.713325
0.713371
0.713419
0.713467
0.713516
0.713566
0.713617
0.713667
0.713719
0.71377
0.713821
0.713871
0.713921
0.71397
0.714018
0.714064
0.714109
0.714153
0.714194
0.714234
0.714272
0.714308
0.714341
0.714372
0.714401
0.714428
0.714452
0.714474
0.714495
0.714513
0.714529
0.714544
0.714557
0.714569
0.714579
0.714588
0.714596
0.714603
0.71461
0.714615
0.71462
0.714624
0.714628
0.714632
0.714635
0.714638
0.714641
0.714644
0.714646
0.714649
0.714651
0.714654
0.714656
0.714659
0.714661
0.714663
0.714665
0.714668
0.71467
0.714672
0.714674
0.714676
0.714678
0.71468
0.714681
0.714683
0.714685
0.714686
0.714687
0.714688
0.714689
0.71469
0.714691
0.714692
0.714692
0.714692
0.714692
0.714692
0.714692
0.714691
0.714691
0.71469
0.714689
0.714688
0.714686
0.714685
0.714683
0.714681
0.714679
0.714677
0.714674
0.714672
0.714669
0.714666
0.714663
0.71466
0.714656
0.714653
0.714649
0.714645
0.714641
0.714637
0.714633
0.714628
0.714624
0.714619
0.714614
0.714609
0.714604
0.714599
0.714594
0.714588
0.714583
0.714577
0.714572
0.714566
0.71456
0.714554
0.714548
0.714542
0.714536
0.71453
0.714523
0.714517
0.714511
0.714504
0.714498
0.714491
0.714484
0.714478
0.714471
0.714464
0.714458
0.714451
0.714444
0.714437
0.71443
0.714423
0.714416
0.714409
0.714402
0.714394
0.714387
0.71438
0.714373
0.714365
0.714358
0.714351
0.714343
0.714336
0.714328
0.714321
0.714313
0.714306
0.714298
0.714293
0.71247
0.712485
0.712485
0.71249
0.712491
0.712494
0.712496
0.712498
0.712501
0.712505
0.71251
0.712515
0.712522
0.712529
0.712538
0.712547
0.712558
0.712569
0.712582
0.712596
0.71261
0.712626
0.712643
0.712661
0.71268
0.7127
0.712721
0.712744
0.712767
0.712792
0.712818
0.712845
0.712874
0.712904
0.712935
0.712968
0.713002
0.713037
0.713074
0.713112
0.713152
0.713193
0.713235
0.713279
0.713324
0.71337
0.713417
0.713465
0.713514
0.713564
0.713614
0.713664
0.713715
0.713765
0.713816
0.713865
0.713914
0.713962
0.714009
0.714054
0.714098
0.71414
0.714181
0.714219
0.714256
0.71429
0.714322
0.714352
0.71438
0.714406
0.714429
0.714451
0.714471
0.714488
0.714504
0.714519
0.714532
0.714544
0.714554
0.714564
0.714572
0.71458
0.714587
0.714593
0.714599
0.714604
0.714609
0.714614
0.714618
0.714622
0.714626
0.71463
0.714634
0.714637
0.714641
0.714644
0.714647
0.714651
0.714654
0.714657
0.71466
0.714663
0.714666
0.714669
0.714671
0.714674
0.714676
0.714678
0.714681
0.714683
0.714684
0.714686
0.714688
0.714689
0.71469
0.714691
0.714692
0.714693
0.714693
0.714694
0.714694
0.714694
0.714693
0.714693
0.714692
0.714692
0.714691
0.714689
0.714688
0.714687
0.714685
0.714683
0.714681
0.714679
0.714676
0.714673
0.714671
0.714668
0.714665
0.714661
0.714658
0.714654
0.714651
0.714647
0.714643
0.714638
0.714634
0.71463
0.714625
0.71462
0.714616
0.714611
0.714606
0.7146
0.714595
0.71459
0.714584
0.714579
0.714573
0.714567
0.714561
0.714555
0.714549
0.714543
0.714537
0.714531
0.714525
0.714518
0.714512
0.714505
0.714499
0.714492
0.714485
0.714479
0.714472
0.714465
0.714458
0.714451
0.714444
0.714437
0.71443
0.714423
0.714416
0.714409
0.714402
0.714395
0.714387
0.71438
0.714373
0.714365
0.714358
0.714351
0.714343
0.714336
0.714328
0.71432
0.714313
0.714305
0.714298
0.714291
0.712469
0.712486
0.712484
0.712487
0.712488
0.71249
0.712492
0.712495
0.712499
0.712503
0.712508
0.712514
0.712521
0.712529
0.712537
0.712547
0.712558
0.712569
0.712582
0.712596
0.71261
0.712626
0.712643
0.712661
0.71268
0.712701
0.712722
0.712745
0.712768
0.712793
0.71282
0.712847
0.712876
0.712906
0.712938
0.71297
0.713005
0.71304
0.713077
0.713116
0.713156
0.713197
0.713239
0.713283
0.713328
0.713374
0.713421
0.713468
0.713517
0.713566
0.713615
0.713665
0.713715
0.713764
0.713813
0.713861
0.713908
0.713955
0.714
0.714044
0.714086
0.714126
0.714165
0.714201
0.714236
0.714268
0.714298
0.714327
0.714353
0.714377
0.714399
0.71442
0.714439
0.714456
0.714471
0.714485
0.714498
0.71451
0.714521
0.714531
0.71454
0.714549
0.714556
0.714564
0.714571
0.714577
0.714584
0.71459
0.714595
0.714601
0.714606
0.714612
0.714617
0.714622
0.714626
0.714631
0.714636
0.71464
0.714644
0.714649
0.714653
0.714657
0.71466
0.714664
0.714667
0.71467
0.714673
0.714676
0.714679
0.714681
0.714684
0.714686
0.714688
0.714689
0.714691
0.714692
0.714693
0.714694
0.714695
0.714695
0.714696
0.714696
0.714695
0.714695
0.714694
0.714694
0.714693
0.714692
0.71469
0.714689
0.714687
0.714685
0.714683
0.714681
0.714678
0.714676
0.714673
0.71467
0.714667
0.714663
0.71466
0.714656
0.714652
0.714649
0.714644
0.71464
0.714636
0.714631
0.714627
0.714622
0.714617
0.714612
0.714607
0.714602
0.714597
0.714591
0.714586
0.71458
0.714575
0.714569
0.714563
0.714557
0.714551
0.714545
0.714539
0.714532
0.714526
0.71452
0.714513
0.714507
0.7145
0.714493
0.714487
0.71448
0.714473
0.714466
0.714459
0.714453
0.714446
0.714439
0.714431
0.714424
0.714417
0.71441
0.714403
0.714395
0.714388
0.714381
0.714373
0.714366
0.714358
0.714351
0.714343
0.714336
0.714328
0.71432
0.714312
0.714305
0.714297
0.71429
0.712315
0.712453
0.71247
0.712491
0.712494
0.712497
0.712499
0.712501
0.712504
0.712508
0.712513
0.712518
0.712525
0.712532
0.712541
0.71255
0.712561
0.712572
0.712585
0.712599
0.712614
0.712629
0.712647
0.712665
0.712684
0.712705
0.712726
0.712749
0.712773
0.712799
0.712825
0.712853
0.712883
0.712913
0.712945
0.712978
0.713013
0.713049
0.713086
0.713125
0.713165
0.713207
0.713249
0.713293
0.713338
0.713384
0.71343
0.713478
0.713525
0.713574
0.713622
0.71367
0.713719
0.713766
0.713813
0.71386
0.713905
0.713949
0.713992
0.714033
0.714073
0.71411
0.714146
0.71418
0.714212
0.714242
0.71427
0.714296
0.71432
0.714343
0.714364
0.714383
0.714401
0.714417
0.714432
0.714446
0.714459
0.714471
0.714483
0.714493
0.714504
0.714513
0.714522
0.714531
0.714539
0.714548
0.714555
0.714563
0.71457
0.714578
0.714585
0.714591
0.714598
0.714605
0.714611
0.714617
0.714623
0.714629
0.714634
0.714639
0.714644
0.714649
0.714654
0.714658
0.714663
0.714667
0.71467
0.714674
0.714677
0.71468
0.714683
0.714685
0.714688
0.71469
0.714692
0.714693
0.714695
0.714696
0.714696
0.714697
0.714697
0.714698
0.714698
0.714697
0.714697
0.714696
0.714695
0.714694
0.714693
0.714691
0.714689
0.714687
0.714685
0.714683
0.714681
0.714678
0.714675
0.714672
0.714669
0.714666
0.714662
0.714658
0.714655
0.714651
0.714647
0.714642
0.714638
0.714634
0.714629
0.714624
0.714619
0.714615
0.714609
0.714604
0.714599
0.714594
0.714588
0.714582
0.714577
0.714571
0.714565
0.714559
0.714553
0.714547
0.714541
0.714534
0.714528
0.714522
0.714515
0.714509
0.714502
0.714495
0.714489
0.714482
0.714475
0.714468
0.714461
0.714454
0.714447
0.71444
0.714433
0.714426
0.714418
0.714411
0.714404
0.714396
0.714389
0.714382
0.714374
0.714367
0.714359
0.714351
0.714344
0.714336
0.714328
0.71432
0.714312
0.714304
0.714296
0.714289
0.713038
0.712981
0.712919
0.712852
0.71278
0.712703
0.712616
0.712499
0.713044
0.712997
0.712935
0.712866
0.712793
0.712715
0.712625
0.712529
0.713048
0.713009
0.712951
0.712885
0.712816
0.712745
0.712674
0.712605
0.713057
0.713023
0.712971
0.71291
0.712845
0.712781
0.712718
0.71266
0.71307
0.713038
0.712988
0.712932
0.712873
0.712815
0.712761
0.712713
0.713084
0.713051
0.713002
0.712948
0.712894
0.712842
0.712794
0.712751
0.713099
0.713061
0.713011
0.712959
0.712907
0.712859
0.712814
0.712774
0.713106
0.713059
0.713009
0.712959
0.71291
0.712864
0.712821
0.712781
0.712439
0.712459
0.712479
0.71249
0.712496
0.712499
0.712502
0.712504
0.712507
0.712511
0.712516
0.712522
0.712528
0.712536
0.712545
0.712554
0.712565
0.712577
0.71259
0.712604
0.712619
0.712636
0.712653
0.712672
0.712692
0.712713
0.712735
0.712759
0.712783
0.712809
0.712837
0.712865
0.712895
0.712927
0.712959
0.712994
0.713029
0.713066
0.713104
0.713143
0.713183
0.713225
0.713268
0.713312
0.713356
0.713402
0.713448
0.713495
0.713541
0.713588
0.713635
0.713682
0.713728
0.713774
0.713819
0.713862
0.713905
0.713946
0.713986
0.714024
0.71406
0.714095
0.714127
0.714158
0.714187
0.714215
0.71424
0.714264
0.714286
0.714307
0.714326
0.714344
0.714361
0.714377
0.714392
0.714406
0.71442
0.714432
0.714445
0.714456
0.714468
0.714479
0.714489
0.714499
0.714509
0.714519
0.714529
0.714538
0.714547
0.714556
0.714564
0.714573
0.714581
0.714589
0.714596
0.714604
0.714611
0.714618
0.714625
0.714631
0.714637
0.714643
0.714648
0.714654
0.714659
0.714663
0.714668
0.714672
0.714676
0.714679
0.714682
0.714685
0.714688
0.71469
0.714692
0.714694
0.714696
0.714697
0.714698
0.714699
0.714699
0.7147
0.7147
0.7147
0.714699
0.714698
0.714697
0.714696
0.714695
0.714694
0.714692
0.71469
0.714688
0.714685
0.714683
0.71468
0.714677
0.714674
0.714671
0.714668
0.714664
0.714661
0.714657
0.714653
0.714649
0.714645
0.71464
0.714636
0.714631
0.714627
0.714622
0.714617
0.714612
0.714607
0.714601
0.714596
0.71459
0.714585
0.714579
0.714573
0.714567
0.714561
0.714555
0.714549
0.714543
0.714537
0.71453
0.714524
0.714517
0.714511
0.714504
0.714497
0.714491
0.714484
0.714477
0.71447
0.714463
0.714456
0.714449
0.714442
0.714434
0.714427
0.71442
0.714412
0.714405
0.714398
0.71439
0.714383
0.714375
0.714367
0.71436
0.714352
0.714344
0.714336
0.714329
0.714321
0.714312
0.714304
0.714296
0.714287
0.712459
0.712469
0.712482
0.712495
0.712502
0.712507
0.71251
0.712513
0.712516
0.71252
0.712524
0.71253
0.712536
0.712544
0.712553
0.712563
0.712574
0.712586
0.712599
0.712614
0.712629
0.712646
0.712664
0.712684
0.712704
0.712726
0.712749
0.712774
0.7128
0.712827
0.712855
0.712885
0.712916
0.712948
0.712982
0.713017
0.713053
0.713091
0.713129
0.713169
0.71321
0.713252
0.713295
0.713339
0.713383
0.713428
0.713473
0.713519
0.713564
0.71361
0.713655
0.713699
0.713743
0.713786
0.713827
0.713868
0.713907
0.713945
0.713981
0.714016
0.714048
0.71408
0.714109
0.714137
0.714163
0.714188
0.714211
0.714233
0.714253
0.714273
0.714291
0.714309
0.714325
0.714341
0.714357
0.714371
0.714385
0.714399
0.714412
0.714425
0.714438
0.71445
0.714462
0.714474
0.714486
0.714497
0.714508
0.714518
0.714529
0.714539
0.714549
0.714558
0.714568
0.714577
0.714586
0.714594
0.714602
0.71461
0.714617
0.714625
0.714632
0.714638
0.714644
0.71465
0.714656
0.714661
0.714666
0.714671
0.714675
0.714679
0.714682
0.714686
0.714688
0.714691
0.714693
0.714696
0.714697
0.714699
0.7147
0.714701
0.714701
0.714702
0.714702
0.714702
0.714701
0.714701
0.7147
0.714699
0.714697
0.714696
0.714694
0.714692
0.71469
0.714688
0.714685
0.714683
0.71468
0.714677
0.714674
0.71467
0.714667
0.714663
0.714659
0.714655
0.714651
0.714647
0.714643
0.714638
0.714634
0.714629
0.714624
0.714619
0.714614
0.714609
0.714603
0.714598
0.714593
0.714587
0.714581
0.714575
0.71457
0.714564
0.714557
0.714551
0.714545
0.714539
0.714532
0.714526
0.714519
0.714513
0.714506
0.714499
0.714493
0.714486
0.714479
0.714472
0.714465
0.714458
0.71445
0.714443
0.714436
0.714429
0.714421
0.714414
0.714406
0.714399
0.714391
0.714384
0.714376
0.714368
0.71436
0.714353
0.714345
0.714337
0.714329
0.714321
0.714313
0.714304
0.714296
0.714287
0.712553
0.712529
0.712523
0.712522
0.712523
0.712524
0.712525
0.712527
0.712529
0.712532
0.712536
0.712541
0.712547
0.712555
0.712564
0.712574
0.712585
0.712598
0.712611
0.712627
0.712643
0.712661
0.71268
0.7127
0.712721
0.712744
0.712768
0.712794
0.712821
0.712849
0.712879
0.712909
0.712942
0.712975
0.71301
0.713046
0.713083
0.713121
0.713161
0.713201
0.713243
0.713285
0.713328
0.713371
0.713415
0.713459
0.713503
0.713547
0.71359
0.713634
0.713676
0.713718
0.713759
0.713799
0.713837
0.713874
0.71391
0.713944
0.713977
0.714008
0.714038
0.714066
0.714092
0.714118
0.714142
0.714165
0.714186
0.714207
0.714227
0.714246
0.714264
0.714282
0.714298
0.714315
0.714331
0.714346
0.714361
0.714376
0.71439
0.714404
0.714418
0.714431
0.714445
0.714457
0.71447
0.714482
0.714494
0.714506
0.714517
0.714528
0.714539
0.714549
0.714559
0.714569
0.714579
0.714588
0.714597
0.714605
0.714613
0.714621
0.714628
0.714635
0.714642
0.714648
0.714654
0.71466
0.714665
0.71467
0.714675
0.714679
0.714683
0.714686
0.714689
0.714692
0.714695
0.714697
0.714699
0.7147
0.714702
0.714703
0.714703
0.714704
0.714704
0.714704
0.714703
0.714703
0.714702
0.714701
0.7147
0.714698
0.714696
0.714694
0.714692
0.71469
0.714688
0.714685
0.714682
0.714679
0.714676
0.714672
0.714669
0.714665
0.714661
0.714657
0.714653
0.714649
0.714645
0.71464
0.714636
0.714631
0.714626
0.714621
0.714616
0.714611
0.714605
0.7146
0.714595
0.714589
0.714583
0.714577
0.714571
0.714565
0.714559
0.714553
0.714547
0.714541
0.714534
0.714528
0.714521
0.714515
0.714508
0.714501
0.714494
0.714487
0.71448
0.714473
0.714466
0.714459
0.714452
0.714445
0.714437
0.71443
0.714422
0.714415
0.714407
0.7144
0.714392
0.714384
0.714377
0.714369
0.714361
0.714353
0.714345
0.714337
0.714329
0.714321
0.714313
0.714305
0.714296
0.714286
0.712614
0.712586
0.712571
0.712562
0.712557
0.712554
0.712551
0.71255
0.71255
0.712551
0.712553
0.712557
0.712562
0.712569
0.712578
0.712587
0.712599
0.712611
0.712626
0.712641
0.712658
0.712676
0.712696
0.712717
0.71274
0.712764
0.712789
0.712815
0.712843
0.712873
0.712903
0.712935
0.712969
0.713003
0.713039
0.713076
0.713113
0.713152
0.713192
0.713233
0.713274
0.713316
0.713359
0.713401
0.713444
0.713487
0.713529
0.713571
0.713613
0.713654
0.713694
0.713733
0.713771
0.713807
0.713843
0.713877
0.71391
0.713941
0.713971
0.714
0.714027
0.714053
0.714079
0.714103
0.714126
0.714148
0.714169
0.714189
0.714209
0.714228
0.714247
0.714265
0.714282
0.714299
0.714316
0.714332
0.714348
0.714363
0.714378
0.714393
0.714407
0.714421
0.714435
0.714449
0.714462
0.714475
0.714487
0.714499
0.714511
0.714523
0.714534
0.714545
0.714555
0.714566
0.714575
0.714585
0.714594
0.714603
0.714611
0.714619
0.714627
0.714634
0.714641
0.714648
0.714654
0.71466
0.714665
0.71467
0.714675
0.714679
0.714683
0.714687
0.71469
0.714693
0.714696
0.714698
0.7147
0.714702
0.714703
0.714704
0.714705
0.714705
0.714706
0.714706
0.714705
0.714705
0.714704
0.714703
0.714701
0.7147
0.714698
0.714696
0.714694
0.714692
0.714689
0.714687
0.714684
0.714681
0.714678
0.714674
0.714671
0.714667
0.714663
0.714659
0.714655
0.714651
0.714646
0.714642
0.714637
0.714633
0.714628
0.714623
0.714618
0.714612
0.714607
0.714602
0.714596
0.71459
0.714585
0.714579
0.714573
0.714567
0.714561
0.714555
0.714548
0.714542
0.714536
0.714529
0.714523
0.714516
0.714509
0.714502
0.714495
0.714489
0.714482
0.714474
0.714467
0.71446
0.714453
0.714445
0.714438
0.714431
0.714423
0.714416
0.714408
0.7144
0.714393
0.714385
0.714377
0.714369
0.714361
0.714354
0.714346
0.714338
0.71433
0.714321
0.714313
0.714305
0.714296
0.714286
0.712674
0.712644
0.712623
0.712608
0.712597
0.712588
0.712581
0.712576
0.712572
0.712571
0.712571
0.712573
0.712577
0.712583
0.712591
0.7126
0.712611
0.712624
0.712638
0.712654
0.712672
0.712691
0.712711
0.712733
0.712756
0.712781
0.712807
0.712834
0.712863
0.712893
0.712925
0.712957
0.712991
0.713027
0.713063
0.7131
0.713138
0.713177
0.713217
0.713258
0.713299
0.71334
0.713381
0.713423
0.713464
0.713506
0.713546
0.713587
0.713626
0.713665
0.713703
0.71374
0.713776
0.71381
0.713844
0.713876
0.713907
0.713936
0.713965
0.713993
0.714019
0.714044
0.714069
0.714092
0.714115
0.714137
0.714159
0.714179
0.714199
0.714219
0.714238
0.714256
0.714274
0.714292
0.714309
0.714325
0.714341
0.714357
0.714373
0.714388
0.714403
0.714417
0.714431
0.714445
0.714458
0.714471
0.714484
0.714497
0.714509
0.71452
0.714532
0.714543
0.714554
0.714564
0.714574
0.714584
0.714593
0.714602
0.714611
0.714619
0.714627
0.714634
0.714641
0.714648
0.714654
0.71466
0.714666
0.714671
0.714676
0.71468
0.714684
0.714688
0.714691
0.714694
0.714697
0.714699
0.714701
0.714703
0.714704
0.714705
0.714706
0.714707
0.714707
0.714707
0.714706
0.714706
0.714705
0.714704
0.714703
0.714701
0.7147
0.714698
0.714695
0.714693
0.714691
0.714688
0.714685
0.714682
0.714679
0.714675
0.714672
0.714668
0.714664
0.71466
0.714656
0.714652
0.714648
0.714643
0.714638
0.714634
0.714629
0.714624
0.714619
0.714613
0.714608
0.714603
0.714597
0.714592
0.714586
0.71458
0.714574
0.714568
0.714562
0.714556
0.714549
0.714543
0.714537
0.71453
0.714523
0.714517
0.71451
0.714503
0.714496
0.714489
0.714482
0.714475
0.714468
0.714461
0.714453
0.714446
0.714439
0.714431
0.714424
0.714416
0.714408
0.714401
0.714393
0.714385
0.714377
0.71437
0.714362
0.714354
0.714346
0.714338
0.71433
0.714322
0.714313
0.714305
0.714297
0.714287
0.712715
0.712685
0.712661
0.712641
0.712625
0.712612
0.712601
0.712592
0.712586
0.712583
0.712581
0.712582
0.712585
0.712591
0.712598
0.712607
0.712618
0.712631
0.712646
0.712662
0.71268
0.712699
0.71272
0.712742
0.712766
0.712791
0.712817
0.712845
0.712875
0.712905
0.712937
0.71297
0.713004
0.71304
0.713076
0.713113
0.713151
0.71319
0.71323
0.71327
0.71331
0.71335
0.713391
0.713432
0.713472
0.713512
0.713552
0.713591
0.713629
0.713666
0.713703
0.713738
0.713773
0.713807
0.713839
0.713871
0.713901
0.71393
0.713959
0.713986
0.714013
0.714038
0.714063
0.714087
0.71411
0.714133
0.714154
0.714175
0.714196
0.714215
0.714234
0.714253
0.714271
0.714289
0.714306
0.714323
0.714339
0.714355
0.714371
0.714386
0.714401
0.714416
0.71443
0.714444
0.714457
0.71447
0.714483
0.714496
0.714508
0.71452
0.714531
0.714543
0.714553
0.714564
0.714574
0.714584
0.714593
0.714602
0.714611
0.714619
0.714627
0.714635
0.714642
0.714648
0.714655
0.714661
0.714666
0.714672
0.714676
0.714681
0.714685
0.714689
0.714692
0.714695
0.714698
0.7147
0.714702
0.714704
0.714705
0.714706
0.714707
0.714708
0.714708
0.714708
0.714708
0.714707
0.714706
0.714705
0.714704
0.714702
0.714701
0.714699
0.714697
0.714694
0.714692
0.714689
0.714686
0.714683
0.71468
0.714676
0.714673
0.714669
0.714665
0.714661
0.714657
0.714653
0.714648
0.714644
0.714639
0.714635
0.71463
0.714625
0.71462
0.714614
0.714609
0.714603
0.714598
0.714592
0.714587
0.714581
0.714575
0.714569
0.714563
0.714556
0.71455
0.714544
0.714537
0.714531
0.714524
0.714517
0.71451
0.714504
0.714497
0.71449
0.714483
0.714475
0.714468
0.714461
0.714454
0.714446
0.714439
0.714431
0.714424
0.714416
0.714409
0.714401
0.714393
0.714385
0.714377
0.71437
0.714362
0.714354
0.714346
0.714338
0.71433
0.714322
0.714313
0.714305
0.714297
0.714287
0.712739
0.712708
0.712682
0.712659
0.71264
0.712624
0.71261
0.7126
0.712592
0.712588
0.712586
0.712586
0.712589
0.712594
0.712601
0.71261
0.712621
0.712634
0.712649
0.712665
0.712683
0.712702
0.712723
0.712746
0.71277
0.712795
0.712822
0.71285
0.712879
0.71291
0.712942
0.712975
0.713009
0.713044
0.71308
0.713117
0.713155
0.713193
0.713232
0.713272
0.713312
0.713352
0.713392
0.713432
0.713471
0.713511
0.71355
0.713588
0.713626
0.713663
0.7137
0.713735
0.71377
0.713803
0.713836
0.713868
0.713898
0.713928
0.713956
0.713984
0.71401
0.714036
0.714061
0.714085
0.714108
0.714131
0.714152
0.714173
0.714194
0.714214
0.714233
0.714252
0.71427
0.714288
0.714305
0.714322
0.714338
0.714355
0.71437
0.714386
0.714401
0.714415
0.714429
0.714443
0.714457
0.71447
0.714483
0.714496
0.714508
0.71452
0.714531
0.714543
0.714554
0.714564
0.714574
0.714584
0.714593
0.714603
0.714611
0.714619
0.714627
0.714635
0.714642
0.714649
0.714655
0.714661
0.714667
0.714672
0.714677
0.714681
0.714685
0.714689
0.714693
0.714696
0.714698
0.714701
0.714703
0.714704
0.714706
0.714707
0.714708
0.714708
0.714708
0.714708
0.714708
0.714708
0.714707
0.714706
0.714704
0.714703
0.714701
0.714699
0.714697
0.714695
0.714692
0.714689
0.714687
0.714683
0.71468
0.714677
0.714673
0.71467
0.714666
0.714662
0.714658
0.714653
0.714649
0.714644
0.71464
0.714635
0.71463
0.714625
0.71462
0.714615
0.714609
0.714604
0.714598
0.714593
0.714587
0.714581
0.714575
0.714569
0.714563
0.714557
0.71455
0.714544
0.714537
0.714531
0.714524
0.714517
0.714511
0.714504
0.714497
0.71449
0.714483
0.714476
0.714468
0.714461
0.714454
0.714446
0.714439
0.714431
0.714424
0.714416
0.714408
0.714401
0.714393
0.714385
0.714377
0.714369
0.714362
0.714354
0.714346
0.714338
0.71433
0.714321
0.714313
0.714305
0.714298
0.714288
0.712745
0.712713
0.712684
0.712659
0.712638
0.71262
0.712606
0.712595
0.712587
0.712583
0.712581
0.712581
0.712584
0.712589
0.712596
0.712606
0.712617
0.71263
0.712644
0.712661
0.712679
0.712698
0.712719
0.712741
0.712765
0.712791
0.712817
0.712845
0.712874
0.712905
0.712937
0.71297
0.713004
0.713039
0.713075
0.713111
0.713149
0.713187
0.713226
0.713266
0.713306
0.713345
0.713386
0.713426
0.713466
0.713505
0.713544
0.713583
0.713621
0.713658
0.713695
0.713731
0.713765
0.713799
0.713832
0.713864
0.713895
0.713924
0.713953
0.713981
0.714008
0.714034
0.714059
0.714083
0.714106
0.714129
0.714151
0.714172
0.714193
0.714213
0.714232
0.714251
0.71427
0.714287
0.714305
0.714322
0.714338
0.714355
0.71437
0.714386
0.714401
0.714416
0.71443
0.714444
0.714458
0.714471
0.714484
0.714496
0.714509
0.714521
0.714532
0.714544
0.714554
0.714565
0.714575
0.714585
0.714594
0.714604
0.714612
0.714621
0.714628
0.714636
0.714643
0.71465
0.714656
0.714662
0.714668
0.714673
0.714678
0.714683
0.714687
0.71469
0.714694
0.714697
0.7147
0.714702
0.714704
0.714706
0.714707
0.714708
0.714709
0.714709
0.71471
0.71471
0.714709
0.714709
0.714708
0.714707
0.714705
0.714704
0.714702
0.7147
0.714698
0.714696
0.714693
0.71469
0.714687
0.714684
0.714681
0.714678
0.714674
0.71467
0.714667
0.714662
0.714658
0.714654
0.71465
0.714645
0.71464
0.714636
0.714631
0.714626
0.71462
0.714615
0.71461
0.714604
0.714599
0.714593
0.714587
0.714581
0.714575
0.714569
0.714563
0.714557
0.714551
0.714544
0.714538
0.714531
0.714524
0.714518
0.714511
0.714504
0.714497
0.71449
0.714483
0.714476
0.714468
0.714461
0.714454
0.714446
0.714439
0.714431
0.714424
0.714416
0.714408
0.714401
0.714393
0.714385
0.714377
0.714369
0.714361
0.714353
0.714345
0.714337
0.714329
0.714321
0.714313
0.714305
0.714298
0.714288
)
;

boundaryField
{
    inlet
    {
        type            zeroGradient;
    }
    outlet
    {