/*--------------------------------*- C++ -*----------------------------------*\
| =========                 |                                                 |
| \\      /  F ield         | OpenFOAM: The Open Source CFD Toolbox           |
|  \\    /   O peration     | Version:  4.1                                   |
|   \\  /    A nd           | Web:      www.OpenFOAM.org                      |
|    \\/     M anipulation  |                                                 |
\*---------------------------------------------------------------------------*/
FoamFile
{
    version     2.0;
    format      ascii;
    class       volVectorField;
    location    "646";
    object      U;
}
// * * * * * * * * * * * * * * * * * * * * * * * * * * * * * * * * * * * * * //

dimensions      [0 1 -1 0 0 0 0];

internalField   nonuniform List<vector> 
3264
(
(-2.65327e-06 -4.8641e-07 0)
(-0.000133168 3.05595e-05 0)
(-0.000389804 4.86622e-05 0)
(-0.0006771 5.1e-05 0)
(-0.000979094 5.27247e-05 0)
(-0.00128516 5.21288e-05 0)
(-0.00158997 5.34271e-05 0)
(-0.00189488 5.40677e-05 0)
(-0.0021953 5.51679e-05 0)
(-0.00249194 5.57891e-05 0)
(-0.00278222 5.63416e-05 0)
(-0.00306634 5.65811e-05 0)
(-0.00334324 5.667e-05 0)
(-0.00361299 5.65707e-05 0)
(-0.00387526 5.6357e-05 0)
(-0.00413018 5.60418e-05 0)
(-0.00437773 5.56644e-05 0)
(-0.00461806 5.52446e-05 0)
(-0.0048513 5.48061e-05 0)
(-0.00507762 5.4365e-05 0)
(-0.00529718 5.39366e-05 0)
(-0.00551014 5.35322e-05 0)
(-0.00571666 5.31611e-05 0)
(-0.00591685 5.28301e-05 0)
(-0.00611081 5.2543e-05 0)
(-0.00629858 5.2301e-05 0)
(-0.00648016 5.21019e-05 0)
(-0.00665548 5.19396e-05 0)
(-0.00682441 5.18041e-05 0)
(-0.00698671 5.16804e-05 0)
(-0.00714205 5.15484e-05 0)
(-0.00729001 5.13825e-05 0)
(-0.00743002 5.11513e-05 0)
(-0.00756141 5.08173e-05 0)
(-0.00768337 5.03378e-05 0)
(-0.00779496 4.96648e-05 0)
(-0.00789508 4.87461e-05 0)
(-0.00798254 4.75265e-05 0)
(-0.008056 4.59493e-05 0)
(-0.00811403 4.39579e-05 0)
(-0.00815511 4.14981e-05 0)
(-0.00817765 3.85204e-05 0)
(-0.00818002 3.49818e-05 0)
(-0.00816059 3.08485e-05 0)
(-0.00811775 2.60974e-05 0)
(-0.00804996 2.07185e-05 0)
(-0.00795576 1.47157e-05 0)
(-0.00783386 8.10813e-06 0)
(-0.0076831 9.30465e-07 0)
(-0.00750256 -6.76701e-06 0)
(-0.00729153 -1.4919e-05 0)
(-0.00704958 -2.34462e-05 0)
(-0.00677654 -3.22566e-05 0)
(-0.00647257 -4.12477e-05 0)
(-0.00613814 -5.03082e-05 0)
(-0.00577402 -5.93209e-05 0)
(-0.00538133 -6.8165e-05 0)
(-0.00496148 -7.67187e-05 0)
(-0.0045162 -8.48624e-05 0)
(-0.00404752 -9.24809e-05 0)
(-0.00355772 -9.94664e-05 0)
(-0.00304932 -0.000105721 0)
(-0.00252507 -0.000111158 0)
(-0.00198788 -0.000115705 0)
(-0.00144081 -0.000119305 0)
(-0.000887005 -0.000121919 0)
(-0.000329682 -0.000123523 0)
(0.000227937 -0.000124113 0)
(0.000782661 -0.000123702 0)
(0.00133137 -0.000122322 0)
(0.00187105 -0.00012002 0)
(0.00239887 -0.000116859 0)
(0.00291215 -0.000112914 0)
(0.00340845 -0.000108273 0)
(0.00388559 -0.000103033 0)
(0.00434165 -9.72959e-05 0)
(0.00477499 -9.11678e-05 0)
(0.0051843 -8.47559e-05 0)
(0.00556853 -7.81657e-05 0)
(0.00592698 -7.14986e-05 0)
(0.00625922 -6.48496e-05 0)
(0.0065651 -5.83056e-05 0)
(0.00684476 -5.19441e-05 0)
(0.00709858 -4.58319e-05 0)
(0.00732716 -4.00245e-05 0)
(0.0075313 -3.45659e-05 0)
(0.00771197 -2.94889e-05 0)
(0.00787029 -2.48154e-05 0)
(0.00800748 -2.05574e-05 0)
(0.00812485 -1.67175e-05 0)
(0.00822378 -1.32908e-05 0)
(0.00830566 -1.02655e-05 0)
(0.00837193 -7.62434e-06 0)
(0.00842397 -5.3461e-06 0)
(0.00846318 -3.40638e-06 0)
(0.00849089 -1.77889e-06 0)
(0.00850839 -4.36307e-07 0)
(0.00851691 6.48922e-07 0)
(0.0085176 1.50392e-06 0)
(0.00851154 2.15487e-06 0)
(0.00849973 2.62667e-06 0)
(0.0084831 2.94261e-06 0)
(0.00846248 3.12426e-06 0)
(0.00843866 3.19137e-06 0)
(0.00841231 3.16184e-06 0)
(0.00838405 3.05182e-06 0)
(0.00835444 2.87568e-06 0)
(0.00832396 2.64622e-06 0)
(0.00829303 2.37469e-06 0)
(0.00826202 2.07099e-06 0)
(0.00823124 1.74372e-06 0)
(0.00820097 1.40036e-06 0)
(0.00817142 1.04735e-06 0)
(0.00814279 6.90198e-07 0)
(0.00811522 3.33597e-07 0)
(0.00808883 -1.85024e-08 0)
(0.00806371 -3.62803e-07 0)
(0.00803992 -6.96589e-07 0)
(0.00801753 -1.01766e-06 0)
(0.00799653 -1.32426e-06 0)
(0.00797696 -1.61505e-06 0)
(0.00795879 -1.88903e-06 0)
(0.00794202 -2.1455e-06 0)
(0.00792661 -2.38406e-06 0)
(0.00791254 -2.60451e-06 0)
(0.00789976 -2.80686e-06 0)
(0.00788822 -2.99132e-06 0)
(0.00787788 -3.1582e-06 0)
(0.00786868 -3.30798e-06 0)
(0.00786057 -3.44121e-06 0)
(0.00785349 -3.55854e-06 0)
(0.00784738 -3.6607e-06 0)
(0.0078422 -3.74844e-06 0)
(0.00783789 -3.82259e-06 0)
(0.00783439 -3.88397e-06 0)
(0.00783166 -3.93346e-06 0)
(0.00782966 -3.97191e-06 0)
(0.00782832 -4.0002e-06 0)
(0.00782763 -4.01918e-06 0)
(0.00782753 -4.02972e-06 0)
(0.00782799 -4.03264e-06 0)
(0.00782899 -4.02877e-06 0)
(0.00783048 -4.01888e-06 0)
(0.00783245 -4.00374e-06 0)
(0.00783488 -3.98408e-06 0)
(0.00783775 -3.96061e-06 0)
(0.00784103 -3.93397e-06 0)
(0.00784473 -3.90481e-06 0)
(0.00784882 -3.87373e-06 0)
(0.00785331 -3.84126e-06 0)
(0.00785818 -3.80795e-06 0)
(0.00786344 -3.77427e-06 0)
(0.00786909 -3.74068e-06 0)
(0.00787513 -3.7076e-06 0)
(0.00788156 -3.67539e-06 0)
(0.00788839 -3.64442e-06 0)
(0.00789563 -3.61499e-06 0)
(0.00790328 -3.5874e-06 0)
(0.00791136 -3.56189e-06 0)
(0.00791988 -3.53867e-06 0)
(0.00792885 -3.51796e-06 0)
(0.00793828 -3.4999e-06 0)
(0.00794818 -3.48465e-06 0)
(0.00795857 -3.47229e-06 0)
(0.00796946 -3.46292e-06 0)
(0.00798087 -3.4566e-06 0)
(0.0079928 -3.45335e-06 0)
(0.00800527 -3.45318e-06 0)
(0.00801829 -3.45606e-06 0)
(0.00803188 -3.46195e-06 0)
(0.00804604 -3.47078e-06 0)
(0.00806078 -3.48243e-06 0)
(0.00807611 -3.49679e-06 0)
(0.00809204 -3.51368e-06 0)
(0.00810858 -3.53291e-06 0)
(0.00812572 -3.55425e-06 0)
(0.00814347 -3.57744e-06 0)
(0.00816183 -3.60215e-06 0)
(0.00818081 -3.62801e-06 0)
(0.00820038 -3.65462e-06 0)
(0.00822056 -3.68148e-06 0)
(0.00824133 -3.70801e-06 0)
(0.00826267 -3.73356e-06 0)
(0.00828458 -3.75735e-06 0)
(0.00830703 -3.77848e-06 0)
(0.00833 -3.7959e-06 0)
(0.00835347 -3.8084e-06 0)
(0.00837739 -3.81453e-06 0)
(0.00840173 -3.8134e-06 0)
(0.00842645 -3.80166e-06 0)
(0.00845149 -3.78598e-06 0)
(0.00847681 -3.74419e-06 0)
(0.00850229 -3.7489e-06 0)
(0.00852811 -3.63411e-06 0)
(0.0085534 -3.86291e-06 0)
(0.00858085 -3.5903e-06 0)
(0.00860327 -4.58367e-06 0)
(0.00863945 -5.14441e-06 0)
(0.00865029 -5.74669e-06 0)
(0.00871504 -1.96695e-05 0)
(-8.33751e-05 0.000136387 0)
(-0.000583043 0.00037926 0)
(-0.00131168 0.000518389 0)
(-0.00208658 0.000562552 0)
(-0.00286668 0.000583611 0)
(-0.00363512 0.000585432 0)
(-0.0043786 0.000585503 0)
(-0.00510002 0.000578961 0)
(-0.00579221 0.000570207 0)
(-0.00645739 0.000558236 0)
(-0.00709287 0.000544843 0)
(-0.00770014 0.000530218 0)
(-0.00827886 0.00051509 0)
(-0.00883018 0.000499698 0)
(-0.00935467 0.000484329 0)
(-0.0098533 0.000469119 0)
(-0.0103268 0.000454176 0)
(-0.0107761 0.000439552 0)
(-0.0112017 0.000425276 0)
(-0.0116043 0.00041135 0)
(-0.0119845 0.000397756 0)
(-0.0123427 0.00038446 0)
(-0.0126791 0.00037141 0)
(-0.0129939 0.000358538 0)
(-0.0132871 0.000345758 0)
(-0.0135587 0.000332967 0)
(-0.0138082 0.000320042 0)
(-0.0140354 0.000306841 0)
(-0.0142395 0.000293202 0)
(-0.0144198 0.000278944 0)
(-0.0145752 0.000263868 0)
(-0.0147047 0.00024776 0)
(-0.0148068 0.000230393 0)
(-0.01488 0.000211534 0)
(-0.0149226 0.000190945 0)
(-0.0149329 0.000168395 0)
(-0.0149088 0.00014366 0)
(-0.0148483 0.000116537 0)
(-0.0147493 8.685e-05 0)
(-0.0146097 5.44542e-05 0)
(-0.0144274 1.92477e-05 0)
(-0.0142003 -1.88237e-05 0)
(-0.0139266 -5.97608e-05 0)
(-0.0136045 -0.000103507 0)
(-0.0132323 -0.000149944 0)
(-0.0128088 -0.000198893 0)
(-0.0123329 -0.000250112 0)
(-0.0118039 -0.0003033 0)
(-0.0112214 -0.0003581 0)
(-0.0105854 -0.000414103 0)
(-0.00989617 -0.000470855 0)
(-0.00915463 -0.000527865 0)
(-0.00836193 -0.00058461 0)
(-0.00751973 -0.000640547 0)
(-0.00663005 -0.00069512 0)
(-0.00569537 -0.000747771 0)
(-0.00471854 -0.000797948 0)
(-0.0037028 -0.000845114 0)
(-0.00265173 -0.000888759 0)
(-0.00156925 -0.000928404 0)
(-0.000459562 -0.000963615 0)
(0.000672879 -0.000994003 0)
(0.00182341 -0.00101924 0)
(0.00298718 -0.00103906 0)
(0.00415925 -0.00105325 0)
(0.00533458 -0.00106169 0)
(0.00650813 -0.00106432 0)
(0.00767487 -0.00106115 0)
(0.00882988 -0.00105228 0)
(0.00996834 -0.00103788 0)
(0.0110856 -0.00101816 0)
(0.0121773 -0.000993436 0)
(0.0132394 -0.000964062 0)
(0.0142679 -0.00093045 0)
(0.0152594 -0.000893055 0)
(0.0162108 -0.000852368 0)
(0.0171194 -0.000808907 0)
(0.017983 -0.000763206 0)
(0.0187996 -0.000715804 0)
(0.0195678 -0.000667238 0)
(0.0202866 -0.00061803 0)
(0.0209554 -0.000568682 0)
(0.0215741 -0.000519665 0)
(0.0221429 -0.000471416 0)
(0.0226622 -0.000424329 0)
(0.0231331 -0.000378752 0)
(0.0235568 -0.000334986 0)
(0.0239346 -0.000293282 0)
(0.0242684 -0.000253842 0)
(0.0245601 -0.000216819 0)
(0.0248117 -0.00018232 0)
(0.0250255 -0.000150407 0)
(0.0252038 -0.000121103 0)
(0.025349 -9.4397e-05 0)
(0.0254635 -7.02437e-05 0)
(0.0255497 -4.85725e-05 0)
(0.0256101 -2.92902e-05 0)
(0.0256469 -1.22857e-05 0)
(0.0256625 2.56572e-06 0)
(0.0256591 1.53988e-05 0)
(0.0256388 2.63544e-05 0)
(0.0256037 3.55767e-05 0)
(0.0255556 4.32105e-05 0)
(0.0254963 4.93986e-05 0)
(0.0254276 5.42807e-05 0)
(0.0253509 5.7991e-05 0)
(0.0252676 6.06577e-05 0)
(0.0251791 6.24021e-05 0)
(0.0250866 6.33377e-05 0)
(0.024991 6.35703e-05 0)
(0.0248934 6.31975e-05 0)
(0.0247945 6.2309e-05 0)
(0.0246952 6.09865e-05 0)
(0.0245961 5.9304e-05 0)
(0.0244977 5.73286e-05 0)
(0.0244006 5.51198e-05 0)
(0.024305 5.2731e-05 0)
(0.0242115 5.02094e-05 0)
(0.0241202 4.75963e-05 0)
(0.0240314 4.49278e-05 0)
(0.0239453 4.22352e-05 0)
(0.023862 3.95453e-05 0)
(0.0237815 3.68806e-05 0)
(0.0237041 3.42603e-05 0)
(0.0236296 3.16999e-05 0)
(0.023558 2.92121e-05 0)
(0.0234895 2.68067e-05 0)
(0.0234239 2.44912e-05 0)
(0.0233612 2.22709e-05 0)
(0.0233013 2.01491e-05 0)
(0.0232441 1.81276e-05 0)
(0.0231897 1.62066e-05 0)
(0.0231379 1.43849e-05 0)
(0.0230886 1.26604e-05 0)
(0.0230417 1.103e-05 0)
(0.0229972 9.48976e-06 0)
(0.022955 8.03519e-06 0)
(0.0229149 6.66117e-06 0)
(0.022877 5.36222e-06 0)
(0.0228411 4.13253e-06 0)
(0.0228073 2.96611e-06 0)
(0.0227753 1.85679e-06 0)
(0.0227452 7.98398e-07 0)
(0.022717 -2.15264e-07 0)
(0.0226905 -1.1903e-06 0)
(0.0226658 -2.1327e-06 0)
(0.0226427 -3.04826e-06 0)
(0.0226214 -3.94259e-06 0)
(0.0226018 -4.82104e-06 0)
(0.0225838 -5.68868e-06 0)
(0.0225675 -6.5503e-06 0)
(0.0225529 -7.41034e-06 0)
(0.0225399 -8.27295e-06 0)
(0.0225286 -9.14188e-06 0)
(0.0225189 -1.00206e-05 0)
(0.022511 -1.09121e-05 0)
(0.0225049 -1.18192e-05 0)
(0.0225004 -1.27442e-05 0)
(0.0224978 -1.36891e-05 0)
(0.0224969 -1.46555e-05 0)
(0.0224979 -1.56448e-05 0)
(0.0225008 -1.66579e-05 0)
(0.0225055 -1.76954e-05 0)
(0.0225122 -1.87576e-05 0)
(0.0225208 -1.98444e-05 0)
(0.0225315 -2.09557e-05 0)
(0.0225441 -2.20906e-05 0)
(0.0225588 -2.32483e-05 0)
(0.0225755 -2.44275e-05 0)
(0.0225944 -2.56267e-05 0)
(0.0226154 -2.68441e-05 0)
(0.0226385 -2.80776e-05 0)
(0.0226637 -2.9325e-05 0)
(0.0226911 -3.05834e-05 0)
(0.0227207 -3.185e-05 0)
(0.0227525 -3.31216e-05 0)
(0.0227864 -3.43947e-05 0)
(0.0228224 -3.56653e-05 0)
(0.0228607 -3.69295e-05 0)
(0.022901 -3.81825e-05 0)
(0.0229435 -3.94196e-05 0)
(0.022988 -4.06352e-05 0)
(0.0230346 -4.18235e-05 0)
(0.0230832 -4.2978e-05 0)
(0.0231337 -4.40913e-05 0)
(0.0231861 -4.51556e-05 0)
(0.0232403 -4.61616e-05 0)
(0.0232963 -4.70996e-05 0)
(0.0233539 -4.79574e-05 0)
(0.023413 -4.87238e-05 0)
(0.0234735 -4.93898e-05 0)
(0.0235353 -4.99171e-05 0)
(0.0235983 -5.04173e-05 0)
(0.0236621 -5.05009e-05 0)
(0.0237269 -5.13571e-05 0)
(0.0237921 -5.02336e-05 0)
(0.0238567 -5.33505e-05 0)
(0.0239264 -5.16627e-05 0)
(0.0239801 -5.38911e-05 0)
(0.0240744 -7.68929e-05 0)
(-0.000178893 0.000645125 0)
(-0.00104328 0.00125431 0)
(-0.00216833 0.00153337 0)
(-0.00330594 0.00157497 0)
(-0.00439469 0.00157036 0)
(-0.00542397 0.00152736 0)
(-0.00637811 0.00148408 0)
(-0.00726822 0.00143212 0)
(-0.00809089 0.00137932 0)
(-0.00885428 0.00132404 0)
(-0.00955977 0.00126881 0)
(-0.0102125 0.00121381 0)
(-0.0108149 0.00115987 0)
(-0.0113704 0.00110718 0)
(-0.0118812 0.00105596 0)
(-0.0123496 0.00100622 0)
(-0.0127775 0.000957939 0)
(-0.0131664 0.000911012 0)
(-0.0135175 0.000865309 0)
(-0.013832 0.000820668 0)
(-0.0141105 0.000776899 0)
(-0.0143537 0.000733794 0)
(-0.0145619 0.00069112 0)
(-0.0147352 0.000648624 0)
(-0.0148736 0.00060603 0)
(-0.0149768 0.00056304 0)
(-0.0150444 0.000519334 0)
(-0.0150757 0.000474568 0)
(-0.0150699 0.000428383 0)
(-0.0150261 0.000380404 0)
(-0.0149431 0.000330244 0)
(-0.0148196 0.000277516 0)
(-0.0146543 0.000221835 0)
(-0.0144458 0.000162832 0)
(-0.0141924 0.00010016 0)
(-0.0138926 3.35079e-05 0)
(-0.0135448 -3.73912e-05 0)
(-0.0131475 -0.000112747 0)
(-0.0126991 -0.000192703 0)
(-0.0121982 -0.000277327 0)
(-0.0116436 -0.000366604 0)
(-0.0110341 -0.000460426 0)
(-0.010369 -0.000558595 0)
(-0.00964738 -0.000660814 0)
(-0.00886899 -0.000766691 0)
(-0.00803371 -0.000875738 0)
(-0.00714175 -0.000987378 0)
(-0.00619364 -0.00110095 0)
(-0.00519028 -0.00121572 0)
(-0.00413295 -0.00133088 0)
(-0.00302324 -0.00144557 0)
(-0.00186318 -0.0015589 0)
(-0.000655108 -0.00166992 0)
(0.000598238 -0.00177769 0)
(0.00189378 -0.00188126 0)
(0.00322811 -0.00197966 0)
(0.00459749 -0.00207199 0)
(0.00599788 -0.00215736 0)
(0.00742498 -0.00223494 0)
(0.00887425 -0.00230396 0)
(0.0103409 -0.00236371 0)
(0.0118201 -0.00241361 0)
(0.0133067 -0.00245313 0)
(0.0147956 -0.00248187 0)
(0.0162816 -0.00249955 0)
(0.0177595 -0.002506 0)
(0.0192241 -0.00250115 0)
(0.0206704 -0.00248511 0)
(0.0220934 -0.00245806 0)
(0.0234885 -0.00242033 0)
(0.0248511 -0.00237237 0)
(0.0261771 -0.00231473 0)
(0.0274623 -0.00224807 0)
(0.0287033 -0.00217314 0)
(0.0298968 -0.00209075 0)
(0.03104 -0.0020018 0)
(0.0321305 -0.00190723 0)
(0.0331661 -0.00180799 0)
(0.0341454 -0.00170508 0)
(0.0350671 -0.00159947 0)
(0.0359305 -0.00149214 0)
(0.0367351 -0.00138402 0)
(0.037481 -0.00127601 0)
(0.0381685 -0.00116895 0)
(0.0387984 -0.0010636 0)
(0.0393717 -0.000960694 0)
(0.0398897 -0.000860841 0)
(0.0403539 -0.000764595 0)
(0.0407662 -0.000672422 0)
(0.0411285 -0.000584704 0)
(0.041443 -0.000501745 0)
(0.0417119 -0.000423769 0)
(0.0419376 -0.000350928 0)
(0.0421227 -0.000283304 0)
(0.0422694 -0.000220917 0)
(0.0423806 -0.00016373 0)
(0.0424585 -0.000111655 0)
(0.0425059 -6.45629e-05 0)
(0.0425251 -2.2285e-05 0)
(0.0425186 1.53763e-05 0)
(0.0424887 4.86434e-05 0)
(0.0424378 7.77569e-05 0)
(0.042368 0.000102971 0)
(0.0422815 0.000124547 0)
(0.0421801 0.000142753 0)
(0.0420659 0.000157854 0)
(0.0419406 0.000170115 0)
(0.0418057 0.000179792 0)
(0.041663 0.000187136 0)
(0.0415137 0.000192385 0)
(0.0413592 0.000195769 0)
(0.0412007 0.000197502 0)
(0.0410392 0.000197788 0)
(0.0408757 0.000196815 0)
(0.0407111 0.000194758 0)
(0.0405462 0.000191777 0)
(0.0403817 0.000188021 0)
(0.0402181 0.000183624 0)
(0.0400561 0.000178705 0)
(0.0398959 0.000173375 0)
(0.0397381 0.00016773 0)
(0.039583 0.000161856 0)
(0.0394307 0.000155828 0)
(0.0392816 0.000149713 0)
(0.0391358 0.000143566 0)
(0.0389934 0.000137437 0)
(0.0388546 0.000131366 0)
(0.0387193 0.000125386 0)
(0.0385876 0.000119525 0)
(0.0384596 0.000113804 0)
(0.0383352 0.000108239 0)
(0.0382144 0.000102843 0)
(0.0380971 9.76216e-05 0)
(0.0379834 9.25793e-05 0)
(0.0378731 8.77163e-05 0)
(0.0377663 8.30302e-05 0)
(0.0376627 7.85164e-05 0)
(0.0375625 7.41677e-05 0)
(0.0374654 6.99757e-05 0)
(0.0373716 6.59304e-05 0)
(0.0372808 6.20205e-05 0)
(0.037193 5.8234e-05 0)
(0.0371083 5.45583e-05 0)
(0.0370265 5.09804e-05 0)
(0.0369476 4.74868e-05 0)
(0.0368716 4.40642e-05 0)
(0.0367985 4.06996e-05 0)
(0.0367282 3.73798e-05 0)
(0.0366608 3.40924e-05 0)
(0.0365962 3.08253e-05 0)
(0.0365344 2.75669e-05 0)
(0.0364755 2.43066e-05 0)
(0.0364195 2.10342e-05 0)
(0.0363663 1.77404e-05 0)
(0.0363161 1.44169e-05 0)
(0.0362688 1.10561e-05 0)
(0.0362245 7.65128e-06 0)
(0.0361832 4.19676e-06 0)
(0.036145 6.8771e-07 0)
(0.0361099 -2.87974e-06 0)
(0.0360779 -6.50855e-06 0)
(0.0360492 -1.02008e-05 0)
(0.0360237 -1.39575e-05 0)
(0.0360016 -1.7779e-05 0)
(0.0359828 -2.16647e-05 0)
(0.0359674 -2.5613e-05 0)
(0.0359554 -2.96218e-05 0)
(0.035947 -3.36877e-05 0)
(0.0359421 -3.78071e-05 0)
(0.0359408 -4.19752e-05 0)
(0.0359431 -4.61865e-05 0)
(0.035949 -5.04351e-05 0)
(0.0359586 -5.47139e-05 0)
(0.0359719 -5.90156e-05 0)
(0.0359888 -6.33318e-05 0)
(0.0360095 -6.76537e-05 0)
(0.0360338 -7.19716e-05 0)
(0.0360619 -7.62752e-05 0)
(0.0360936 -8.05536e-05 0)
(0.036129 -8.47948e-05 0)
(0.036168 -8.89863e-05 0)
(0.0362105 -9.31146e-05 0)
(0.0362566 -9.71652e-05 0)
(0.0363061 -0.000101123 0)
(0.0363591 -0.00010497 0)
(0.0364154 -0.000108688 0)
(0.0364748 -0.000112258 0)
(0.0365374 -0.000115656 0)
(0.036603 -0.000118857 0)
(0.0366715 -0.000121836 0)
(0.0367427 -0.000124554 0)
(0.0368164 -0.000126993 0)
(0.0368924 -0.000129111 0)
(0.0369706 -0.000130804 0)
(0.0370507 -0.000132499 0)
(0.0371319 -0.000132649 0)
(0.0372151 -0.000135669 0)
(0.0372976 -0.000132842 0)
(0.0373772 -0.000136827 0)
(0.0374764 -0.000147802 0)
(-0.000305626 0.00126175 0)
(-0.00151663 0.00231541 0)
(-0.0028707 0.0027237 0)
(-0.00413795 0.00273385 0)
(-0.00523705 0.00266196 0)
(-0.00621714 0.00253286 0)
(-0.00706436 0.00240411 0)
(-0.00781233 0.00226925 0)
(-0.00846253 0.00213927 0)
(-0.00903169 0.0020127 0)
(-0.00952501 0.00189182 0)
(-0.00995144 0.00177623 0)
(-0.0103158 0.00166602 0)
(-0.0106233 0.00156074 0)
(-0.0108775 0.00145997 0)
(-0.0110817 0.00136322 0)
(-0.0112384 0.00127 0)
(-0.0113494 0.00117979 0)
(-0.0114164 0.00109213 0)
(-0.0114407 0.00100652 0)
(-0.0114229 0.000922505 0)
(-0.0113638 0.000839613 0)
(-0.0112637 0.000757378 0)
(-0.0111226 0.000675329 0)
(-0.0109405 0.000592992 0)
(-0.0107171 0.000509883 0)
(-0.0104519 0.000425512 0)
(-0.0101443 0.000339383 0)
(-0.0097936 0.000250999 0)
(-0.00939898 0.000159866 0)
(-0.00895953 6.5498e-05 0)
(-0.00847427 -3.25714e-05 0)
(-0.00794221 -0.000134782 0)
(-0.00736234 -0.000241536 0)
(-0.00673365 -0.000353187 0)
(-0.0060552 -0.000470024 0)
(-0.00532609 -0.000592269 0)
(-0.00454556 -0.000720055 0)
(-0.00371295 -0.000853423 0)
(-0.00282775 -0.000992314 0)
(-0.00188964 -0.00113655 0)
(-0.000898496 -0.00128586 0)
(0.00014557 -0.00143982 0)
(0.00124221 -0.00159791 0)
(0.00239082 -0.0017595 0)
(0.00359051 -0.00192383 0)
(0.00484009 -0.00209003 0)
(0.00613809 -0.00225716 0)
(0.00748273 -0.00242416 0)
(0.00887189 -0.00258992 0)
(0.0103032 -0.00275324 0)
(0.0117739 -0.00291291 0)
(0.0132809 -0.00306764 0)
(0.014821 -0.00321618 0)
(0.0163906 -0.00335723 0)
(0.0179857 -0.00348956 0)
(0.0196022 -0.00361193 0)
(0.0212358 -0.00372318 0)
(0.0228818 -0.00382223 0)
(0.0245355 -0.00390807 0)
(0.0261921 -0.00397981 0)
(0.0278465 -0.00403669 0)
(0.0294937 -0.00407806 0)
(0.0311286 -0.00410343 0)
(0.0327461 -0.00411249 0)
(0.0343412 -0.00410505 0)
(0.035909 -0.00408114 0)
(0.0374448 -0.00404094 0)
(0.0389441 -0.0039848 0)
(0.0404026 -0.00391325 0)
(0.0418163 -0.003827 0)
(0.0431816 -0.00372688 0)
(0.0444952 -0.00361388 0)
(0.0457541 -0.00348913 0)
(0.0469559 -0.00335383 0)
(0.0480985 -0.00320929 0)
(0.0491803 -0.00305687 0)
(0.0501999 -0.00289798 0)
(0.0511567 -0.00273405 0)
(0.0520503 -0.00256648 0)
(0.0528807 -0.00239668 0)
(0.0536482 -0.00222597 0)
(0.0543537 -0.00205564 0)
(0.054998 -0.00188688 0)
(0.0555827 -0.0017208 0)
(0.0561093 -0.0015584 0)
(0.0565795 -0.00140058 0)
(0.0569954 -0.00124811 0)
(0.0573592 -0.00110166 0)
(0.057673 -0.000961778 0)
(0.0579394 -0.000828912 0)
(0.0581606 -0.000703391 0)
(0.0583391 -0.000585448 0)
(0.0584776 -0.000475222 0)
(0.0585785 -0.000372766 0)
(0.0586442 -0.000278054 0)
(0.0586772 -0.000190993 0)
(0.0586799 -0.000111427 0)
(0.0586548 -3.91497e-05 0)
(0.0586039 2.60888e-05 0)
(0.0585297 8.45753e-05 0)
(0.0584342 0.000136625 0)
(0.0583194 0.000182574 0)
(0.0581873 0.000222774 0)
(0.0580398 0.000257588 0)
(0.0578786 0.000287383 0)
(0.0577054 0.000312525 0)
(0.0575218 0.000333379 0)
(0.0573291 0.0003503 0)
(0.0571289 0.000363637 0)
(0.0569223 0.000373724 0)
(0.0567105 0.000380883 0)
(0.0564946 0.000385421 0)
(0.0562757 0.000387627 0)
(0.0560545 0.000387775 0)
(0.055832 0.000386119 0)
(0.0556089 0.000382898 0)
(0.0553858 0.00037833 0)
(0.0551634 0.000372619 0)
(0.0549421 0.000365949 0)
(0.0547225 0.000358487 0)
(0.0545049 0.000350386 0)
(0.0542897 0.000341783 0)
(0.0540772 0.000332798 0)
(0.0538676 0.000323538 0)
(0.0536611 0.000314099 0)
(0.053458 0.000304561 0)
(0.0532583 0.000294995 0)
(0.0530622 0.000285459 0)
(0.0528697 0.000276005 0)
(0.0526809 0.000266671 0)
(0.0524959 0.000257489 0)
(0.0523146 0.000248485 0)
(0.0521371 0.000239675 0)
(0.0519633 0.00023107 0)
(0.0517932 0.000222678 0)
(0.0516269 0.000214498 0)
(0.0514642 0.000206528 0)
(0.0513052 0.000198761 0)
(0.0511498 0.000191187 0)
(0.0509981 0.000183793 0)
(0.0508499 0.000176565 0)
(0.0507052 0.000169486 0)
(0.0505641 0.000162538 0)
(0.0504264 0.000155703 0)
(0.0502923 0.000148962 0)
(0.0501616 0.000142293 0)
(0.0500344 0.000135679 0)
(0.0499107 0.000129099 0)
(0.0497906 0.000122535 0)
(0.0496739 0.000115968 0)
(0.0495608 0.000109381 0)
(0.0494512 0.000102758 0)
(0.0493453 9.60826e-05 0)
(0.0492431 8.93414e-05 0)
(0.0491445 8.25217e-05 0)
(0.0490497 7.56124e-05 0)
(0.0489588 6.86037e-05 0)
(0.0488717 6.14874e-05 0)
(0.0487886 5.42571e-05 0)
(0.0487095 4.69076e-05 0)
(0.0486344 3.94357e-05 0)
(0.0485635 3.18395e-05 0)
(0.0484968 2.41189e-05 0)
(0.0484345 1.62751e-05 0)
(0.0483764 8.31103e-06 0)
(0.0483228 2.31134e-07 0)
(0.0482737 -7.95876e-06 0)
(0.0482291 -1.62514e-05 0)
(0.0481891 -2.46381e-05 0)
(0.0481538 -3.31089e-05 0)
(0.0481231 -4.16524e-05 0)
(0.0480972 -5.02562e-05 0)
(0.048076 -5.89064e-05 0)
(0.0480597 -6.75881e-05 0)
(0.0480481 -7.62852e-05 0)
(0.0480414 -8.49804e-05 0)
(0.0480395 -9.36552e-05 0)
(0.0480424 -0.00010229 0)
(0.0480501 -0.000110865 0)
(0.0480626 -0.000119357 0)
(0.0480798 -0.000127743 0)
(0.0481017 -0.000135999 0)
(0.0481282 -0.000144099 0)
(0.0481593 -0.000152015 0)
(0.0481949 -0.000159717 0)
(0.0482348 -0.000167173 0)
(0.0482791 -0.000174346 0)
(0.0483275 -0.000181199 0)
(0.0483799 -0.000187686 0)
(0.0484362 -0.000193762 0)
(0.0484962 -0.000199362 0)
(0.0485597 -0.000204437 0)
(0.0486265 -0.000208885 0)
(0.0486962 -0.000212723 0)
(0.0487685 -0.000215467 0)
(0.0488431 -0.000218556 0)
(0.0489181 -0.000217341 0)
(0.0489944 -0.000221904 0)
(0.0490792 -0.000219248 0)
(-0.000405058 0.00246935 0)
(-0.00171908 0.0037961 0)
(-0.00298719 0.004141 0)
(-0.00405007 0.00388975 0)
(-0.00482687 0.00361667 0)
(-0.00542847 0.0033142 0)
(-0.00585177 0.00305029 0)
(-0.0061563 0.00280383 0)
(-0.00635127 0.00257988 0)
(-0.00646278 0.00237217 0)
(-0.00649927 0.00217952 0)
(-0.00647263 0.00199944 0)
(-0.00638863 0.00183027 0)
(-0.00625324 0.00167043 0)
(-0.0060701 0.00151854 0)
(-0.00584244 0.00137339 0)
(-0.00557247 0.00123389 0)
(-0.00526198 0.00109905 0)
(-0.0049122 0.000967994 0)
(-0.00452404 0.000839902 0)
(-0.00409808 0.000714012 0)
(-0.00363462 0.000589606 0)
(-0.00313377 0.000465999 0)
(-0.00259542 0.00034253 0)
(-0.0020193 0.000218557 0)
(-0.00140503 9.34547e-05 0)
(-0.000752096 -3.33867e-05 0)
(-5.99042e-05 -0.000162562 0)
(0.000672204 -0.000294647 0)
(0.00144493 -0.000430193 0)
(0.002259 -0.000569721 0)
(0.00311513 -0.000713713 0)
(0.00401401 -0.000862602 0)
(0.00495629 -0.00101676 0)
(0.00594254 -0.0011765 0)
(0.00697324 -0.00134203 0)
(0.00804876 -0.00151348 0)
(0.00916933 -0.00169089 0)
(0.010335 -0.00187416 0)
(0.0115457 -0.00206308 0)
(0.0128011 -0.00225731 0)
(0.0141008 -0.0024564 0)
(0.0154439 -0.00265973 0)
(0.0168296 -0.00286657 0)
(0.0182565 -0.00307605 0)
(0.0197233 -0.00328719 0)
(0.0212282 -0.00349887 0)
(0.0227692 -0.00370987 0)
(0.0243439 -0.00391889 0)
(0.0259499 -0.00412452 0)
(0.0275843 -0.00432531 0)
(0.0292439 -0.00451972 0)
(0.0309254 -0.00470623 0)
(0.0326252 -0.00488326 0)
(0.0343393 -0.00504927 0)
(0.0360637 -0.00520273 0)
(0.0377939 -0.00534216 0)
(0.0395256 -0.00546617 0)
(0.0412539 -0.00557346 0)
(0.0429743 -0.00566282 0)
(0.0446816 -0.00573321 0)
(0.0463711 -0.00578373 0)
(0.0480378 -0.00581365 0)
(0.0496768 -0.00582246 0)
(0.0512834 -0.00580982 0)
(0.0528528 -0.00577563 0)
(0.0543806 -0.00571999 0)
(0.0558626 -0.00564326 0)
(0.0572949 -0.005546 0)
(0.0586739 -0.005429 0)
(0.0599963 -0.00529325 0)
(0.0612594 -0.00513995 0)
(0.0624607 -0.00497048 0)
(0.0635982 -0.00478635 0)
(0.0646706 -0.00458923 0)
(0.0656767 -0.00438087 0)
(0.0666161 -0.00416309 0)
(0.0674885 -0.00393777 0)
(0.0682943 -0.00370678 0)
(0.0690341 -0.00347198 0)
(0.069709 -0.00323517 0)
(0.0703203 -0.00299809 0)
(0.0708698 -0.00276236 0)
(0.0713593 -0.00252952 0)
(0.071791 -0.00230096 0)
(0.0721671 -0.00207794 0)
(0.0724902 -0.00186156 0)
(0.0727626 -0.00165278 0)
(0.0729871 -0.00145242 0)
(0.0731662 -0.00126112 0)
(0.0733027 -0.00107941 0)
(0.073399 -0.000907676 0)
(0.073458 -0.000746168 0)
(0.073482 -0.000595026 0)
(0.0734737 -0.000454286 0)
(0.0734354 -0.000323885 0)
(0.0733694 -0.000203677 0)
(0.0732781 -9.34449e-05 0)
(0.0731636 7.09197e-06 0)
(0.0730279 9.82658e-05 0)
(0.0728731 0.000180451 0)
(0.0727009 0.000254056 0)
(0.0725133 0.000319513 0)
(0.0723117 0.000377274 0)
(0.0720979 0.0004278 0)
(0.0718732 0.000471559 0)
(0.0716391 0.000509019 0)
(0.0713968 0.000540643 0)
(0.0711476 0.000566886 0)
(0.0708925 0.000588192 0)
(0.0706327 0.00060499 0)
(0.0703691 0.000617695 0)
(0.0701024 0.000626702 0)
(0.0698337 0.000632387 0)
(0.0695635 0.000635105 0)
(0.0692926 0.000635192 0)
(0.0690216 0.000632962 0)
(0.068751 0.000628706 0)
(0.0684812 0.000622696 0)
(0.0682129 0.000615182 0)
(0.0679463 0.000606391 0)
(0.0676818 0.000596534 0)
(0.0674196 0.000585801 0)
(0.0671601 0.00057436 0)
(0.0669035 0.000562367 0)
(0.0666499 0.000549957 0)
(0.0663995 0.000537249 0)
(0.0661525 0.000524348 0)
(0.0659089 0.000511345 0)
(0.0656689 0.000498317 0)
(0.0654324 0.000485328 0)
(0.0651996 0.000472431 0)
(0.0649705 0.00045967 0)
(0.064745 0.000447077 0)
(0.0645233 0.000434676 0)
(0.0643052 0.000422484 0)
(0.0640909 0.000410511 0)
(0.0638802 0.000398758 0)
(0.0636732 0.000387225 0)
(0.0634698 0.000375902 0)
(0.0632701 0.000364778 0)
(0.063074 0.000353838 0)
(0.0628815 0.000343064 0)
(0.0626925 0.000332435 0)
(0.0625072 0.000321928 0)
(0.0623255 0.000311519 0)
(0.0621473 0.000301184 0)
(0.0619728 0.000290896 0)
(0.0618019 0.000280632 0)
(0.0616346 0.000270364 0)
(0.0614709 0.000260068 0)
(0.061311 0.000249722 0)
(0.0611548 0.0002393 0)
(0.0610023 0.000228784 0)
(0.0608537 0.000218151 0)
(0.0607089 0.000207385 0)
(0.0605681 0.000196469 0)
(0.0604313 0.000185389 0)
(0.0602986 0.000174132 0)
(0.06017 0.000162689 0)
(0.0600456 0.000151052 0)
(0.0599255 0.000139215 0)
(0.0598098 0.000127176 0)
(0.0596985 0.000114934 0)
(0.0595918 0.00010249 0)
(0.0594897 8.98477e-05 0)
(0.0593923 7.7014e-05 0)
(0.0592997 6.39968e-05 0)
(0.0592119 5.08068e-05 0)
(0.059129 3.74564e-05 0)
(0.0590512 2.39604e-05 0)
(0.0589783 1.03355e-05 0)
(0.0589106 -3.39968e-06 0)
(0.058848 -1.72248e-05 0)
(0.0587906 -3.11175e-05 0)
(0.0587384 -4.50538e-05 0)
(0.0586915 -5.90081e-05 0)
(0.0586499 -7.2953e-05 0)
(0.0586135 -8.68597e-05 0)
(0.0585824 -0.000100697 0)
(0.0585566 -0.000114434 0)
(0.0585361 -0.000128037 0)
(0.0585208 -0.000141469 0)
(0.0585107 -0.000154693 0)
(0.0585057 -0.000167671 0)
(0.0585058 -0.00018036 0)
(0.0585108 -0.000192715 0)
(0.0585208 -0.00020469 0)
(0.0585356 -0.000216229 0)
(0.058555 -0.000227276 0)
(0.0585791 -0.000237764 0)
(0.0586075 -0.000247614 0)
(0.0586402 -0.000256745 0)
(0.058677 -0.000265012 0)
(0.0587175 -0.000272354 0)
(0.0587616 -0.000278411 0)
(0.0588088 -0.000283402 0)
(0.0588583 -0.000285104 0)
(0.0589105 -0.000289594 0)
(0.0589674 -0.000277961 0)
(-0.000693611 0.00309401 0)
(-0.0020918 0.00472224 0)
(-0.00255488 0.00495129 0)
(-0.00279318 0.00450424 0)
(-0.00262856 0.0040318 0)
(-0.00238017 0.00356506 0)
(-0.00198613 0.003161 0)
(-0.00153081 0.00280288 0)
(-0.00100538 0.00248626 0)
(-0.0004353 0.00220251 0)
(0.000177609 0.00194506 0)
(0.000824164 0.00170908 0)
(0.00150191 0.00149029 0)
(0.00220712 0.00128563 0)
(0.00293825 0.00109241 0)
(0.00369375 0.000908546 0)
(0.00447294 0.000732242 0)
(0.0052753 0.000562008 0)
(0.00610072 0.000396526 0)
(0.00694926 0.000234651 0)
(0.00782119 7.53483e-05 0)
(0.00871693 -8.23208e-05 0)
(0.00963699 -0.000239224 0)
(0.010582 -0.00039617 0)
(0.0115527 -0.000553919 0)
(0.0125498 -0.000713191 0)
(0.0135741 -0.000874666 0)
(0.0146264 -0.00103899 0)
(0.0157074 -0.00120676 0)
(0.0168181 -0.00137854 0)
(0.0179591 -0.00155484 0)
(0.019131 -0.00173611 0)
(0.0203346 -0.00192274 0)
(0.0215703 -0.00211505 0)
(0.0228386 -0.00231326 0)
(0.0241396 -0.00251749 0)
(0.0254735 -0.00272777 0)
(0.0268404 -0.00294402 0)
(0.0282398 -0.00316599 0)
(0.0296716 -0.00339335 0)
(0.031135 -0.0036256 0)
(0.0326292 -0.00386209 0)
(0.0341532 -0.00410206 0)
(0.0357056 -0.00434457 0)
(0.037285 -0.00458855 0)
(0.0388894 -0.0048328 0)
(0.0405169 -0.00507598 0)
(0.0421651 -0.00531666 0)
(0.0438314 -0.00555326 0)
(0.045513 -0.00578414 0)
(0.0472068 -0.00600759 0)
(0.0489094 -0.00622182 0)
(0.0506171 -0.00642504 0)
(0.0523262 -0.00661541 0)
(0.0540325 -0.00679115 0)
(0.0557319 -0.00695047 0)
(0.05742 -0.00709168 0)
(0.0590921 -0.00721316 0)
(0.0607436 -0.00731344 0)
(0.0623698 -0.00739115 0)
(0.0639661 -0.00744513 0)
(0.0655277 -0.00747441 0)
(0.06705 -0.00747824 0)
(0.0685286 -0.00745611 0)
(0.0699592 -0.00740776 0)
(0.071338 -0.00733323 0)
(0.0726611 -0.0072328 0)
(0.0739254 -0.00710707 0)
(0.0751279 -0.00695691 0)
(0.0762661 -0.00678343 0)
(0.0773381 -0.00658805 0)
(0.0783424 -0.00637237 0)
(0.079278 -0.00613823 0)
(0.0801445 -0.00588764 0)
(0.080942 -0.00562274 0)
(0.0816709 -0.00534578 0)
(0.0823322 -0.00505907 0)
(0.0829273 -0.00476494 0)
(0.0834578 -0.00446571 0)
(0.083926 -0.00416364 0)
(0.0843341 -0.00386091 0)
(0.0846846 -0.00355957 0)
(0.0849802 -0.00326156 0)
(0.0852239 -0.00296864 0)
(0.0854184 -0.00268239 0)
(0.0855667 -0.00240423 0)
(0.0856718 -0.00213537 0)
(0.0857366 -0.00187685 0)
(0.0857638 -0.00162953 0)
(0.0857562 -0.00139406 0)
(0.0857165 -0.00117096 0)