/*--------------------------------*- C++ -*----------------------------------*\
| =========                 |                                                 |
| \\      /  F ield         | OpenFOAM: The Open Source CFD Toolbox           |
|  \\    /   O peration     | Version:  4.1                                   |
|   \\  /    A nd           | Web:      www.OpenFOAM.org                      |
|    \\/     M anipulation  |                                                 |
\*---------------------------------------------------------------------------*/
FoamFile
{
    version     2.0;
    format      ascii;
    class       volScalarField;
    location    "110";
    object      p;
}
// * * * * * * * * * * * * * * * * * * * * * * * * * * * * * * * * * * * * * //

dimensions      [1 -1 -2 0 0 0 0];

internalField   nonuniform List<scalar> 
3264
(
0.712838
0.712835
0.712829
0.712822
0.712813
0.712803
0.712791
0.712779
0.712767
0.712756
0.712747
0.71274
0.712737
0.712739
0.712745
0.712758
0.712778
0.712806
0.712842
0.712887
0.712942
0.713006
0.713079
0.713162
0.713253
0.713353
0.713461
0.713575
0.713694
0.713816
0.713941
0.714067
0.714192
0.714314
0.714432
0.714545
0.714651
0.714749
0.714839
0.714919
0.71499
0.715051
0.715104
0.715147
0.715184
0.715213
0.715237
0.715256
0.715272
0.715285
0.715298
0.71531
0.715323
0.715337
0.715354
0.715373
0.715394
0.715418
0.715446
0.715475
0.715507
0.71554
0.715573
0.715605
0.715636
0.715664
0.715689
0.71571
0.715727
0.71574
0.715748
0.715754
0.715755
0.715754
0.715751
0.715745
0.715738
0.71573
0.71572
0.71571
0.7157
0.715688
0.715677
0.715665
0.715653
0.715641
0.715629
0.715617
0.715605
0.715593
0.715581
0.715569
0.715557
0.715545
0.715533
0.715521
0.715509
0.715497
0.715486
0.715474
0.715462
0.71545
0.715438
0.715426
0.715415
0.715403
0.715391
0.715379
0.715367
0.715355
0.715344
0.715332
0.71532
0.715308
0.715296
0.715285
0.715273
0.715261
0.715249
0.715237
0.715225
0.715214
0.715202
0.71519
0.715178
0.715166
0.715155
0.715143
0.715131
0.715119
0.715107
0.715095
0.715084
0.715072
0.71506
0.715048
0.715036
0.715025
0.715013
0.715001
0.714989
0.714977
0.714965
0.714954
0.714942
0.71493
0.714918
0.714906
0.714895
0.714883
0.714871
0.714859
0.714847
0.714835
0.714824
0.714812
0.7148
0.714788
0.714776
0.714765
0.714753
0.714741
0.714729
0.714717
0.714706
0.714694
0.714682
0.71467
0.714658
0.714646
0.714635
0.714623
0.714611
0.714599
0.714587
0.714576
0.714564
0.714552
0.71454
0.714528
0.714516
0.714505
0.714493
0.714481
0.714469
0.714457
0.714446
0.714434
0.714422
0.71441
0.714398
0.714386
0.714375
0.714363
0.714351
0.714339
0.714327
0.714316
0.714304
0.714292
0.712841
0.712838
0.712834
0.712828
0.71282
0.71281
0.712799
0.712787
0.712775
0.712763
0.712753
0.712745
0.712741
0.712741
0.712746
0.712757
0.712775
0.712802
0.712836
0.71288
0.712933
0.712995
0.713068
0.71315
0.713241
0.71334
0.713447
0.71356
0.713679
0.713802
0.713927
0.714053
0.714178
0.714301
0.71442
0.714533
0.71464
0.714739
0.714829
0.71491
0.714982
0.715044
0.715098
0.715142
0.715179
0.715209
0.715233
0.715253
0.715269
0.715283
0.715296
0.715309
0.715321
0.715335
0.715351
0.71537
0.715391
0.715416
0.715443
0.715472
0.715504
0.715538
0.715571
0.715604
0.715636
0.715664
0.71569
0.715711
0.715728
0.715741
0.71575
0.715755
0.715756
0.715755
0.715752
0.715746
0.715739
0.71573
0.715721
0.715711
0.7157
0.715688
0.715677
0.715665
0.715653
0.715641
0.715629
0.715617
0.715605
0.715593
0.715581
0.715569
0.715557
0.715545
0.715533
0.715521
0.715509
0.715497
0.715486
0.715474
0.715462
0.71545
0.715438
0.715426
0.715415
0.715403
0.715391
0.715379
0.715367
0.715355
0.715344
0.715332
0.71532
0.715308
0.715296
0.715285
0.715273
0.715261
0.715249
0.715237
0.715225
0.715214
0.715202
0.71519
0.715178
0.715166
0.715155
0.715143
0.715131
0.715119
0.715107
0.715095
0.715084
0.715072
0.71506
0.715048
0.715036
0.715025
0.715013
0.715001
0.714989
0.714977
0.714965
0.714954
0.714942
0.71493
0.714918
0.714906
0.714895
0.714883
0.714871
0.714859
0.714847
0.714835
0.714824
0.714812
0.7148
0.714788
0.714776
0.714765
0.714753
0.714741
0.714729
0.714717
0.714706
0.714694
0.714682
0.71467
0.714658
0.714646
0.714635
0.714623
0.714611
0.714599
0.714587
0.714576
0.714564
0.714552
0.71454
0.714528
0.714516
0.714505
0.714493
0.714481
0.714469
0.714457
0.714446
0.714434
0.714422
0.71441
0.714398
0.714386
0.714375
0.714363
0.714351
0.714339
0.714327
0.714316
0.714304
0.714292
0.712847
0.712843
0.712838
0.712832
0.712823
0.712812
0.712799
0.712786
0.712772
0.712759
0.712748
0.712739
0.712733
0.712732
0.712736
0.712746
0.712763
0.712788
0.712822
0.712865
0.712917
0.712979
0.713051
0.713132
0.713223
0.713322
0.713429
0.713543
0.713662
0.713784
0.71391
0.714036
0.714161
0.714285
0.714404
0.714518
0.714625
0.714725
0.714816
0.714898
0.71497
0.715033
0.715087
0.715133
0.71517
0.715201
0.715225
0.715245
0.715262
0.715276
0.715289
0.715302
0.715315
0.71533
0.715347
0.715366
0.715388
0.715413
0.715441
0.715471
0.715504
0.715538
0.715572
0.715606
0.715638
0.715668
0.715693
0.715715
0.715732
0.715745
0.715753
0.715758
0.715759
0.715757
0.715753
0.715747
0.71574
0.715731
0.715721
0.715711
0.7157
0.715689
0.715677
0.715665
0.715653
0.715641
0.715629
0.715617
0.715605
0.715593
0.715581
0.715569
0.715557
0.715545
0.715533
0.715521
0.715509
0.715497
0.715486
0.715474
0.715462
0.71545
0.715438
0.715426
0.715415
0.715403
0.715391
0.715379
0.715367
0.715355
0.715344
0.715332
0.71532
0.715308
0.715296
0.715285
0.715273
0.715261
0.715249
0.715237
0.715225
0.715214
0.715202
0.71519
0.715178
0.715166
0.715155
0.715143
0.715131
0.715119
0.715107
0.715095
0.715084
0.715072
0.71506
0.715048
0.715036
0.715025
0.715013
0.715001
0.714989
0.714977
0.714965
0.714954
0.714942
0.71493
0.714918
0.714906
0.714895
0.714883
0.714871
0.714859
0.714847
0.714835
0.714824
0.714812
0.7148
0.714788
0.714776
0.714765
0.714753
0.714741
0.714729
0.714717
0.714706
0.714694
0.714682
0.71467
0.714658
0.714646
0.714635
0.714623
0.714611
0.714599
0.714587
0.714576
0.714564
0.714552
0.71454
0.714528
0.714516
0.714505
0.714493
0.714481
0.714469
0.714457
0.714446
0.714434
0.714422
0.71441
0.714398
0.714386
0.714375
0.714363
0.714351
0.714339
0.714327
0.714316
0.714304
0.714292
0.712845
0.712842
0.712838
0.712832
0.712822
0.712811
0.712797
0.712783
0.712768
0.712753
0.71274
0.71273
0.712723
0.71272
0.712723
0.712732
0.712748
0.712772
0.712805
0.712847
0.712898
0.71296
0.713031
0.713112
0.713202
0.713301
0.713407
0.71352
0.713638
0.71376
0.713885
0.71401
0.714134
0.714256
0.714374
0.714487
0.714593
0.714691
0.714781
0.714862
0.714933
0.714996
0.71505
0.715096
0.715134
0.715167
0.715194
0.715218
0.715238
0.715256
0.715272
0.715288
0.715304
0.715321
0.715339
0.71536
0.715384
0.71541
0.71544
0.715472
0.715506
0.715541
0.715577
0.715611
0.715644
0.715674
0.7157
0.715721
0.715738
0.715749
0.715757
0.715761
0.715761
0.715759
0.715755
0.715748
0.71574
0.715731
0.715721
0.715711
0.7157
0.715688
0.715677
0.715665
0.715653
0.715641
0.715629
0.715617
0.715605
0.715593
0.715581
0.715569
0.715557
0.715545
0.715533
0.715521
0.715509
0.715497
0.715486
0.715474
0.715462
0.71545
0.715438
0.715426
0.715415
0.715403
0.715391
0.715379
0.715367
0.715355
0.715344
0.715332
0.71532
0.715308
0.715296
0.715285
0.715273
0.715261
0.715249
0.715237
0.715225
0.715214
0.715202
0.71519
0.715178
0.715166
0.715155
0.715143
0.715131
0.715119
0.715107
0.715095
0.715084
0.715072
0.71506
0.715048
0.715036
0.715025
0.715013
0.715001
0.714989
0.714977
0.714965
0.714954
0.714942
0.71493
0.714918
0.714906
0.714895
0.714883
0.714871
0.714859
0.714847
0.714835
0.714824
0.714812
0.7148
0.714788
0.714776
0.714765
0.714753
0.714741
0.714729
0.714717
0.714706
0.714694
0.714682
0.71467
0.714658
0.714646
0.714635
0.714623
0.714611
0.714599
0.714587
0.714576
0.714564
0.714552
0.71454
0.714528
0.714516
0.714505
0.714493
0.714481
0.714469
0.714457
0.714446
0.714434
0.714422
0.71441
0.714398
0.714386
0.714375
0.714363
0.714351
0.714339
0.714327
0.714316
0.714304
0.714292
0.712844
0.712843
0.712837
0.712831
0.71282
0.712808
0.712793
0.712778
0.712762
0.712747
0.712733
0.712722
0.712714
0.712711
0.712713
0.712721
0.712736
0.71276
0.712792
0.712834
0.712885
0.712946
0.713017
0.713097
0.713186
0.713284
0.713389
0.7135
0.713616
0.713736
0.713858
0.71398
0.714101
0.714219
0.714333
0.714441
0.714542
0.714636
0.71472
0.714796
0.714863
0.714922
0.714973
0.715016
0.715055
0.715088
0.715118
0.715146
0.715172
0.715197
0.715222
0.715248
0.715273
0.715299
0.715326
0.715354
0.715382
0.715412
0.715444
0.715478
0.715514
0.71555
0.715587
0.715622
0.715655
0.715685
0.71571
0.71573
0.715746
0.715756
0.715763
0.715765
0.715765
0.715761
0.715756
0.715749
0.715741
0.715731
0.715721
0.715711
0.7157
0.715688
0.715676
0.715665
0.715653
0.715641
0.715629
0.715617
0.715605
0.715593
0.715581
0.715569
0.715557
0.715545
0.715533
0.715521
0.715509
0.715497
0.715486
0.715474
0.715462
0.71545
0.715438
0.715426
0.715415
0.715403
0.715391
0.715379
0.715367
0.715355
0.715344
0.715332
0.71532
0.715308
0.715296
0.715285
0.715273
0.715261
0.715249
0.715237
0.715225
0.715214
0.715202
0.71519
0.715178
0.715166
0.715155
0.715143
0.715131
0.715119
0.715107
0.715095
0.715084
0.715072
0.71506
0.715048
0.715036
0.715025
0.715013
0.715001
0.714989
0.714977
0.714965
0.714954
0.714942
0.71493
0.714918
0.714906
0.714895
0.714883
0.714871
0.714859
0.714847
0.714835
0.714824
0.714812
0.7148
0.714788
0.714776
0.714765
0.714753
0.714741
0.714729
0.714717
0.714706
0.714694
0.714682
0.71467
0.714658
0.714646
0.714635
0.714623
0.714611
0.714599
0.714587
0.714576
0.714564
0.714552
0.71454
0.714528
0.714516
0.714505
0.714493
0.714481
0.714469
0.714457
0.714446
0.714434
0.714422
0.71441
0.714398
0.714386
0.714375
0.714363
0.714351
0.714339
0.714327
0.714316
0.714304
0.714292
0.712812
0.712828
0.712826
0.712827
0.712819
0.712808
0.712794
0.712778
0.712762
0.712747
0.712732
0.71272
0.712712
0.712708
0.712709
0.712717
0.712732
0.712756
0.712788
0.712829
0.712879
0.71294
0.71301
0.713089
0.713177
0.713273
0.713376
0.713485
0.713598
0.713714
0.713831
0.713947
0.714062
0.714173
0.714279
0.714378
0.71447
0.714553
0.714628
0.714694
0.714752
0.714802
0.714846
0.714886
0.714921
0.714955
0.714987
0.71502
0.715054
0.715089
0.715126
0.715164
0.715204
0.715245
0.715287
0.715329
0.715371
0.715412
0.715453
0.715493
0.715532
0.715571
0.715608
0.715643
0.715675
0.715703
0.715726
0.715744
0.715757
0.715766
0.71577
0.715771
0.715769
0.715764
0.715758
0.71575
0.715741
0.715732
0.715721
0.71571
0.715699
0.715688
0.715676
0.715664
0.715652
0.71564
0.715628
0.715616
0.715604
0.715593
0.715581
0.715569
0.715557
0.715545
0.715533
0.715521
0.715509
0.715497
0.715486
0.715474
0.715462
0.71545
0.715438
0.715426
0.715415
0.715403
0.715391
0.715379
0.715367
0.715355
0.715344
0.715332
0.71532
0.715308
0.715296
0.715285
0.715273
0.715261
0.715249
0.715237
0.715225
0.715214
0.715202
0.71519
0.715178
0.715166
0.715155
0.715143
0.715131
0.715119
0.715107
0.715095
0.715084
0.715072
0.71506
0.715048
0.715036
0.715025
0.715013
0.715001
0.714989
0.714977
0.714965
0.714954
0.714942
0.71493
0.714918
0.714906
0.714895
0.714883
0.714871
0.714859
0.714847
0.714835
0.714824
0.714812
0.7148
0.714788
0.714776
0.714765
0.714753
0.714741
0.714729
0.714717
0.714706
0.714694
0.714682
0.71467
0.714658
0.714646
0.714635
0.714623
0.714611
0.714599
0.714587
0.714576
0.714564
0.714552
0.71454
0.714528
0.714516
0.714505
0.714493
0.714481
0.714469
0.714457
0.714446
0.714434
0.714422
0.71441
0.714398
0.714386
0.714375
0.714363
0.714351
0.714339
0.714327
0.714316
0.714304
0.714292
0.712817
0.712836
0.712835
0.712834
0.712824
0.712813
0.712799
0.712783
0.712767
0.712751
0.712736
0.712724
0.712716
0.712712
0.712714
0.712722
0.712738
0.712762
0.712794
0.712836
0.712887
0.712947
0.713017
0.713096
0.713182
0.713276
0.713376
0.713481
0.71359
0.7137
0.71381
0.713918
0.714023
0.714123
0.714217
0.714303
0.714381
0.714449
0.714509
0.714561
0.714605
0.714644
0.714678
0.71471
0.714742
0.714775
0.71481
0.714849
0.714891
0.714938
0.714989
0.715044
0.715101
0.715161
0.715222
0.715283
0.715342
0.7154
0.715456
0.715508
0.715556
0.7156
0.71564
0.715675
0.715706
0.715731
0.71575
0.715765
0.715774
0.715779
0.715781
0.715779
0.715775
0.715768
0.715761
0.715752
0.715742
0.715732
0.715721
0.71571
0.715699
0.715687
0.715675
0.715664
0.715652
0.71564
0.715628
0.715616
0.715604
0.715592
0.71558
0.715568
0.715557
0.715545
0.715533
0.715521
0.715509
0.715497
0.715485
0.715474
0.715462
0.71545
0.715438
0.715426
0.715415
0.715403
0.715391
0.715379
0.715367
0.715355
0.715344
0.715332
0.71532
0.715308
0.715296
0.715285
0.715273
0.715261
0.715249
0.715237
0.715225
0.715214
0.715202
0.71519
0.715178
0.715166
0.715155
0.715143
0.715131
0.715119
0.715107
0.715095
0.715084
0.715072
0.71506
0.715048
0.715036
0.715025
0.715013
0.715001
0.714989
0.714977
0.714965
0.714954
0.714942
0.71493
0.714918
0.714906
0.714895
0.714883
0.714871
0.714859
0.714847
0.714835
0.714824
0.714812
0.7148
0.714788
0.714776
0.714765
0.714753
0.714741
0.714729
0.714717
0.714706
0.714694
0.714682
0.71467
0.714658
0.714646
0.714635
0.714623
0.714611
0.714599
0.714587
0.714576
0.714564
0.714552
0.71454
0.714528
0.714516
0.714505
0.714493
0.714481
0.714469
0.714457
0.714446
0.714434
0.714422
0.71441
0.714398
0.714386
0.714375
0.714363
0.714351
0.714339
0.714327
0.714316
0.714304
0.714292
0.71266
0.712806
0.712825
0.712843
0.712838
0.712827
0.712812
0.712796
0.712779
0.712763
0.712748
0.712737
0.712729
0.712727
0.71273
0.71274
0.712758
0.712783
0.712818
0.712861
0.712914
0.712975
0.713045
0.713124
0.713209
0.713301
0.713398
0.713498
0.7136
0.713703
0.713803
0.713901
0.713993
0.714078
0.714155
0.714224
0.714283
0.714332
0.714373
0.714407
0.714436
0.714461
0.714486
0.714512
0.714541
0.714575
0.714615
0.714661
0.714714
0.714774
0.71484
0.714911
0.714986
0.715064
0.715143
0.715223
0.715302
0.715378
0.715451
0.715518
0.715578
0.715631
0.715677
0.715714
0.715744
0.715766
0.715782
0.715791
0.715796
0.715796
0.715794
0.715789
0.715782
0.715774
0.715764
0.715754
0.715744
0.715733
0.715721
0.71571
0.715698
0.715687
0.715675
0.715663
0.715651
0.715639
0.715627
0.715616
0.715604
0.715592
0.71558
0.715568
0.715556
0.715545
0.715533
0.715521
0.715509
0.715497
0.715485
0.715474
0.715462
0.71545
0.715438
0.715426
0.715415
0.715403
0.715391
0.715379
0.715367
0.715355
0.715344
0.715332
0.71532
0.715308
0.715296
0.715285
0.715273
0.715261
0.715249
0.715237
0.715225
0.715214
0.715202
0.71519
0.715178
0.715166
0.715155
0.715143
0.715131
0.715119
0.715107
0.715095
0.715084
0.715072
0.71506
0.715048
0.715036
0.715025
0.715013
0.715001
0.714989
0.714977
0.714965
0.714954
0.714942
0.71493
0.714918
0.714906
0.714895
0.714883
0.714871
0.714859
0.714847
0.714835
0.714824
0.714812
0.7148
0.714788
0.714776
0.714765
0.714753
0.714741
0.714729
0.714717
0.714706
0.714694
0.714682
0.71467
0.714658
0.714646
0.714635
0.714623
0.714611
0.714599
0.714587
0.714576
0.714564
0.714552
0.71454
0.714528
0.714516
0.714505
0.714493
0.714481
0.714469
0.714457
0.714446
0.714434
0.714422
0.71441
0.714398
0.714386
0.714375
0.714363
0.714351
0.714339
0.714327
0.714316
0.714304
0.714292
0.713417
0.713361
0.713297
0.713229
0.713155
0.713075
0.712985
0.712861
0.713425
0.713378
0.713314
0.713244
0.713169
0.713089
0.712996
0.712895
0.71343
0.713391
0.713332
0.713266
0.713196
0.713123
0.71305
0.712978
0.713442
0.713408
0.713355
0.713293
0.713229
0.713164
0.7131
0.713042
0.713456
0.713424
0.713375
0.713319
0.713261
0.713204
0.713151
0.713104
0.713472
0.71344
0.713392
0.713339
0.713286
0.713235
0.713189
0.713149
0.713489
0.713452
0.713403
0.713352
0.713302
0.713256
0.713214
0.713177
0.713498
0.713451
0.713402
0.713353
0.713306
0.713262
0.713222
0.713186
0.71279
0.712813
0.712835
0.712844
0.712842
0.712834
0.712822
0.712807
0.712793
0.712779
0.712767
0.712759
0.712755
0.712757
0.712764
0.712778
0.7128
0.71283
0.712869
0.712916
0.712972
0.713035
0.713107
0.713185
0.71327
0.713359
0.713451
0.713545
0.713639
0.713731
0.71382
0.713902
0.713978
0.714044
0.714101
0.714149
0.714186
0.714214
0.714236
0.714252
0.714267
0.714282
0.7143
0.714323
0.714354
0.714392
0.71444
0.714496
0.71456
0.714632
0.714711
0.714797
0.714886
0.714979
0.715075
0.71517
0.715265
0.715357
0.715444
0.715524
0.715597
0.71566
0.715712
0.715752
0.715783
0.715803
0.715815
0.71582
0.715819
0.715815
0.715809
0.7158
0.71579
0.71578
0.715769
0.715757
0.715746
0.715734
0.715722
0.71571
0.715698
0.715686
0.715674
0.715662
0.715651
0.715639
0.715627
0.715615
0.715603
0.715592
0.71558
0.715568
0.715556
0.715544
0.715533
0.715521
0.715509
0.715497
0.715485
0.715474
0.715462
0.71545
0.715438
0.715426
0.715415
0.715403
0.715391
0.715379
0.715367
0.715355
0.715344
0.715332
0.71532
0.715308
0.715296
0.715285
0.715273
0.715261
0.715249
0.715237
0.715225
0.715214
0.715202
0.71519
0.715178
0.715166
0.715155
0.715143
0.715131
0.715119
0.715107
0.715095
0.715084
0.715072
0.71506
0.715048
0.715036
0.715025
0.715013
0.715001
0.714989
0.714977
0.714965
0.714954
0.714942
0.71493
0.714918
0.714906
0.714895
0.714883
0.714871
0.714859
0.714847
0.714835
0.714824
0.714812
0.7148
0.714788
0.714776
0.714765
0.714753
0.714741
0.714729
0.714717
0.714706
0.714694
0.714682
0.71467
0.714658
0.714646
0.714635
0.714623
0.714611
0.714599
0.714587
0.714576
0.714564
0.714552
0.71454
0.714528
0.714516
0.714505
0.714493
0.714481
0.714469
0.714457
0.714446
0.714434
0.714422
0.71441
0.714398
0.714386
0.714375
0.714363
0.714351
0.714339
0.714327
0.714316
0.714304
0.714292
0.712818
0.712826
0.71284
0.71285
0.712853
0.71285
0.712843
0.712834
0.712824
0.712816
0.71281
0.712807
0.71281
0.712817
0.712831
0.712852
0.712881
0.712918
0.712962
0.713014
0.713074
0.71314
0.713212
0.71329
0.713372
0.713456
0.713542
0.713627
0.713709
0.713787
0.713859
0.713923
0.713978
0.714023
0.714058
0.714082
0.714098
0.714107
0.714112
0.714117
0.714124
0.714137
0.714156
0.714183
0.714219
0.714265
0.714321
0.714385
0.714459
0.71454
0.714629
0.714723
0.714823
0.714926
0.715031
0.715137
0.715243
0.715345
0.715442
0.715533
0.715614
0.715684
0.715741
0.715785
0.715816
0.715835
0.715845
0.715846
0.715842
0.715834
0.715823
0.715812
0.715799
0.715786
0.715773
0.71576
0.715748
0.715735
0.715722
0.71571
0.715698
0.715686
0.715674
0.715662
0.71565
0.715638
0.715627
0.715615
0.715603
0.715591
0.71558
0.715568
0.715556
0.715544
0.715533
0.715521
0.715509
0.715497
0.715485
0.715474
0.715462
0.71545
0.715438
0.715426
0.715415
0.715403
0.715391
0.715379
0.715367
0.715355
0.715344
0.715332
0.71532
0.715308
0.715296
0.715285
0.715273
0.715261
0.715249
0.715237
0.715225
0.715214
0.715202
0.71519
0.715178
0.715166
0.715155
0.715143
0.715131
0.715119
0.715107
0.715095
0.715084
0.715072
0.71506
0.715048
0.715036
0.715025
0.715013
0.715001
0.714989
0.714977
0.714965
0.714954
0.714942
0.71493
0.714918
0.714906
0.714895
0.714883
0.714871
0.714859
0.714847
0.714835
0.714824
0.714812
0.7148
0.714788
0.714776
0.714765
0.714753
0.714741
0.714729
0.714717
0.714706
0.714694
0.714682
0.71467
0.714658
0.714646
0.714635
0.714623
0.714611
0.714599
0.714587
0.714576
0.714564
0.714552
0.71454
0.714528
0.714516
0.714505
0.714493
0.714481
0.714469
0.714457
0.714446
0.714434
0.714422
0.71441
0.714398
0.714386
0.714375
0.714363
0.714351
0.714339
0.714327
0.714316
0.714304
0.714292
0.712923
0.712898
0.712892
0.712891
0.71289
0.712888
0.712884
0.71288
0.712876
0.712875
0.712876
0.712882
0.712893
0.712909
0.712932
0.712962
0.712999
0.713044
0.713095
0.713152
0.713216
0.713284
0.713355
0.71343
0.713506
0.713583
0.713659
0.713731
0.713797
0.713857
0.713908
0.71395
0.713983
0.714005
0.714019
0.714026
0.714028
0.714028
0.714028
0.714031
0.714039
0.714055
0.714079
0.714112
0.714154
0.714205
0.714266
0.714335
0.714413
0.714499
0.714592
0.714692
0.714797
0.714905
0.715016
0.715128
0.715239
0.715347
0.71545
0.715546
0.715632
0.715706
0.715766
0.715812
0.715843
0.715861
0.715869
0.715868
0.715861
0.71585
0.715837
0.715823
0.715808
0.715793
0.715778
0.715763
0.715749
0.715736
0.715723
0.71571
0.715698
0.715685
0.715673
0.715661
0.71565
0.715638
0.715626
0.715614
0.715603
0.715591
0.715579
0.715568
0.715556
0.715544
0.715532
0.715521
0.715509
0.715497
0.715485
0.715474
0.715462
0.71545
0.715438
0.715426
0.715415
0.715403
0.715391
0.715379
0.715367
0.715355
0.715344
0.715332
0.71532
0.715308
0.715296
0.715285
0.715273
0.715261
0.715249
0.715237
0.715225
0.715214
0.715202
0.71519
0.715178
0.715166
0.715155
0.715143
0.715131
0.715119
0.715107
0.715095
0.715084
0.715072
0.71506
0.715048
0.715036
0.715025
0.715013
0.715001
0.714989
0.714977
0.714965
0.714954
0.714942
0.71493
0.714918
0.714906
0.714895
0.714883
0.714871
0.714859
0.714847
0.714835
0.714824
0.714812
0.7148
0.714788
0.714776
0.714765
0.714753
0.714741
0.714729
0.714717
0.714706
0.714694
0.714682
0.71467
0.714658
0.714646
0.714635
0.714623
0.714611
0.714599
0.714587
0.714576
0.714564
0.714552
0.71454
0.714528
0.714516
0.714505
0.714493
0.714481
0.714469
0.714457
0.714446
0.714434
0.714422
0.71441
0.714398
0.714386
0.714375
0.714363
0.714351
0.714339
0.714327
0.714316
0.714304
0.714292
0.712995
0.712968
0.712954
0.712948
0.712944
0.712942
0.71294
0.71294
0.712942
0.712948
0.712957
0.712972
0.712991
0.713017
0.71305
0.713089
0.713134
0.713186
0.713244
0.713307
0.713373
0.71344
0.713509
0.713577
0.713644
0.713709
0.713769
0.713823
0.71387
0.713909
0.713941
0.713965
0.713982
0.713992
0.713995
0.713992
0.713988
0.713986
0.713988
0.713997
0.714011
0.714032
0.714061
0.714096
0.714141
0.714193
0.714255
0.714326
0.714406
0.714494
0.714589
0.714691
0.714798
0.714909
0.715023
0.715138
0.715251
0.715362
0.715467
0.715565
0.715652
0.715726
0.715787
0.715832
0.715863
0.71588
0.715887
0.715885
0.715876
0.715864
0.715848
0.715832
0.715815
0.715798
0.715782
0.715766
0.715751
0.715737
0.715723
0.71571
0.715697
0.715685
0.715673
0.715661
0.715649
0.715637
0.715626
0.715614
0.715602
0.715591
0.715579
0.715567
0.715556
0.715544
0.715532
0.715521
0.715509
0.715497
0.715485
0.715474
0.715462
0.71545
0.715438
0.715426
0.715415
0.715403
0.715391
0.715379
0.715367
0.715355
0.715344
0.715332
0.71532
0.715308
0.715296
0.715285
0.715273
0.715261
0.715249
0.715237
0.715225
0.715214
0.715202
0.71519
0.715178
0.715166
0.715155
0.715143
0.715131
0.715119
0.715107
0.715095
0.715084
0.715072
0.71506
0.715048
0.715036
0.715025
0.715013
0.715001
0.714989
0.714977
0.714965
0.714954
0.714942
0.71493
0.714918
0.714906
0.714895
0.714883
0.714871
0.714859
0.714847
0.714835
0.714824
0.714812
0.7148
0.714788
0.714776
0.714765
0.714753
0.714741
0.714729
0.714717
0.714706
0.714694
0.714682
0.71467
0.714658
0.714646
0.714635
0.714623
0.714611
0.714599
0.714587
0.714576
0.714564
0.714552
0.71454
0.714528
0.714516
0.714505
0.714493
0.714481
0.714469
0.714457
0.714446
0.714434
0.714422
0.71441
0.714398
0.714386
0.714375
0.714363
0.714351
0.714339
0.714327
0.714316
0.714304
0.714292
0.713066
0.713039
0.713022
0.713012
0.713005
0.713002
0.713002
0.713005
0.713011
0.713022
0.713039
0.71306
0.713088
0.713122
0.713162
0.713209
0.713262
0.71332
0.713382
0.713446
0.71351
0.713572
0.713631
0.713687
0.713741
0.713793
0.713841
0.713883
0.713917
0.713943
0.713957
0.713962
0.713962
0.713962
0.713965
0.71397
0.713977
0.713984
0.713992
0.714002
0.714017
0.714038
0.714065
0.714101
0.714146
0.7142
0.714263
0.714335
0.714416
0.714506
0.714603
0.714706
0.714815
0.714927
0.715043
0.715158
0.715273
0.715383
0.715488
0.715585
0.715671
0.715744
0.715803
0.715847
0.715877
0.715894
0.7159
0.715897
0.715887
0.715873
0.715857
0.715839
0.71582
0.715802
0.715785
0.715768
0.715752
0.715737
0.715723
0.71571
0.715697
0.715685
0.715672
0.71566
0.715649
0.715637
0.715625
0.715614
0.715602
0.715591
0.715579
0.715567
0.715556
0.715544
0.715532
0.715521
0.715509
0.715497
0.715485
0.715474
0.715462
0.71545
0.715438
0.715426
0.715415
0.715403
0.715391
0.715379
0.715367
0.715355
0.715344
0.715332
0.71532
0.715308
0.715296
0.715285
0.715273
0.715261
0.715249
0.715237
0.715225
0.715214
0.715202
0.71519
0.715178
0.715166
0.715155
0.715143
0.715131
0.715119
0.715107
0.715095
0.715084
0.715072
0.71506
0.715048
0.715036
0.715025
0.715013
0.715001
0.714989
0.714977
0.714965
0.714954
0.714942
0.71493
0.714918
0.714906
0.714895
0.714883
0.714871
0.714859
0.714847
0.714835
0.714824
0.714812
0.7148
0.714788
0.714776
0.714765
0.714753
0.714741
0.714729
0.714717
0.714706
0.714694
0.714682
0.71467
0.714658
0.714646
0.714635
0.714623
0.714611
0.714599
0.714587
0.714576
0.714564
0.714552
0.71454
0.714528
0.714516
0.714505
0.714493
0.714481
0.714469
0.714457
0.714446
0.714434
0.714422
0.71441
0.714398
0.714386
0.714375
0.714363
0.714351
0.714339
0.714327
0.714316
0.714304
0.714292
0.713116
0.713091
0.713073
0.71306
0.713052
0.713048
0.713048
0.713053
0.713063
0.713079
0.7131
0.713126
0.713159
0.713197
0.713242
0.713292
0.713347
0.713406
0.713469
0.713532
0.713594
0.713651
0.713704
0.713753
0.713797
0.713835
0.713862
0.713877
0.713888
0.713902
0.71392
0.713938
0.713955
0.713967
0.713976
0.713981
0.713984
0.713988
0.713995
0.714006
0.714023
0.714046
0.714076
0.714114
0.714161
0.714216
0.714281
0.714354
0.714436
0.714527
0.714625
0.714729
0.714838
0.714952
0.715067
0.715182
0.715296
0.715405
0.715508
0.715603
0.715686
0.715756
0.715813
0.715856
0.715884
0.7159
0.715906
0.715902
0.715893
0.715878
0.715861
0.715842
0.715823
0.715804
0.715786
0.715769
0.715753
0.715738
0.715724
0.71571
0.715697
0.715684
0.715672
0.71566
0.715649
0.715637
0.715625
0.715614
0.715602
0.715591
0.715579
0.715567
0.715556
0.715544
0.715532
0.715521
0.715509
0.715497
0.715485
0.715474
0.715462
0.71545
0.715438
0.715426
0.715415
0.715403
0.715391
0.715379
0.715367
0.715355
0.715344
0.715332
0.71532
0.715308
0.715296
0.715285
0.715273
0.715261
0.715249
0.715237
0.715225
0.715214
0.715202
0.71519
0.715178
0.715166
0.715155
0.715143
0.715131
0.715119
0.715107
0.715095
0.715084
0.715072
0.71506
0.715048
0.715036
0.715025
0.715013
0.715001
0.714989
0.714977
0.714965
0.714954
0.714942
0.71493
0.714918
0.714906
0.714895
0.714883
0.714871
0.714859
0.714847
0.714835
0.714824
0.714812
0.7148
0.714788
0.714776
0.714765
0.714753
0.714741
0.714729
0.714717
0.714706
0.714694
0.714682
0.71467
0.714658
0.714646
0.714635
0.714623
0.714611
0.714599
0.714587
0.714576
0.714564
0.714552
0.71454
0.714528
0.714516
0.714505
0.714493
0.714481
0.714469
0.714457
0.714446
0.714434
0.714422
0.71441
0.714398
0.714386
0.714375
0.714363
0.714351
0.714339
0.714327
0.714316
0.714304
0.714292
0.713147
0.713122
0.713102
0.713088
0.713079
0.713074
0.713075
0.713081
0.713093
0.713111
0.713135
0.713164
0.713199
0.71324
0.713286
0.713338
0.713394
0.713454
0.713515
0.713572
0.713622
0.713661
0.713693
0.713723
0.713758
0.713795
0.713833
0.713866
0.713895
0.713918
0.713935
0.713947
0.713955
0.713961
0.713968
0.713974
0.713981
0.713989
0.713999
0.714013
0.714031
0.714055
0.714087
0.714126
0.714173
0.71423
0.714295
0.71437
0.714453
0.714544
0.714642
0.714747
0.714857
0.71497
0.715085
0.715199
0.715311
0.715419
0.71552
0.715612
0.715692
0.715761
0.715815
0.715856
0.715884
0.715899
0.715905
0.715901
0.715892
0.715878
0.715861
0.715843
0.715824
0.715805
0.715787
0.71577
0.715754
0.715738
0.715724
0.71571
0.715697
0.715685
0.715672
0.71566
0.715649
0.715637
0.715625
0.715614
0.715602
0.71559
0.715579
0.715567
0.715556
0.715544
0.715532
0.715521
0.715509
0.715497
0.715485
0.715473
0.715462
0.71545
0.715438
0.715426
0.715415
0.715403
0.715391
0.715379
0.715367
0.715355
0.715344
0.715332
0.71532
0.715308
0.715296
0.715285
0.715273
0.715261
0.715249
0.715237
0.715225
0.715214
0.715202
0.71519
0.715178
0.715166
0.715155
0.715143
0.715131
0.715119
0.715107
0.715095
0.715084
0.715072
0.71506
0.715048
0.715036
0.715025
0.715013
0.715001
0.714989
0.714977
0.714965
0.714954
0.714942
0.71493
0.714918
0.714906
0.714895
0.714883
0.714871
0.714859
0.714847
0.714835
0.714824
0.714812
0.7148
0.714788
0.714776
0.714765
0.714753
0.714741
0.714729
0.714717
0.714706
0.714694
0.714682
0.71467
0.714658
0.714646
0.714635
0.714623
0.714611
0.714599
0.714587
0.714576
0.714564
0.714552
0.71454
0.714528
0.714516
0.714505
0.714493
0.714481
0.714469
0.714457
0.714446
0.714434
0.714422
0.71441
0.714398
0.714386
0.714375
0.714363
0.714351
0.714339
0.714327
0.714316
0.714304
0.714292
0.713155
0.713129
0.713108
0.713092
0.713081
0.713076
0.713076
0.713082
0.713094
0.713111
0.713134
0.713162
0.713194
0.713232
0.713274
0.71332
0.713371
0.713425
0.713482
0.713538
0.713591
0.71364
0.713684
0.713727
0.713768
0.713805
0.713837
0.713862
0.713884
0.713903
0.71392
0.713935
0.713947
0.713957
0.713965
0.713972
0.71398
0.713988
0.713999
0.714014
0.714034
0.71406
0.714093
0.714134
0.714183
0.71424
0.714307
0.714382
0.714466
0.714558
0.714657
0.714762
0.714872
0.714985
0.715099
0.715213
0.715324
0.71543
0.715529
0.715618
0.715697
0.715763
0.715815
0.715855
0.715881
0.715897
0.715902
0.715899
0.71589
0.715876
0.71586
0.715842
0.715823
0.715805
0.715787
0.71577
0.715754
0.715739
0.715724
0.715711
0.715697
0.715685
0.715672
0.71566
0.715649
0.715637
0.715625
0.715614
0.715602
0.71559
0.715579
0.715567
0.715556
0.715544
0.715532
0.715521
0.715509
0.715497
0.715485
0.715473
0.715462
0.71545
0.715438
0.715426
0.715415
0.715403
0.715391
0.715379
0.715367
0.715355
0.715344
0.715332
0.71532
0.715308
0.715296
0.715285
0.715273
0.715261
0.715249
0.715237
0.715225
0.715214
0.715202
0.71519
0.715178
0.715166
0.715155
0.715143
0.715131
0.715119
0.715107
0.715095
0.715084
0.715072
0.71506
0.715048
0.715036
0.715025
0.715013
0.715001
0.714989
0.714977
0.714965
0.714954
0.714942
0.71493
0.714918
0.714906
0.714895
0.714883
0.714871
0.714859
0.714847
0.714835
0.714824
0.714812
0.7148
0.714788
0.714776
0.714765
0.714753
0.714741
0.714729
0.714717
0.714706
0.714694
0.714682
0.71467
0.714658
0.714646
0.714635
0.714623
0.714611
0.714599
0.714587
0.714576
0.714564
0.714552
0.71454
0.714528
0.714516
0.714505
0.714493
0.714481
0.714469
0.714457
0.714446
0.714434
0.714422
0.71441
0.714398
0.714386
0.714375
0.714363
0.714351
0.714339
0.714327
0.714316
0.714304
0.714292
)
;

boundaryField
{
    inlet
    {
        type            zeroGradient;
    }
    outlet
    {