/*--------------------------------*- C++ -*----------------------------------*\
| =========                 |                                                 |
| \\      /  F ield         | OpenFOAM: The Open Source CFD Toolbox           |
|  \\    /   O peration     | Version:  4.1                                   |
|   \\  /    A nd           | Web:      www.OpenFOAM.org                      |
|    \\/     M anipulation  |                                                 |
\*---------------------------------------------------------------------------*/
FoamFile
{
    version     2.0;
    format      ascii;
    class       volVectorField;
    location    "764";
    object      U;
}
// * * * * * * * * * * * * * * * * * * * * * * * * * * * * * * * * * * * * * //

dimensions      [0 1 -1 0 0 0 0];

internalField   nonuniform List<vector> 
3264
(
(-2.66213e-06 -4.79259e-07 0)
(-0.000133191 3.05662e-05 0)
(-0.000389821 4.86676e-05 0)
(-0.000677088 5.10055e-05 0)
(-0.00097902 5.2729e-05 0)
(-0.00128498 5.21311e-05 0)
(-0.00158964 5.34255e-05 0)
(-0.00189434 5.40603e-05 0)
(-0.00219446 5.51522e-05 0)
(-0.00249072 5.5762e-05 0)
(-0.0027805 5.62992e-05 0)
(-0.003064 5.65187e-05 0)
(-0.0033401 5.6582e-05 0)
(-0.00360888 5.64503e-05 0)
(-0.00386996 5.61956e-05 0)
(-0.0041234 5.58291e-05 0)
(-0.00436918 5.53883e-05 0)
(-0.00460737 5.48902e-05 0)
(-0.00483806 5.43558e-05 0)
(-0.00506134 5.37985e-05 0)
(-0.00527733 5.323e-05 0)
(-0.00548611 5.26585e-05 0)
(-0.00568776 5.20899e-05 0)
(-0.00588233 5.15277e-05 0)
(-0.00606986 5.0973e-05 0)
(-0.00625033 5.04248e-05 0)
(-0.00642369 4.98795e-05 0)
(-0.00658985 4.93314e-05 0)
(-0.00674865 4.87717e-05 0)
(-0.00689989 4.81893e-05 0)
(-0.0070433 4.75699e-05 0)
(-0.00717852 4.68963e-05 0)
(-0.00730514 4.61483e-05 0)
(-0.00742266 4.53028e-05 0)
(-0.0075305 4.43337e-05 0)
(-0.00762801 4.32126e-05 0)
(-0.00771446 4.19092e-05 0)
(-0.00778901 4.03915e-05 0)
(-0.0078508 3.86271e-05 0)
(-0.00789886 3.65835e-05 0)
(-0.00793221 3.42299e-05 0)
(-0.00794981 3.15375e-05 0)
(-0.00795058 2.84811e-05 0)
(-0.00793346 2.50403e-05 0)
(-0.00789738 2.12003e-05 0)
(-0.00784134 1.69532e-05 0)
(-0.00776435 1.22989e-05 0)
(-0.00766553 7.2457e-06 0)
(-0.00754408 1.81078e-06 0)
(-0.00739934 -3.97949e-06 0)
(-0.00723076 -1.00896e-05 0)
(-0.007038 -1.64752e-05 0)
(-0.00682085 -2.30836e-05 0)
(-0.00657932 -2.98547e-05 0)
(-0.00631361 -3.67219e-05 0)
(-0.00602413 -4.36134e-05 0)
(-0.00571152 -5.04536e-05 0)
(-0.00537661 -5.71646e-05 0)
(-0.00502047 -6.36677e-05 0)
(-0.00464434 -6.98853e-05 0)
(-0.0042497 -7.57424e-05 0)
(-0.00383819 -8.11681e-05 0)
(-0.0034116 -8.60972e-05 0)
(-0.00297189 -9.04716e-05 0)
(-0.00252114 -9.42415e-05 0)
(-0.00206152 -9.73666e-05 0)
(-0.00159529 -9.98166e-05 0)
(-0.00112474 -0.000101572 0)
(-0.000652177 -0.000102624 0)
(-0.000179922 -0.000102976 0)
(0.000289763 -0.000102641 0)
(0.000754673 -0.000101644 0)
(0.00121269 -0.000100018 0)
(0.00166183 -9.78058e-05 0)
(0.00210021 -9.50585e-05 0)
(0.00252613 -9.18325e-05 0)
(0.00293806 -8.81898e-05 0)
(0.00333464 -8.41955e-05 0)
(0.00371472 -7.9917e-05 0)
(0.00407733 -7.54219e-05 0)
(0.00442173 -7.07769e-05 0)
(0.00474734 -6.60464e-05 0)
(0.00505382 -6.12911e-05 0)
(0.00534098 -5.65673e-05 0)
(0.00560885 -5.1926e-05 0)
(0.00585758 -4.74121e-05 0)
(0.0060875 -4.30643e-05 0)
(0.00629908 -3.89146e-05 0)
(0.00649289 -3.49885e-05 0)
(0.0066696 -3.13054e-05 0)
(0.00683 -2.78785e-05 0)
(0.0069749 -2.47153e-05 0)
(0.00710519 -2.18185e-05 0)
(0.00722179 -1.91864e-05 0)
(0.00732563 -1.68133e-05 0)
(0.00741767 -1.46907e-05 0)
(0.00749883 -1.28073e-05 0)
(0.00757006 -1.115e-05 0)
(0.00763224 -9.70439e-06 0)
(0.00768624 -8.45509e-06 0)
(0.00773291 -7.38632e-06 0)
(0.00777304 -6.48219e-06 0)
(0.00780736 -5.72705e-06 0)
(0.00783658 -5.10567e-06 0)
(0.00786135 -4.60349e-06 0)
(0.00788226 -4.20668e-06 0)
(0.00789988 -3.90231e-06 0)
(0.0079147 -3.67834e-06 0)
(0.00792718 -3.52369e-06 0)
(0.00793773 -3.42819e-06 0)
(0.00794672 -3.38263e-06 0)
(0.00795448 -3.37868e-06 0)
(0.0079613 -3.40884e-06 0)
(0.00796743 -3.46644e-06 0)
(0.00797309 -3.54555e-06 0)
(0.00797848 -3.64093e-06 0)
(0.00798375 -3.748e-06 0)
(0.00798904 -3.86274e-06 0)
(0.00799446 -3.9817e-06 0)
(0.00800011 -4.10191e-06 0)
(0.00800606 -4.22082e-06 0)
(0.00801236 -4.33632e-06 0)
(0.00801907 -4.44661e-06 0)
(0.00802619 -4.55026e-06 0)
(0.00803376 -4.6461e-06 0)
(0.00804178 -4.73322e-06 0)
(0.00805024 -4.81093e-06 0)
(0.00805914 -4.87876e-06 0)
(0.00806846 -4.93638e-06 0)
(0.00807818 -4.98366e-06 0)
(0.00808827 -5.02056e-06 0)
(0.00809871 -5.04717e-06 0)
(0.00810946 -5.06368e-06 0)
(0.00812049 -5.07036e-06 0)
(0.00813177 -5.06755e-06 0)
(0.00814326 -5.05564e-06 0)
(0.00815493 -5.03508e-06 0)
(0.00816674 -5.00633e-06 0)
(0.00817866 -4.96991e-06 0)
(0.00819064 -4.92634e-06 0)
(0.00820267 -4.87614e-06 0)
(0.0082147 -4.81986e-06 0)
(0.00822672 -4.75804e-06 0)
(0.00823868 -4.69122e-06 0)
(0.00825056 -4.61992e-06 0)
(0.00826235 -4.54467e-06 0)
(0.00827401 -4.46596e-06 0)
(0.00828552 -4.38428e-06 0)
(0.00829687 -4.3001e-06 0)
(0.00830804 -4.21387e-06 0)
(0.00831902 -4.12602e-06 0)
(0.00832979 -4.03695e-06 0)
(0.00834033 -3.94703e-06 0)
(0.00835065 -3.85663e-06 0)
(0.00836074 -3.76608e-06 0)
(0.00837058 -3.67568e-06 0)
(0.00838018 -3.58573e-06 0)
(0.00838953 -3.49648e-06 0)
(0.00839863 -3.40818e-06 0)
(0.00840749 -3.32104e-06 0)
(0.0084161 -3.23525e-06 0)
(0.00842447 -3.15098e-06 0)
(0.00843261 -3.06839e-06 0)
(0.00844052 -2.9876e-06 0)
(0.0084482 -2.90873e-06 0)
(0.00845566 -2.83185e-06 0)
(0.00846292 -2.75705e-06 0)
(0.00846998 -2.68436e-06 0)
(0.00847686 -2.61382e-06 0)
(0.00848355 -2.54545e-06 0)
(0.00849008 -2.47922e-06 0)
(0.00849645 -2.41513e-06 0)
(0.00850268 -2.35311e-06 0)
(0.00850878 -2.29309e-06 0)
(0.00851476 -2.235e-06 0)
(0.00852062 -2.1787e-06 0)
(0.00852639 -2.12405e-06 0)
(0.00853207 -2.07087e-06 0)
(0.00853767 -2.01896e-06 0)
(0.0085432 -1.96803e-06 0)
(0.00854867 -1.91779e-06 0)
(0.00855409 -1.86783e-06 0)
(0.00855946 -1.81766e-06 0)
(0.0085648 -1.76667e-06 0)
(0.00857008 -1.71408e-06 0)
(0.00857533 -1.65887e-06 0)
(0.00858053 -1.59967e-06 0)
(0.00858567 -1.53476e-06 0)
(0.00859074 -1.46153e-06 0)
(0.00859571 -1.3772e-06 0)
(0.00860055 -1.27579e-06 0)
(0.00860519 -1.15508e-06 0)
(0.00860959 -9.96625e-07 0)
(0.00861357 -8.13139e-07 0)
(0.0086172 -5.39231e-07 0)
(0.00861976 -2.49265e-07 0)
(0.00862228 1.96207e-07 0)
(0.00862145 8.10507e-07 0)
(0.00862306 9.94683e-07 0)
(0.00861528 3.31843e-06 0)
(-8.33633e-05 0.000136413 0)
(-0.00058295 0.000379264 0)
(-0.00131144 0.000518348 0)
(-0.00208613 0.000562452 0)
(-0.00286592 0.000583434 0)
(-0.00363393 0.00058516 0)
(-0.00437685 0.000585114 0)
(-0.00509754 0.000578433 0)
(-0.00578881 0.000569511 0)
(-0.00645284 0.000557338 0)
(-0.00708693 0.000543702 0)
(-0.0076925 0.000528788 0)
(-0.00826918 0.000513317 0)
(-0.00881809 0.000497519 0)
(-0.00933972 0.000481674 0)
(-0.009835 0.000465908 0)
(-0.0103046 0.000450319 0)
(-0.0107494 0.000434952 0)
(-0.0111699 0.000419828 0)
(-0.0115667 0.00040494 0)
(-0.0119403 0.000390269 0)
(-0.012291 0.000375778 0)
(-0.0126192 0.00036142 0)
(-0.0129251 0.000347136 0)
(-0.0132086 0.000332854 0)
(-0.0134698 0.000318496 0)
(-0.0137084 0.000303969 0)
(-0.0139242 0.000289172 0)
(-0.0141168 0.000273995 0)
(-0.0142857 0.000258317 0)
(-0.0144301 0.000242009 0)
(-0.0145494 0.000224935 0)
(-0.0146426 0.000206955 0)
(-0.0147088 0.000187926 0)
(-0.0147468 0.000167704 0)
(-0.0147555 0.00014615 0)
(-0.0147336 0.000123131 0)
(-0.0146798 9.85254e-05 0)
(-0.0145928 7.22278e-05 0)
(-0.0144712 4.41511e-05 0)
(-0.0143135 1.42318e-05 0)
(-0.0141186 -1.75656e-05 0)
(-0.0138852 -5.12464e-05 0)
(-0.0136121 -8.67817e-05 0)
(-0.0132981 -0.000124107 0)
(-0.0129426 -0.000163119 0)
(-0.0125447 -0.000203679 0)
(-0.0121038 -0.000245608 0)
(-0.0116198 -0.000288691 0)
(-0.0110925 -0.000332678 0)
(-0.0105222 -0.000377288 0)
(-0.00990921 -0.000422211 0)
(-0.00925444 -0.000467113 0)
(-0.00855887 -0.000511642 0)
(-0.00782385 -0.000555432 0)
(-0.00705101 -0.000598106 0)
(-0.00624227 -0.000639289 0)
(-0.0053998 -0.000678608 0)
(-0.00452607 -0.0007157 0)
(-0.00362377 -0.000750217 0)
(-0.00269585 -0.000781835 0)
(-0.00174542 -0.000810254 0)
(-0.000775814 -0.000835207 0)
(0.000209516 -0.000856465 0)
(0.00120698 -0.000873836 0)
(0.00221291 -0.000887174 0)
(0.00322358 -0.000896379 0)
(0.00423523 -0.000901397 0)
(0.00524413 -0.000902224 0)
(0.0062466 -0.000898903 0)
(0.00723905 -0.000891527 0)
(0.00821797 -0.000880233 0)
(0.00918005 -0.000865202 0)
(0.0101221 -0.000846656 0)
(0.0110412 -0.000824851 0)
(0.0119346 -0.000800076 0)
(0.0127999 -0.000772644 0)
(0.0136348 -0.000742891 0)
(0.0144375 -0.000711165 0)
(0.0152062 -0.000677822 0)
(0.0159397 -0.000643223 0)
(0.0166369 -0.000607722 0)
(0.017297 -0.000571666 0)
(0.0179197 -0.000535389 0)
(0.0185047 -0.000499204 0)
(0.0190521 -0.000463404 0)
(0.0195623 -0.000428254 0)
(0.0200358 -0.000393995 0)
(0.0204734 -0.000360834 0)
(0.020876 -0.000328952 0)
(0.0212449 -0.000298496 0)
(0.0215812 -0.000269587 0)
(0.0218864 -0.000242313 0)
(0.022162 -0.000216737 0)
(0.0224096 -0.000192895 0)
(0.0226307 -0.000170801 0)
(0.022827 -0.000150446 0)
(0.0230003 -0.000131804 0)
(0.0231521 -0.000114832 0)
(0.0232842 -9.9475e-05 0)
(0.0233982 -8.56656e-05 0)
(0.0234956 -7.33283e-05 0)
(0.023578 -6.23813e-05 0)
(0.0236469 -5.27383e-05 0)
(0.0237036 -4.43099e-05 0)
(0.0237494 -3.70062e-05 0)
(0.0237857 -3.0737e-05 0)
(0.0238136 -2.54136e-05 0)
(0.0238341 -2.09497e-05 0)
(0.0238484 -1.7262e-05 0)
(0.0238572 -1.42707e-05 0)
(0.0238615 -1.19002e-05 0)
(0.023862 -1.00792e-05 0)
(0.0238594 -8.741e-06 0)
(0.0238544 -7.82349e-06 0)
(0.0238474 -7.26931e-06 0)
(0.0238391 -7.02566e-06 0)
(0.0238298 -7.04427e-06 0)
(0.0238199 -7.28121e-06 0)
(0.0238097 -7.69675e-06 0)
(0.0237995 -8.25512e-06 0)
(0.0237896 -8.92431e-06 0)
(0.0237802 -9.67584e-06 0)
(0.0237713 -1.04846e-05 0)
(0.0237632 -1.13283e-05 0)
(0.0237559 -1.21879e-05 0)
(0.0237495 -1.30467e-05 0)
(0.0237441 -1.38904e-05 0)
(0.0237397 -1.4707e-05 0)
(0.0237362 -1.54864e-05 0)
(0.0237338 -1.62203e-05 0)
(0.0237323 -1.69023e-05 0)
(0.0237317 -1.75272e-05 0)
(0.0237321 -1.80912e-05 0)
(0.0237333 -1.85915e-05 0)
(0.0237353 -1.90268e-05 0)
(0.0237381 -1.93962e-05 0)
(0.0237415 -1.96999e-05 0)
(0.0237456 -1.99387e-05 0)
(0.0237502 -2.01141e-05 0)
(0.0237553 -2.02279e-05 0)
(0.0237608 -2.02827e-05 0)
(0.0237667 -2.0281e-05 0)
(0.0237729 -2.02261e-05 0)
(0.0237793 -2.0121e-05 0)
(0.023786 -1.99693e-05 0)
(0.0237927 -1.97746e-05 0)
(0.0237995 -1.95405e-05 0)
(0.0238064 -1.92709e-05 0)
(0.0238132 -1.89694e-05 0)
(0.02382 -1.86397e-05 0)
(0.0238267 -1.82857e-05 0)
(0.0238333 -1.79109e-05 0)
(0.0238397 -1.75189e-05 0)
(0.023846 -1.71131e-05 0)
(0.023852 -1.6697e-05 0)
(0.0238579 -1.62738e-05 0)
(0.0238635 -1.58465e-05 0)
(0.0238688 -1.54181e-05 0)
(0.023874 -1.49914e-05 0)
(0.0238789 -1.45691e-05 0)
(0.0238835 -1.41535e-05 0)
(0.0238879 -1.37471e-05 0)
(0.0238921 -1.33519e-05 0)
(0.023896 -1.29698e-05 0)
(0.0238997 -1.26028e-05 0)
(0.0239033 -1.22523e-05 0)
(0.0239066 -1.19197e-05 0)
(0.0239098 -1.16064e-05 0)
(0.0239128 -1.13132e-05 0)
(0.0239158 -1.10411e-05 0)
(0.0239186 -1.07906e-05 0)
(0.0239214 -1.05622e-05 0)
(0.0239241 -1.03562e-05 0)
(0.0239268 -1.01724e-05 0)
(0.0239296 -1.00106e-05 0)
(0.0239323 -9.87037e-06 0)
(0.0239352 -9.75088e-06 0)
(0.0239381 -9.65104e-06 0)
(0.0239411 -9.56942e-06 0)
(0.0239443 -9.50418e-06 0)
(0.0239477 -9.45299e-06 0)
(0.0239512 -9.41297e-06 0)
(0.0239549 -9.38049e-06 0)
(0.0239589 -9.35101e-06 0)
(0.0239631 -9.31876e-06 0)
(0.0239675 -9.27636e-06 0)
(0.0239722 -9.21427e-06 0)
(0.023977 -9.11973e-06 0)
(0.0239821 -8.97665e-06 0)
(0.0239873 -8.76e-06 0)
(0.0239926 -8.44718e-06 0)
(0.0239979 -7.97233e-06 0)
(0.024003 -7.34493e-06 0)
(0.0240078 -6.32466e-06 0)
(0.024012 -5.16429e-06 0)
(0.0240156 -3.12134e-06 0)
(0.0240165 -6.92327e-07 0)
(0.0240184 1.61473e-06 0)
(0.0240107 9.67805e-06 0)
(-0.000178847 0.000645018 0)
(-0.00104303 0.00125408 0)
(-0.00216779 0.00153301 0)
(-0.00330502 0.00157446 0)
(-0.00439329 0.00156965 0)
(-0.00542197 0.0015264 0)
(-0.00637539 0.00148282 0)
(-0.00726461 0.00143051 0)
(-0.00808626 0.0013773 0)
(-0.00884845 0.00132154 0)
(-0.00955257 0.00126575 0)
(-0.0102037 0.00121011 0)
(-0.0108044 0.00115543 0)
(-0.0113579 0.0011019 0)
(-0.0118665 0.00104972 0)
(-0.0123326 0.000998911 0)
(-0.0127579 0.000949432 0)
(-0.0131441 0.000901185 0)
(-0.0134925 0.000854041 0)
(-0.0138041 0.000807846 0)
(-0.0140799 0.000762428 0)
(-0.0143205 0.000717603 0)
(-0.0145264 0.000673175 0)
(-0.0146978 0.000628935 0)
(-0.014835 0.000584669 0)
(-0.014938 0.000540151 0)
(-0.0150065 0.000495146 0)
(-0.0150403 0.000449413 0)
(-0.015039 0.000402704 0)
(-0.015002 0.000354768 0)
(-0.0149288 0.000305353 0)
(-0.0148185 0.000254208 0)
(-0.0146703 0.000201092 0)
(-0.0144834 0.000145772 0)
(-0.0142569 8.80333e-05 0)
(-0.0139897 2.76849e-05 0)
(-0.013681 -3.54374e-05 0)
(-0.0133297 -0.000101463 0)
(-0.012935 -0.000170481 0)
(-0.012496 -0.000242535 0)
(-0.0120119 -0.000317618 0)
(-0.0114821 -0.000395669 0)
(-0.010906 -0.000476569 0)
(-0.0102832 -0.000560138 0)
(-0.00961362 -0.000646137 0)
(-0.00889714 -0.000734264 0)
(-0.00813398 -0.00082416 0)
(-0.00732455 -0.000915406 0)
(-0.00646951 -0.00100753 0)
(-0.00556977 -0.00110002 0)
(-0.00462649 -0.00119231 0)
(-0.00364111 -0.00128381 0)
(-0.00261529 -0.00137389 0)
(-0.00155099 -0.00146191 0)
(-0.000450412 -0.00154721 0)
(0.000683992 -0.00162913 0)
(0.00184953 -0.00170703 0)
(0.0030433 -0.00178027 0)
(0.00426217 -0.00184825 0)
(0.00550282 -0.00191039 0)
(0.00676178 -0.00196616 0)
(0.00803541 -0.00201508 0)
(0.00931998 -0.00205673 0)
(0.0106116 -0.00209076 0)
(0.0119065 -0.00211688 0)
(0.0132006 -0.00213488 0)
(0.0144901 -0.00214464 0)
(0.015771 -0.0021461 0)
(0.0170396 -0.00213932 0)
(0.018292 -0.00212439 0)
(0.0195247 -0.00210153 0)
(0.0207342 -0.00207103 0)
(0.0219173 -0.00203322 0)
(0.0230709 -0.00198854 0)
(0.0241921 -0.00193747 0)
(0.0252785 -0.00188055 0)
(0.0263278 -0.00181838 0)
(0.0273378 -0.00175156 0)
(0.0283069 -0.00168075 0)
(0.0292336 -0.00160661 0)
(0.0301169 -0.00152983 0)
(0.0309558 -0.00145106 0)
(0.0317499 -0.00137096 0)
(0.0324988 -0.00129018 0)
(0.0332026 -0.00120931 0)
(0.0338616 -0.00112894 0)
(0.0344762 -0.00104959 0)
(0.0350472 -0.000971753 0)
(0.0355754 -0.000895863 0)
(0.036062 -0.000822307 0)
(0.0365084 -0.000751419 0)
(0.0369157 -0.00068348 0)
(0.0372857 -0.000618718 0)
(0.0376199 -0.000557311 0)
(0.0379201 -0.000499389 0)
(0.038188 -0.000445036 0)
(0.0384254 -0.000394294 0)
(0.0386341 -0.000347167 0)
(0.038816 -0.000303622 0)
(0.0389729 -0.000263599 0)
(0.0391066 -0.000227008 0)
(0.0392189 -0.000193737 0)
(0.0393116 -0.000163658 0)
(0.0393862 -0.000136624 0)
(0.0394445 -0.000112479 0)
(0.039488 -9.10577e-05 0)
(0.0395182 -7.21883e-05 0)
(0.0395364 -5.56972e-05 0)
(0.0395441 -4.14099e-05 0)
(0.0395424 -2.91533e-05 0)
(0.0395325 -1.87571e-05 0)
(0.0395156 -1.00559e-05 0)
(0.0394926 -2.88986e-06 0)
(0.0394645 2.89425e-06 0)
(0.039432 7.44218e-06 0)
(0.0393961 1.08918e-05 0)
(0.0393573 1.33726e-05 0)
(0.0393163 1.50056e-05 0)
(0.0392737 1.59036e-05 0)
(0.0392299 1.61703e-05 0)
(0.0391855 1.59015e-05 0)
(0.0391408 1.51847e-05 0)
(0.0390961 1.40994e-05 0)
(0.0390518 1.27176e-05 0)
(0.039008 1.11041e-05 0)
(0.038965 9.31689e-06 0)
(0.0389229 7.40736e-06 0)
(0.038882 5.421e-06 0)
(0.0388422 3.39762e-06 0)
(0.0388037 1.3718e-06 0)
(0.0387665 -6.26713e-07 0)
(0.0387306 -2.57263e-06 0)
(0.0386961 -4.44473e-06 0)
(0.038663 -6.22552e-06 0)
(0.0386312 -7.90088e-06 0)
(0.0386007 -9.45977e-06 0)
(0.0385715 -1.08939e-05 0)
(0.0385434 -1.21974e-05 0)
(0.0385166 -1.33666e-05 0)
(0.0384909 -1.43999e-05 0)
(0.0384661 -1.52974e-05 0)
(0.0384424 -1.60605e-05 0)
(0.0384196 -1.66922e-05 0)
(0.0383976 -1.71963e-05 0)
(0.0383764 -1.75779e-05 0)
(0.0383558 -1.78428e-05 0)
(0.0383359 -1.79973e-05 0)
(0.0383166 -1.80484e-05 0)
(0.0382978 -1.80036e-05 0)
(0.0382794 -1.78705e-05 0)
(0.0382614 -1.76571e-05 0)
(0.0382438 -1.73716e-05 0)
(0.0382264 -1.70222e-05 0)
(0.0382093 -1.6617e-05 0)
(0.0381925 -1.61643e-05 0)
(0.0381758 -1.56721e-05 0)
(0.0381592 -1.51483e-05 0)
(0.0381428 -1.46007e-05 0)
(0.0381264 -1.40367e-05 0)
(0.0381102 -1.34637e-05 0)
(0.038094 -1.28886e-05 0)
(0.0380779 -1.23181e-05 0)
(0.0380618 -1.17586e-05 0)
(0.0380459 -1.12159e-05 0)
(0.0380299 -1.06958e-05 0)
(0.0380141 -1.02034e-05 0)
(0.0379983 -9.74367e-06 0)
(0.0379826 -9.32097e-06 0)
(0.0379671 -8.9393e-06 0)
(0.0379517 -8.60224e-06 0)
(0.0379364 -8.31289e-06 0)
(0.0379214 -8.07388e-06 0)
(0.0379065 -7.88736e-06 0)
(0.0378919 -7.75496e-06 0)
(0.0378776 -7.6778e-06 0)
(0.0378636 -7.65643e-06 0)
(0.03785 -7.69079e-06 0)
(0.0378367 -7.78021e-06 0)
(0.0378238 -7.92331e-06 0)
(0.0378114 -8.11796e-06 0)
(0.0377994 -8.36117e-06 0)
(0.037788 -8.64896e-06 0)
(0.0377771 -8.97621e-06 0)
(0.0377668 -9.33641e-06 0)
(0.0377571 -9.72132e-06 0)
(0.037748 -1.01206e-05 0)
(0.0377396 -1.05209e-05 0)
(0.0377318 -1.09055e-05 0)
(0.0377247 -1.12524e-05 0)
(0.0377182 -1.15327e-05 0)
(0.0377123 -1.17082e-05 0)
(0.0377071 -1.17282e-05 0)
(0.0377024 -1.15155e-05 0)
(0.0376982 -1.10031e-05 0)
(0.0376942 -9.96154e-06 0)
(0.0376905 -8.47402e-06 0)
(0.0376865 -5.73729e-06 0)
(0.0376818 -2.14473e-06 0)
(0.0376774 1.92066e-06 0)
(0.0376655 1.52915e-05 0)
(-0.000305548 0.00126153 0)
(-0.00151626 0.00231496 0)
(-0.00287 0.00272303 0)
(-0.00413692 0.00273294 0)
(-0.00523568 0.00266074 0)
(-0.00621543 0.0025313 0)
(-0.00706232 0.00240215 0)
(-0.00780998 0.00226686 0)
(-0.00845991 0.00213638 0)
(-0.00902887 0.00200926 0)
(-0.00952211 0.00188776 0)
(-0.0099486 0.00177149 0)
(-0.0103132 0.00166053 0)
(-0.0106212 0.00155443 0)
(-0.0108763 0.00145279 0)
(-0.0110818 0.0013551 0)
(-0.0112402 0.00126089 0)
(-0.0113537 0.00116968 0)
(-0.011424 0.001081 0)
(-0.0114525 0.000994416 0)
(-0.0114402 0.000909492 0)
(-0.0113879 0.000825818 0)
(-0.0112962 0.000742996 0)
(-0.0111655 0.000660634 0)
(-0.010996 0.000578351 0)
(-0.0107877 0.000495771 0)
(-0.0105407 0.000412527 0)
(-0.0102546 0.000328255 0)
(-0.00992914 0.000242602 0)
(-0.00956402 0.000155227 0)
(-0.00915876 6.58014e-05 0)
(-0.00871286 -2.59854e-05 0)
(-0.0082258 -0.00012042 0)
(-0.00769704 -0.00021776 0)
(-0.00712606 -0.00031823 0)
(-0.00651234 -0.000422011 0)
(-0.00585542 -0.000529241 0)
(-0.00515491 -0.00064 0)
(-0.0044105 -0.000754312 0)
(-0.00362196 -0.000872134 0)
(-0.00278921 -0.000993358 0)
(-0.00191228 -0.0011178 0)
(-0.000991382 -0.0012452 0)
(-2.68653e-05 -0.00137522 0)
(0.000980721 -0.00150745 0)
(0.00203064 -0.00164141 0)
(0.00312195 -0.00177654 0)
(0.00425349 -0.0019122 0)
(0.0054239 -0.00204772 0)
(0.00663157 -0.00218235 0)
(0.00787468 -0.00231529 0)
(0.0091512 -0.00244572 0)
(0.0104588 -0.00257277 0)
(0.0117951 -0.00269557 0)
(0.0131574 -0.00281322 0)
(0.0145426 -0.00292485 0)
(0.0159479 -0.0030296 0)
(0.0173698 -0.00312661 0)
(0.018805 -0.0032151 0)
(0.0202499 -0.00329432 0)
(0.0217009 -0.00336357 0)
(0.0231541 -0.00342226 0)
(0.0246058 -0.00346986 0)
(0.026052 -0.00350592 0)
(0.027489 -0.00353012 0)
(0.0289127 -0.00354223 0)
(0.0303196 -0.00354214 0)
(0.0317057 -0.00352983 0)
(0.0330675 -0.00350544 0)
(0.0344017 -0.00346918 0)
(0.0357048 -0.00342141 0)
(0.0369738 -0.00336259 0)
(0.0382059 -0.00329326 0)
(0.0393985 -0.00321408 0)
(0.0405492 -0.00312579 0)
(0.0416561 -0.00302921 0)
(0.0427174 -0.0029252 0)
(0.0437316 -0.00281468 0)
(0.0446976 -0.00269862 0)
(0.0456147 -0.00257798 0)
(0.0464822 -0.00245375 0)
(0.0473 -0.00232691 0)
(0.048068 -0.00219839 0)
(0.0487867 -0.00206914 0)
(0.0494566 -0.00194001 0)
(0.0500784 -0.00181184 0)
(0.0506531 -0.00168539 0)
(0.0511821 -0.00156136 0)
(0.0516664 -0.00144038 0)
(0.0521078 -0.001323 0)
(0.0525077 -0.00120971 0)
(0.0528679 -0.00110091 0)
(0.0531901 -0.00099694 0)
(0.0534762 -0.000898054 0)
(0.0537281 -0.000804449 0)
(0.0539476 -0.000716257 0)
(0.0541366 -0.000633548 0)
(0.0542971 -0.00055634 0)
(0.054431 -0.0004846 0)
(0.05454 -0.000418254 0)
(0.054626 -0.000357187 0)
(0.0546908 -0.000301253 0)
(0.054736 -0.000250276 0)
(0.0547634 -0.000204059 0)
(0.0547745 -0.000162385 0)
(0.0547708 -0.000125025 0)
(0.0547537 -9.17387e-05 0)
(0.0547247 -6.22783e-05 0)
(0.054685 -3.63944e-05 0)
(0.0546359 -1.38363e-05 0)
(0.0545784 5.6443e-06 0)
(0.0545137 2.22917e-05 0)
(0.0544428 3.6344e-05 0)
(0.0543666 4.80318e-05 0)
(0.0542858 5.7577e-05 0)
(0.0542014 6.51916e-05 0)
(0.054114 7.1077e-05 0)
(0.0540243 7.54238e-05 0)
(0.0539328 7.84109e-05 0)
(0.0538401 8.02058e-05 0)
(0.0537467 8.09645e-05 0)
(0.0536529 8.08312e-05 0)
(0.0535592 7.99391e-05 0)
(0.0534659 7.841e-05 0)
(0.0533733 7.63554e-05 0)
(0.0532815 7.38762e-05 0)
(0.0531909 7.10636e-05 0)
(0.0531015 6.79995e-05 0)
(0.0530136 6.47568e-05 0)
(0.0529272 6.14004e-05 0)
(0.0528424 5.7987e-05 0)
(0.0527593 5.45663e-05 0)
(0.052678 5.11812e-05 0)
(0.0525984 4.78683e-05 0)
(0.0525205 4.46585e-05 0)
(0.0524444 4.15774e-05 0)
(0.0523701 3.86458e-05 0)
(0.0522975 3.58801e-05 0)
(0.0522265 3.32929e-05 0)
(0.0521572 3.08929e-05 0)
(0.0520894 2.86859e-05 0)
(0.0520231 2.66747e-05 0)
(0.0519584 2.48596e-05 0)
(0.051895 2.32387e-05 0)
(0.0518329 2.18082e-05 0)
(0.0517721 2.05624e-05 0)
(0.0517125 1.94943e-05 0)
(0.0516541 1.85956e-05 0)
(0.0515967 1.78572e-05 0)
(0.0515403 1.72687e-05 0)
(0.0514849 1.68194e-05 0)
(0.0514304 1.64979e-05 0)
(0.0513768 1.62924e-05 0)
(0.0513239 1.61907e-05 0)
(0.0512719 1.61807e-05 0)
(0.0512205 1.62501e-05 0)
(0.0511698 1.63866e-05 0)
(0.0511197 1.65779e-05 0)
(0.0510702 1.68122e-05 0)
(0.0510213 1.70775e-05 0)
(0.050973 1.73625e-05 0)
(0.0509252 1.7656e-05 0)
(0.050878 1.79473e-05 0)
(0.0508313 1.82262e-05 0)
(0.0507851 1.84827e-05 0)
(0.0507394 1.87077e-05 0)
(0.0506942 1.88924e-05 0)
(0.0506496 1.90287e-05 0)
(0.0506054 1.91091e-05 0)
(0.0505619 1.91266e-05 0)
(0.0505189 1.90751e-05 0)
(0.0504765 1.8949e-05 0)
(0.0504347 1.87436e-05 0)
(0.0503935 1.8455e-05 0)
(0.050353 1.80799e-05 0)
(0.0503131 1.76161e-05 0)
(0.050274 1.70621e-05 0)
(0.0502356 1.64176e-05 0)
(0.050198 1.56832e-05 0)
(0.0501613 1.48606e-05 0)
(0.0501254 1.3953e-05 0)
(0.0500903 1.29647e-05 0)
(0.0500562 1.1902e-05 0)
(0.050023 1.07728e-05 0)
(0.0499908 9.58745e-06 0)
(0.0499597 8.35908e-06 0)
(0.0499295 7.10441e-06 0)
(0.0499004 5.84467e-06 0)
(0.0498724 4.60731e-06 0)
(0.0498455 3.42772e-06 0)
(0.0498197 2.35302e-06 0)
(0.0497949 1.44516e-06 0)
(0.0497713 7.90492e-07 0)
(0.0497487 4.9926e-07 0)
(0.0497271 7.60648e-07 0)
(0.0497064 1.7002e-06 0)
(0.0496865 3.93764e-06 0)
(0.0496672 7.38433e-06 0)
(0.0496488 1.22803e-05 0)
(0.0496255 2.79103e-05 0)
(-0.000404986 0.00246877 0)
(-0.00171885 0.00379524 0)
(-0.00298685 0.00413997 0)
(-0.00404973 0.00388857 0)
(-0.00482668 0.00361529 0)
(-0.00542861 0.00331258 0)
(-0.00585244 0.0030484 0)
(-0.00615776 0.00280166 0)
(-0.00635382 0.00257741 0)
(-0.00646678 0.0023694 0)
(-0.00650514 0.00217644 0)
(-0.00648089 0.00199606 0)
(-0.00639988 0.00182662 0)
(-0.0062682 0.00166654 0)
(-0.0060896 0.00151446 0)
(-0.00586747 0.00136919 0)
(-0.00560417 0.00122968 0)
(-0.00530167 0.00109499 0)
(-0.00496142 0.00096427 0)
(-0.00458455 0.000836764 0)
(-0.00417187 0.000711775 0)
(-0.00372397 0.000588663 0)
(-0.00324124 0.000466833 0)
(-0.00272388 0.000345728 0)
(-0.00217198 0.00022482 0)
(-0.00158548 0.000103612 0)
(-0.000964256 -1.83693e-05 0)
(-0.000308081 -0.00014157 0)
(0.000383314 -0.000266412 0)
(0.00111024 -0.000393288 0)
(0.00187304 -0.000522562 0)
(0.00267204 -0.000654563 0)
(0.00350758 -0.00078958 0)
(0.00437996 -0.000927857 0)
(0.00528942 -0.00106959 0)
(0.00623616 -0.00121492 0)
(0.00722029 -0.00136391 0)
(0.00824184 -0.00151658 0)
(0.00930072 -0.00167286 0)
(0.0103967 -0.00183261 0)
(0.0115295 -0.00199559 0)
(0.0126985 -0.0021615 0)
(0.0139032 -0.00232993 0)
(0.0151427 -0.0025004 0)
(0.016416 -0.00267233 0)
(0.017722 -0.00284506 0)
(0.0190591 -0.00301785 0)
(0.020426 -0.00318989 0)
(0.0218207 -0.0033603 0)
(0.0232414 -0.00352813 0)
(0.0246858 -0.00369238 0)
(0.0261515 -0.00385203 0)
(0.027636 -0.004006 0)
(0.0291366 -0.00415321 0)
(0.0306502 -0.00429259 0)
(0.0321738 -0.00442305 0)
(0.0337041 -0.00454354 0)
(0.0352377 -0.00465307 0)
(0.036771 -0.00475066 0)
(0.0383005 -0.00483543 0)
(0.0398225 -0.00490658 0)
(0.0413332 -0.0049634 0)
(0.0428288 -0.00500529 0)
(0.0443056 -0.00503177 0)
(0.04576 -0.00504249 0)
(0.0471881 -0.00503724 0)
(0.0485866 -0.00501595 0)
(0.0499521 -0.00497871 0)
(0.0512812 -0.00492574 0)
(0.0525711 -0.00485743 0)
(0.0538188 -0.00477432 0)
(0.055022 -0.00467705 0)
(0.0561783 -0.00456644 0)
(0.0572858 -0.00444341 0)
(0.0583428 -0.00430897 0)
(0.0593481 -0.00416424 0)
(0.0603006 -0.00401042 0)
(0.0611997 -0.00384874 0)
(0.0620449 -0.00368049 0)
(0.0628364 -0.00350698 0)
(0.0635742 -0.00332949 0)
(0.064259 -0.00314931 0)
(0.0648916 -0.0029677 0)
(0.0654729 -0.00278584 0)
(0.0660042 -0.00260487 0)
(0.066487 -0.00242586 0)
(0.0669229 -0.00224977 0)
(0.0673135 -0.0020775 0)
(0.0676608 -0.00190983 0)
(0.0679667 -0.00174746 0)
(0.0682331 -0.00159098 0)
(0.0684621 -0.00144089 0)
(0.0686558 -0.00129759 0)
(0.0688163 -0.00116138 0)
(0.0689456 -0.00103249 0)
(0.0690457 -0.000911064 0)
(0.0691188 -0.000797159 0)
(0.0691666 -0.000690775 0)
(0.0691912 -0.00059185 0)
(0.0691943 -0.000500264 0)
(0.0691778 -0.000415853 0)
(0.0691433 -0.00033841 0)
(0.0690925 -0.000267696 0)
(0.069027 -0.000203444 0)
(0.0689481 -0.000145362 0)
(0.0688573 -9.31453e-05 0)
(0.0687559 -4.64745e-05 0)
(0.0686452 -5.02365e-06 0)
(0.0685262 3.1537e-05 0)
(0.0684 6.35375e-05 0)
(0.0682677 9.1305e-05 0)
(0.0681302 0.000115161 0)
(0.0679883 0.00013542 0)
(0.0678429 0.000152386 0)
(0.0676946 0.000166352 0)
(0.0675441 0.000177601 0)
(0.067392 0.0001864 0)
(0.0672389 0.000193003 0)
(0.0670853 0.00019765 0)
(0.0669316 0.000200567 0)
(0.0667782 0.000201964 0)
(0.0666254 0.000202038 0)
(0.0664736 0.000200971 0)
(0.066323 0.00019893 0)
(0.0661739 0.000196069 0)
(0.0660264 0.000192528 0)
(0.0658808 0.000188437 0)
(0.0657371 0.00018391 0)
(0.0655956 0.000179052 0)
(0.0654562 0.000173956 0)
(0.0653191 0.000168705 0)
(0.0651843 0.000163371 0)
(0.0650518 0.00015802 0)
(0.0649217 0.000152707 0)
(0.0647939 0.000147479 0)
(0.0646685 0.000142377 0)
(0.0645454 0.000137435 0)
(0.0644245 0.00013268 0)
(0.064306 0.000128136 0)
(0.0641896 0.000123818 0)
(0.0640754 0.00011974 0)
(0.0639634 0.000115909 0)
(0.0638533 0.000112331 0)
(0.0637453 0.000109007 0)
(0.0636392 0.000105936 0)
(0.0635349 0.000103112 0)
(0.0634325 0.000100531 0)
(0.0633318 9.81836e-05 0)
(0.0632328 9.60597e-05 0)
(0.0631353 9.4148e-05 0)
(0.0630395 9.24361e-05 0)
(0.0629451 9.09102e-05 0)
(0.0628522 8.9556e-05 0)
(0.0627606 8.83585e-05 0)
(0.0626704 8.73024e-05 0)
(0.0625815 8.63718e-05 0)
(0.0624939 8.55508e-05 0)
(0.0624074 8.48236e-05 0)
(0.0623221 8.41741e-05 0)
(0.062238 8.35867e-05 0)
(0.0621549 8.30458e-05 0)
(0.062073 8.25362e-05 0)
(0.0619921 8.20432e-05 0)
(0.0619122 8.15523e-05 0)
(0.0618334 8.10499e-05 0)
(0.0617555 8.05226e-05 0)
(0.0616787 7.99578e-05 0)
(0.0616029 7.93437e-05 0)
(0.0615281 7.86692e-05 0)
(0.0614543 7.79237e-05 0)
(0.0613814 7.70978e-05 0)
(0.0613097 7.61828e-05 0)
(0.0612389 7.51709e-05 0)
(0.0611691 7.40554e-05 0)
(0.0611005 7.28306e-05 0)
(0.0610328 7.14919e-05 0)
(0.0609663 7.00358e-05 0)
(0.0609009 6.84601e-05 0)
(0.0608366 6.6764e-05 0)
(0.0607735 6.4948e-05 0)
(0.0607116 6.30144e-05 0)
(0.0606509 6.0967e-05 0)
(0.0605914 5.88119e-05 0)
(0.0605332 5.65572e-05 0)
(0.0604763 5.42137e-05 0)
(0.0604207 5.17955e-05 0)
(0.0603665 4.93205e-05 0)
(0.0603136 4.68114e-05 0)
(0.0602621 4.42973e-05 0)
(0.060212 4.18152e-05 0)
(0.0601634 3.94137e-05 0)
(0.0601162 3.71559e-05 0)
(0.0600705 3.5129e-05 0)
(0.0600263 3.34456e-05 0)
(0.0599837 3.22772e-05 0)
(0.0599426 3.18265e-05 0)
(0.0599031 3.25512e-05 0)
(0.0598654 3.45659e-05 0)
(0.0598294 3.90386e-05 0)
(0.0597926 5.24609e-05 0)
(-0.000693492 0.00309362 0)
(-0.00209166 0.00472163 0)
(-0.00255515 0.00495058 0)
(-0.00279409 0.00450351 0)
(-0.00263044 0.00403107 0)
(-0.00238331 0.00356435 0)
(-0.00199091 0.00316035 0)
(-0.00153765 0.00280233 0)
(-0.00101476 0.00248587 0)
(-0.000447786 0.00220235 0)
(0.000161362 0.00194522 0)
(0.000803399 0.00170968 0)
(0.00147576 0.00149146 0)
(0.00217458 0.00128754 0)
(0.00289817 0.00109525 0)
(0.00364483 0.000912565 0)
(0.00441368 0.000737733 0)
(0.00520403 0.000569317 0)
(0.00601554 0.000406065 0)
(0.00684803 0.000246906 0)
(0.00770154 9.08872e-05 0)
(0.0085762 -6.28348e-05 0)
(0.00947225 -0.000215023 0)
(0.01039 -0.000366372 0)
(0.0113299 -0.000517516 0)
(0.0122923 -0.00066904 0)
(0.0132778 -0.000821483 0)
(0.0142867 -0.000975339 0)
(0.0153195 -0.00113106 0)
(0.0163767 -0.00128906 0)
(0.0174588 -0.0014497 0)
(0.0185661 -0.00161329 0)
(0.019699 -0.0017801 0)
(0.0208576 -0.00195033 0)
(0.0220423 -0.00212412 0)
(0.0232531 -0.00230155 0)
(0.02449 -0.00248262 0)
(0.0257528 -0.00266725 0)
(0.0270414 -0.00285528 0)
(0.0283553 -0.00304645 0)
(0.029694 -0.00324042 0)
(0.0310567 -0.00343675 0)
(0.0324426 -0.00363491 0)
(0.0338507 -0.00383426 0)
(0.0352797 -0.00403408 0)
(0.0367283 -0.00423356 0)
(0.0381947 -0.00443178 0)
(0.0396773 -0.00462777 0)
(0.0411741 -0.00482046 0)
(0.0426828 -0.00500874 0)
(0.0442012 -0.00519141 0)
(0.0457267 -0.00536728 0)
(0.0472565 -0.00553507 0)
(0.0487878 -0.00569354 0)
(0.0503176 -0.00584142 0)
(0.0518426 -0.00597746 0)
(0.0533596 -0.00610047 0)
(0.0548651 -0.00620927 0)
(0.0563558 -0.00630278 0)
(0.057828 -0.00638001 0)
(0.0592782 -0.00644006 0)
(0.0607028 -0.00648214 0)
(0.0620984 -0.00650564 0)
(0.0634614 -0.00651006 0)
(0.0647887 -0.00649508 0)
(0.0660769 -0.00646055 0)
(0.0673231 -0.0064065 0)
(0.0685246 -0.00633315 0)
(0.0696786 -0.0062409 0)
(0.0707831 -0.00613034 0)
(0.071836 -0.00600223 0)
(0.0728357 -0.00585749 0)
(0.0737808 -0.00569723 0)
(0.0746705 -0.00552266 0)
(0.075504 -0.00533514 0)
(0.0762812 -0.00513613 0)
(0.0770021 -0.00492714 0)
(0.077667 -0.00470976 0)
(0.0782768 -0.00448562 0)
(0.0788323 -0.00425634 0)
(0.0793348 -0.00402352 0)
(0.0797858 -0.00378873 0)
(0.080187 -0.0035535 0)
(0.0805402 -0.00331924 0)
(0.0808474 -0.00308733 0)
(0.0811107 -0.002859 0)
(0.0813322 -0.00263538 0)
(0.0815142 -0.00241749 0)
(0.0816589 -0.00220623 0)
(0.0817685 -0.00200236 0)