/*--------------------------------*- C++ -*----------------------------------*\
| =========                 |                                                 |
| \\      /  F ield         | OpenFOAM: The Open Source CFD Toolbox           |
|  \\    /   O peration     | Version:  4.1                                   |
|   \\  /    A nd           | Web:      www.OpenFOAM.org                      |
|    \\/     M anipulation  |                                                 |
\*---------------------------------------------------------------------------*/
FoamFile
{
    version     2.0;
    format      ascii;
    class       volVectorField;
    location    "18";
    object      U;
}
// * * * * * * * * * * * * * * * * * * * * * * * * * * * * * * * * * * * * * //

dimensions      [0 1 -1 0 0 0 0];

internalField   nonuniform List<vector> 
3264
(
(-0.00147912 0.00136306 0)
(-0.00477347 0.00137036 0)
(-0.00742279 0.00118657 0)
(-0.00921857 0.000849456 0)
(-0.00986836 0.000408363 0)
(-0.00930256 -0.000130437 0)
(-0.00743883 -0.000673615 0)
(-0.00447813 -0.0011458 0)
(-0.000692644 -0.00146046 0)
(0.00348859 -0.00157797 0)
(0.00765635 -0.00151173 0)
(0.0114775 -0.0013194 0)
(0.0147592 -0.00106977 0)
(0.0174355 -0.000817757 0)
(0.0195315 -0.000595858 0)
(0.0211224 -0.000417011 0)
(0.0223015 -0.000281527 0)
(0.02316 -0.000183467 0)
(0.0237768 -0.000114932 0)
(0.0242158 -6.83797e-05 0)
(0.0245257 -3.75518e-05 0)
(0.0247433 -1.76549e-05 0)
(0.0248952 -5.19232e-06 0)
(0.0250005 2.30543e-06 0)
(0.0250729 6.54394e-06 0)
(0.0251223 8.6824e-06 0)
(0.0251553 9.49855e-06 0)
(0.0251771 9.50828e-06 0)
(0.0251909 9.04971e-06 0)
(0.0251993 8.34141e-06 0)
(0.025204 7.52215e-06 0)
(0.0252061 6.67776e-06 0)
(0.0252065 5.85936e-06 0)
(0.0252059 5.09548e-06 0)
(0.0252047 4.40015e-06 0)
(0.025203 3.77835e-06 0)
(0.0252013 3.22948e-06 0)
(0.0251994 2.74977e-06 0)
(0.0251977 2.33373e-06 0)
(0.025196 1.97514e-06 0)
(0.0251944 1.6676e-06 0)
(0.025193 1.40496e-06 0)
(0.0251917 1.18143e-06 0)
(0.0251906 9.91778e-07 0)
(0.0251896 8.31281e-07 0)
(0.0251888 6.95769e-07 0)
(0.025188 5.81587e-07 0)
(0.0251874 4.85553e-07 0)
(0.0251868 4.04918e-07 0)
(0.0251863 3.37315e-07 0)
(0.0251859 2.80717e-07 0)
(0.0251855 2.33393e-07 0)
(0.0251852 1.93873e-07 0)
(0.025185 1.60905e-07 0)
(0.0251848 1.33434e-07 0)
(0.0251846 1.10566e-07 0)
(0.0251844 9.15473e-08 0)
(0.0251843 7.57447e-08 0)
(0.0251842 6.26258e-08 0)
(0.0251841 5.17436e-08 0)
(0.025184 4.27241e-08 0)
(0.025184 3.52542e-08 0)
(0.0251839 2.90722e-08 0)
(0.0251839 2.39596e-08 0)
(0.0251838 1.97344e-08 0)
(0.0251838 1.62448e-08 0)
(0.0251838 1.33647e-08 0)
(0.0251837 1.09891e-08 0)
(0.0251837 9.03082e-09 0)
(0.0251837 7.41754e-09 0)
(0.0251837 6.08925e-09 0)
(0.0251837 4.99621e-09 0)
(0.0251837 4.09726e-09 0)
(0.0251837 3.35833e-09 0)
(0.0251837 2.75128e-09 0)
(0.0251837 2.25285e-09 0)
(0.0251837 1.84381e-09 0)
(0.0251837 1.50829e-09 0)
(0.0251837 1.2332e-09 0)
(0.0251837 1.00778e-09 0)
(0.0251837 8.23171e-10 0)
(0.0251837 6.7207e-10 0)
(0.0251837 5.48453e-10 0)
(0.0251837 4.4735e-10 0)
(0.0251836 3.64685e-10 0)
(0.0251836 2.97133e-10 0)
(0.0251836 2.41974e-10 0)
(0.0251836 1.96971e-10 0)
(0.0251836 1.6027e-10 0)
(0.0251836 1.3034e-10 0)
(0.0251836 1.05933e-10 0)
(0.0251836 8.60389e-11 0)
(0.0251836 6.98434e-11 0)
(0.0251836 5.66749e-11 0)
(0.0251836 4.59693e-11 0)
(0.0251836 3.72629e-11 0)
(0.0251836 3.01772e-11 0)
(0.0251836 2.44183e-11 0)
(0.0251836 1.97523e-11 0)
(0.0251836 1.59809e-11 0)
(0.0251836 1.29309e-11 0)
(0.0251836 1.04567e-11 0)
(0.0251836 8.44178e-12 0)
(0.0251836 6.80034e-12 0)
(0.0251836 5.47422e-12 0)
(0.0251836 4.41022e-12 0)
(0.0251836 3.56167e-12 0)
(0.0251836 2.87824e-12 0)
(0.0251836 2.31667e-12 0)
(0.0251836 1.8532e-12 0)
(0.0251836 1.47155e-12 0)
(0.0251836 1.16826e-12 0)
(0.0251836 9.35202e-13 0)
(0.0251836 7.55027e-13 0)
(0.0251836 6.12204e-13 0)
(0.0251836 4.90322e-13 0)
(0.0251836 3.85286e-13 0)
(0.0251836 2.98493e-13 0)
(0.0251836 2.2776e-13 0)
(0.0251836 1.73868e-13 0)
(0.0251836 1.3478e-13 0)
(0.0251836 1.06309e-13 0)
(0.0251836 8.40328e-14 0)
(0.0251836 6.84234e-14 0)
(0.0251836 5.95358e-14 0)
(0.0251836 5.34647e-14 0)
(0.0251836 5.05114e-14 0)
(0.0251836 4.45701e-14 0)
(0.0251836 3.34205e-14 0)
(0.0251836 2.0302e-14 0)
(0.0251836 5.49435e-15 0)
(0.0251836 -3.60516e-15 0)
(0.0251836 -5.35791e-15 0)
(0.0251836 -1.25048e-15 0)
(0.0251836 5.1105e-15 0)
(0.0251836 8.5918e-15 0)
(0.0251836 9.70461e-15 0)
(0.0251836 6.2771e-15 0)
(0.0251836 6.70015e-16 0)
(0.0251836 -4.33863e-15 0)
(0.0251836 -8.93052e-15 0)
(0.0251836 -8.84433e-15 0)
(0.0251836 -5.61633e-15 0)
(0.0251836 -2.81016e-16 0)
(0.0251836 6.60467e-15 0)
(0.0251836 1.20536e-14 0)
(0.0251836 1.58838e-14 0)
(0.0251836 1.56523e-14 0)
(0.0251836 1.02427e-14 0)
(0.0251836 9.0386e-16 0)
(0.0251836 -1.0691e-14 0)
(0.0251836 -1.9218e-14 0)
(0.0251836 -2.19141e-14 0)
(0.0251836 -1.82746e-14 0)
(0.0251836 -9.43055e-15 0)
(0.0251836 4.34706e-16 0)
(0.0251836 8.3152e-15 0)
(0.0251836 1.11776e-14 0)
(0.0251836 7.61054e-15 0)
(0.0251836 2.83921e-16 0)
(0.0251836 -8.24933e-15 0)
(0.0251836 -1.31181e-14 0)
(0.0251836 -1.13679e-14 0)
(0.0251836 -2.3914e-15 0)
(0.0251836 1.07997e-14 0)
(0.0251836 2.27167e-14 0)
(0.0251836 3.11923e-14 0)
(0.0251836 3.39904e-14 0)
(0.0251836 2.98552e-14 0)
(0.0251836 2.14092e-14 0)
(0.0251836 9.97196e-15 0)
(0.0251836 2.69427e-15 0)
(0.0251836 9.58072e-16 0)
(0.0251836 5.30257e-15 0)
(0.0251836 1.42211e-14 0)
(0.0251836 2.55632e-14 0)
(0.0251836 3.63786e-14 0)
(0.0251836 4.64683e-14 0)
(0.0251836 5.462e-14 0)
(0.0251836 6.43324e-14 0)
(0.0251836 7.68979e-14 0)
(0.0251836 9.62265e-14 0)
(0.0251836 1.25272e-13 0)
(0.0251836 1.63699e-13 0)
(0.0251836 2.11716e-13 0)
(0.0251836 2.69186e-13 0)
(0.0251836 3.377e-13 0)
(0.0251836 4.21006e-13 0)
(0.0251836 5.24495e-13 0)
(0.0251836 6.61319e-13 0)
(0.0251836 8.44977e-13 0)
(0.0251836 1.10518e-12 0)
(0.0251836 1.42391e-12 0)
(0.0251836 1.88275e-12 0)
(0.0251836 2.4444e-12 0)
(0.0251836 2.46997e-12 0)
(0.0251836 2.77012e-12 0)
(0.0251836 4.6955e-12 0)
(0.0251836 -2.24711e-11 0)
(0.0251836 -1.80546e-11 0)
(-0.00171382 0.00448529 0)
(-0.00576603 0.00445849 0)
(-0.00848784 0.00322253 0)
(-0.00992718 0.00160092 0)
(-0.00970768 -0.000327804 0)
(-0.00790645 -0.00249611 0)
(-0.00444785 -0.00462386 0)
(0.000365419 -0.00643607 0)
(0.00619231 -0.00764162 0)
(0.01248 -0.00807949 0)
(0.0186904 -0.00778367 0)
(0.0243859 -0.00695785 0)
(0.0293193 -0.00586295 0)
(0.0334136 -0.00471952 0)
(0.0367083 -0.00366895 0)
(0.0393024 -0.00277865 0)
(0.0413147 -0.0020644 0)
(0.0428604 -0.00151286 0)
(0.0440407 -0.00109821 0)
(0.0449394 -0.000792171 0)
(0.0456228 -0.000569059 0)
(0.0461426 -0.000407664 0)
(0.0465383 -0.000291441 0)
(0.04684 -0.000207941 0)
(0.0470703 -0.000148002 0)
(0.0472463 -0.000104981 0)
(0.0473811 -7.41008e-05 0)
(0.0474843 -5.19369e-05 0)
(0.0475634 -3.60404e-05 0)
(0.0476241 -2.46577e-05 0)
(0.0476706 -1.65311e-05 0)
(0.0477062 -1.0756e-05 0)
(0.0477335 -6.68009e-06 0)
(0.0477543 -3.83141e-06 0)
(0.0477702 -1.8678e-06 0)
(0.0477824 -5.40617e-07 0)
(0.0477916 3.31053e-07 0)
(0.0477985 8.78921e-07 0)
(0.0478038 1.19883e-06 0)
(0.0478077 1.36039e-06 0)
(0.0478106 1.41403e-06 0)
(0.0478128 1.39608e-06 0)
(0.0478144 1.33256e-06 0)
(0.0478156 1.24191e-06 0)
(0.0478164 1.13703e-06 0)
(0.047817 1.0268e-06 0)
(0.0478174 9.17154e-07 0)
(0.0478177 8.11933e-07 0)
(0.0478178 7.13461e-07 0)
(0.0478179 6.23004e-07 0)
(0.047818 5.41091e-07 0)
(0.047818 4.67754e-07 0)
(0.047818 4.02702e-07 0)
(0.047818 3.45442e-07 0)
(0.0478179 2.95365e-07 0)
(0.0478179 2.51815e-07 0)
(0.0478179 2.14122e-07 0)
(0.0478178 1.81636e-07 0)
(0.0478178 1.53742e-07 0)
(0.0478178 1.29872e-07 0)
(0.0478177 1.09504e-07 0)
(0.0478177 9.21725e-08 0)
(0.0478177 7.74605e-08 0)
(0.0478177 6.49999e-08 0)
(0.0478176 5.44679e-08 0)
(0.0478176 4.55827e-08 0)
(0.0478176 3.81e-08 0)
(0.0478176 3.18087e-08 0)
(0.0478176 2.65271e-08 0)
(0.0478176 2.20994e-08 0)
(0.0478176 1.83925e-08 0)
(0.0478176 1.52929e-08 0)
(0.0478175 1.27042e-08 0)
(0.0478175 1.05445e-08 0)
(0.0478175 8.74477e-09 0)
(0.0478175 7.24645e-09 0)
(0.0478175 6.00027e-09 0)
(0.0478175 4.9647e-09 0)
(0.0478175 4.10489e-09 0)
(0.0478175 3.39161e-09 0)
(0.0478175 2.8004e-09 0)
(0.0478175 2.31078e-09 0)
(0.0478175 1.90561e-09 0)
(0.0478175 1.5705e-09 0)
(0.0478175 1.2935e-09 0)
(0.0478175 1.06468e-09 0)
(0.0478175 8.75819e-10 0)
(0.0478175 7.20095e-10 0)
(0.0478175 5.91786e-10 0)
(0.0478175 4.86101e-10 0)
(0.0478175 3.99055e-10 0)
(0.0478175 3.27383e-10 0)
(0.0478175 2.68418e-10 0)
(0.0478175 2.19963e-10 0)
(0.0478175 1.80171e-10 0)
(0.0478175 1.47493e-10 0)
(0.0478175 1.20646e-10 0)
(0.0478175 9.8606e-11 0)
(0.0478175 8.0556e-11 0)
(0.0478175 6.58213e-11 0)
(0.0478175 5.38124e-11 0)
(0.0478175 4.40045e-11 0)
(0.0478175 3.59553e-11 0)
(0.0478175 2.93276e-11 0)
(0.0478175 2.3882e-11 0)
(0.0478175 1.94408e-11 0)
(0.0478175 1.58471e-11 0)
(0.0478175 1.29394e-11 0)
(0.0478175 1.05661e-11 0)
(0.0478175 8.60289e-12 0)
(0.0478175 6.96743e-12 0)
(0.0478175 5.62083e-12 0)
(0.0478175 4.53711e-12 0)
(0.0478175 3.68405e-12 0)
(0.0478175 3.00989e-12 0)
(0.0478175 2.45853e-12 0)
(0.0478175 1.98533e-12 0)
(0.0478175 1.57427e-12 0)
(0.0478175 1.22561e-12 0)
(0.0478175 9.46596e-13 0)
(0.0478175 7.34917e-13 0)
(0.0478175 5.78543e-13 0)
(0.0478175 4.62037e-13 0)
(0.0478175 3.70198e-13 0)
(0.0478175 2.97944e-13 0)
(0.0478175 2.46863e-13 0)
(0.0478175 2.12454e-13 0)
(0.0478175 1.88922e-13 0)
(0.0478175 1.65458e-13 0)
(0.0478175 1.37505e-13 0)
(0.0478175 1.08128e-13 0)
(0.0478175 8.15184e-14 0)
(0.0478175 6.77855e-14 0)
(0.0478175 6.87152e-14 0)
(0.0478175 8.20902e-14 0)
(0.0478175 9.51246e-14 0)
(0.0478175 9.15363e-14 0)
(0.0478175 6.53134e-14 0)
(0.0478175 1.64504e-14 0)
(0.0478175 -4.09194e-14 0)
(0.0478175 -8.90202e-14 0)
(0.0478175 -1.14048e-13 0)
(0.0478175 -1.09414e-13 0)
(0.0478175 -7.92293e-14 0)
(0.0478175 -3.29056e-14 0)
(0.0478175 1.48113e-14 0)
(0.0478175 4.90974e-14 0)
(0.0478175 6.26679e-14 0)
(0.0478175 5.33261e-14 0)
(0.0478175 2.67733e-14 0)
(0.0478175 -6.86505e-15 0)
(0.0478175 -3.69578e-14 0)
(0.0478175 -5.53705e-14 0)
(0.0478175 -5.6043e-14 0)
(0.0478175 -4.14256e-14 0)
(0.0478175 -1.85999e-14 0)
(0.0478175 4.43674e-15 0)
(0.0478175 2.02932e-14 0)
(0.0478175 2.42097e-14 0)
(0.0478175 1.66772e-14 0)
(0.0478175 3.61401e-15 0)
(0.0478175 -7.41513e-15 0)
(0.0478175 -8.41282e-15 0)
(0.0478175 4.27363e-15 0)
(0.0478175 2.82078e-14 0)
(0.0478175 5.60187e-14 0)
(0.0478175 7.91742e-14 0)
(0.0478175 9.12835e-14 0)
(0.0478175 8.80225e-14 0)
(0.0478175 7.31625e-14 0)
(0.0478175 5.40496e-14 0)
(0.0478175 4.13912e-14 0)
(0.0478175 4.45908e-14 0)
(0.0478175 6.40884e-14 0)
(0.0478175 9.99667e-14 0)
(0.0478175 1.45487e-13 0)
(0.0478175 1.91672e-13 0)
(0.0478175 2.30676e-13 0)
(0.0478175 2.64594e-13 0)
(0.0478175 2.97617e-13 0)
(0.0478175 3.41167e-13 0)
(0.0478175 4.08489e-13 0)
(0.0478175 5.09768e-13 0)
(0.0478175 6.54091e-13 0)
(0.0478175 8.42134e-13 0)
(0.0478175 1.07511e-12 0)
(0.0478175 1.35323e-12 0)
(0.0478175 1.68185e-12 0)
(0.0478175 2.08482e-12 0)
(0.0478175 2.59596e-12 0)
(0.0478175 3.27612e-12 0)
(0.0478175 4.20613e-12 0)
(0.0478175 5.45995e-12 0)
(0.0478175 7.23917e-12 0)
(0.0478175 9.69553e-12 0)
(0.0478175 1.21914e-11 0)
(0.0478175 1.84164e-11 0)
(0.0478175 2.07117e-11 0)
(0.0478175 2.33303e-11 0)
(0.0478175 3.44123e-11 0)
(-0.00181063 0.00811321 0)
(-0.0061519 0.00784453 0)
(-0.00902298 0.00530743 0)
(-0.0103958 0.00211511 0)
(-0.00985316 -0.0015759 0)
(-0.0076114 -0.00561045 0)
(-0.00363561 -0.0095385 0)
(0.00173373 -0.0128686 0)
(0.00816254 -0.0150747 0)
(0.0150672 -0.0158236 0)
(0.0218374 -0.0151658 0)
(0.0279669 -0.0135112 0)
(0.0331933 -0.0113867 0)
(0.0374768 -0.00921598 0)
(0.0409093 -0.00724895 0)
(0.0436291 -0.00559044 0)
(0.0457731 -0.00425488 0)
(0.0474595 -0.00321127 0)
(0.0487844 -0.00241173 0)
(0.0498245 -0.00180685 0)
(0.0506402 -0.0013527 0)
(0.0512795 -0.0010131 0)
(0.0517803 -0.000759542 0)
(0.0521723 -0.000570204 0)
(0.0524792 -0.000428648 0)
(0.0527193 -0.00032262 0)
(0.0529072 -0.000243037 0)
(0.0530542 -0.000183175 0)
(0.0531692 -0.000138058 0)
(0.0532592 -0.000103996 0)
(0.0533296 -7.82467e-05 0)
(0.0533846 -5.87647e-05 0)
(0.0534276 -4.40188e-05 0)
(0.0534612 -3.28596e-05 0)
(0.0534874 -2.44206e-05 0)
(0.0535079 -1.80473e-05 0)
(0.0535239 -1.32437e-05 0)
(0.0535363 -9.63289e-06 0)
(0.0535459 -6.92825e-06 0)
(0.0535534 -4.91134e-06 0)
(0.0535592 -3.41558e-06 0)
(0.0535637 -2.31391e-06 0)
(0.0535672 -1.5094e-06 0)
(0.0535699 -9.28159e-07 0)
(0.0535719 -5.13936e-07 0)
(0.0535735 -2.23969e-07 0)
(0.0535747 -2.58291e-08 0)
(0.0535756 1.05004e-07 0)
(0.0535763 1.87006e-07 0)
(0.0535768 2.34037e-07 0)
(0.0535772 2.56438e-07 0)
(0.0535775 2.61874e-07 0)
(0.0535777 2.55984e-07 0)
(0.0535779 2.42873e-07 0)
(0.053578 2.25496e-07 0)
(0.053578 2.05946e-07 0)
(0.0535781 1.85673e-07 0)
(0.0535781 1.65658e-07 0)
(0.0535782 1.46533e-07 0)
(0.0535782 1.28683e-07 0)
(0.0535782 1.12314e-07 0)
(0.0535782 9.75087e-08 0)
(0.0535782 8.42637e-08 0)
(0.0535782 7.25216e-08 0)
(0.0535782 6.21903e-08 0)
(0.0535782 5.31584e-08 0)
(0.0535782 4.53061e-08 0)
(0.0535782 3.8512e-08 0)
(0.0535782 3.26581e-08 0)
(0.0535782 2.76332e-08 0)
(0.0535781 2.33342e-08 0)
(0.0535781 1.96672e-08 0)
(0.0535781 1.65478e-08 0)
(0.0535781 1.39008e-08 0)
(0.0535781 1.16597e-08 0)
(0.0535781 9.76616e-09 0)
(0.0535781 8.16932e-09 0)
(0.0535781 6.82502e-09 0)
(0.0535781 5.69517e-09 0)
(0.0535781 4.74706e-09 0)
(0.0535781 3.95263e-09 0)
(0.0535781 3.2879e-09 0)
(0.0535781 2.73235e-09 0)
(0.0535781 2.26855e-09 0)
(0.0535781 1.88175e-09 0)
(0.0535781 1.55953e-09 0)
(0.0535781 1.29146e-09 0)
(0.0535781 1.06869e-09 0)
(0.0535781 8.83748e-10 0)
(0.0535781 7.30297e-10 0)
(0.0535781 6.03034e-10 0)
(0.0535781 4.97564e-10 0)
(0.0535781 4.1024e-10 0)
(0.0535781 3.38011e-10 0)
(0.0535781 2.78307e-10 0)
(0.0535781 2.28963e-10 0)
(0.0535781 1.88202e-10 0)
(0.0535781 1.54582e-10 0)
(0.0535781 1.26924e-10 0)
(0.0535781 1.0423e-10 0)
(0.0535781 8.56225e-11 0)
(0.0535781 7.03272e-11 0)
(0.0535781 5.77098e-11 0)
(0.0535781 4.72839e-11 0)
(0.0535781 3.86896e-11 0)
(0.0535781 3.16546e-11 0)
(0.0535781 2.59252e-11 0)
(0.0535781 2.12571e-11 0)
(0.0535781 1.74236e-11 0)
(0.0535781 1.4242e-11 0)
(0.0535781 1.15981e-11 0)
(0.0535781 9.41923e-12 0)
(0.0535781 7.65727e-12 0)
(0.0535781 6.25222e-12 0)
(0.0535781 5.12188e-12 0)
(0.0535781 4.19028e-12 0)
(0.0535781 3.39114e-12 0)
(0.0535781 2.69899e-12 0)
(0.0535781 2.11359e-12 0)
(0.0535781 1.64018e-12 0)
(0.0535781 1.27244e-12 0)
(0.0535781 9.96633e-13 0)
(0.0535781 7.87739e-13 0)
(0.0535781 6.27394e-13 0)
(0.0535781 5.02896e-13 0)
(0.0535781 4.09315e-13 0)
(0.0535781 3.44217e-13 0)
(0.0535781 2.97649e-13 0)
(0.0535781 2.60192e-13 0)
(0.0535781 2.23625e-13 0)
(0.0535781 1.8758e-13 0)
(0.0535781 1.63841e-13 0)
(0.0535781 1.60183e-13 0)
(0.0535781 1.79744e-13 0)
(0.0535781 2.07601e-13 0)
(0.0535781 2.22785e-13 0)
(0.0535781 2.01723e-13 0)
(0.0535781 1.32861e-13 0)
(0.0535781 2.57113e-14 0)
(0.0535781 -9.45823e-14 0)
(0.0535781 -1.94522e-13 0)
(0.0535781 -2.44207e-13 0)
(0.0535781 -2.33981e-13 0)
(0.0535781 -1.7028e-13 0)
(0.0535781 -8.00828e-14 0)
(0.0535781 6.87573e-15 0)
(0.0535781 6.60444e-14 0)
(0.0535781 8.45471e-14 0)
(0.0535781 6.47447e-14 0)
(0.0535781 2.12194e-14 0)
(0.0535781 -2.73484e-14 0)
(0.0535781 -6.4862e-14 0)
(0.0535781 -8.04076e-14 0)
(0.0535781 -7.45203e-14 0)
(0.0535781 -5.00798e-14 0)
(0.0535781 -1.67294e-14 0)
(0.0535781 1.38542e-14 0)
(0.0535781 3.32753e-14 0)
(0.0535781 4.15559e-14 0)
(0.0535781 3.97406e-14 0)
(0.0535781 3.52761e-14 0)
(0.0535781 3.39115e-14 0)
(0.0535781 3.99385e-14 0)
(0.0535781 5.35857e-14 0)
(0.0535781 7.14486e-14 0)
(0.0535781 8.81949e-14 0)
(0.0535781 9.46473e-14 0)
(0.0535781 8.82696e-14 0)
(0.0535781 7.34532e-14 0)
(0.0535781 5.88729e-14 0)
(0.0535781 5.67767e-14 0)
(0.0535781 7.3994e-14 0)
(0.0535781 1.14262e-13 0)
(0.0535781 1.76724e-13 0)
(0.0535781 2.49857e-13 0)
(0.0535781 3.22783e-13 0)
(0.0535781 3.83474e-13 0)
(0.0535781 4.30638e-13 0)
(0.0535781 4.6978e-13 0)
(0.0535781 5.15275e-13 0)
(0.0535781 5.89398e-13 0)
(0.0535781 7.08766e-13 0)
(0.0535781 8.88288e-13 0)
(0.0535781 1.13304e-12 0)
(0.0535781 1.44234e-12 0)
(0.0535781 1.81727e-12 0)
(0.0535781 2.25837e-12 0)
(0.0535781 2.78402e-12 0)
(0.0535781 3.43017e-12 0)
(0.0535781 4.25808e-12 0)
(0.0535781 5.36028e-12 0)
(0.0535781 6.85331e-12 0)
(0.0535781 8.88658e-12 0)
(0.0535781 1.17807e-11 0)
(0.0535781 1.55626e-11 0)
(0.0535781 2.09595e-11 0)
(0.0535781 3.13293e-11 0)
(0.0535781 3.43333e-11 0)
(0.0535781 7.79103e-11 0)
(0.0535781 9.50187e-11 0)
(-0.00191838 0.0114631 0)
(-0.00658321 0.0110387 0)
(-0.00913123 0.00710767 0)
(-0.00970764 0.00224546 0)
(-0.00816866 -0.00324973 0)
(-0.00506139 -0.00906796 0)
(-0.000450448 -0.0147004 0)
(0.00529558 -0.0195233 0)
(0.0118944 -0.0228137 0)
(0.0188434 -0.0239745 0)
(0.0255665 -0.0229344 0)
(0.0315386 -0.0202823 0)
(0.0364785 -0.0169111 0)
(0.0403781 -0.0135516 0)
(0.0433948 -0.0105964 0)
(0.0457276 -0.00816973 0)
(0.0475484 -0.00625143 0)
(0.0489852 -0.00476619 0)
(0.0501279 -0.00362886 0)
(0.0510407 -0.00276272 0)
(0.0517705 -0.00210468 0)
(0.0523538 -0.00160505 0)
(0.0528191 -0.00122552 0)
(0.0531895 -0.000936903 0)
(0.053484 -0.000717106 0)
(0.0537176 -0.000549443 0)
(0.0539026 -0.000421332 0)
(0.054049 -0.00032328 0)
(0.0541648 -0.000248121 0)
(0.0542561 -0.000190432 0)
(0.0543282 -0.000146105 0)
(0.054385 -0.000112016 0)
(0.0544298 -8.5788e-05 0)
(0.054465 -6.56036e-05 0)
(0.0544927 -5.00722e-05 0)
(0.0545144 -3.8127e-05 0)
(0.0545315 -2.89476e-05 0)
(0.0545448 -2.19018e-05 0)
(0.0545553 -1.65024e-05 0)
(0.0545635 -1.23728e-05 0)
(0.0545699 -9.22198e-06 0)
(0.0545749 -6.82497e-06 0)
(0.0545788 -5.0077e-06 0)
(0.0545818 -3.63557e-06 0)
(0.0545842 -2.60453e-06 0)
(0.054586 -1.83421e-06 0)
(0.0545874 -1.2626e-06 0)
(0.0545885 -8.41916e-07 0)
(0.0545893 -5.35412e-07 0)
(0.0545899 -3.1488e-07 0)
(0.0545904 -1.58724e-07 0)
(0.0545908 -5.04558e-08 0)
(0.0545911 2.24688e-08 0)
(0.0545913 6.95564e-08 0)
(0.0545914 9.79788e-08 0)
(0.0545915 1.13117e-07 0)
(0.0545916 1.18985e-07 0)
(0.0545917 1.1855e-07 0)
(0.0545917 1.1399e-07 0)
(0.0545918 1.06885e-07 0)
(0.0545918 9.83634e-08 0)
(0.0545918 8.92178e-08 0)
(0.0545918 7.99917e-08 0)
(0.0545918 7.10451e-08 0)
(0.0545918 6.26046e-08 0)
(0.0545918 5.48008e-08 0)
(0.0545918 4.76967e-08 0)
(0.0545918 4.13084e-08 0)
(0.0545918 3.56206e-08 0)
(0.0545918 3.05982e-08 0)
(0.0545918 2.61942e-08 0)
(0.0545918 2.23552e-08 0)
(0.0545918 1.9026e-08 0)
(0.0545918 1.61519e-08 0)
(0.0545918 1.36805e-08 0)
(0.0545918 1.15627e-08 0)
(0.0545918 9.7538e-09 0)
(0.0545918 8.21303e-09 0)
(0.0545918 6.90408e-09 0)
(0.0545918 5.79472e-09 0)
(0.0545918 4.85657e-09 0)
(0.0545918 4.06476e-09 0)
(0.0545918 3.39767e-09 0)
(0.0545918 2.83656e-09 0)
(0.0545918 2.36536e-09 0)
(0.0545918 1.97026e-09 0)
(0.0545918 1.6395e-09 0)
(0.0545918 1.36297e-09 0)
(0.0545918 1.13206e-09 0)
(0.0545918 9.39419e-10 0)
(0.0545918 7.78851e-10 0)
(0.0545918 6.45155e-10 0)
(0.0545918 5.3396e-10 0)
(0.0545918 4.41573e-10 0)
(0.0545918 3.64872e-10 0)
(0.0545918 3.01231e-10 0)
(0.0545918 2.48478e-10 0)
(0.0545918 2.04823e-10 0)
(0.0545918 1.68774e-10 0)
(0.0545918 1.3905e-10 0)
(0.0545918 1.14543e-10 0)
(0.0545918 9.43069e-11 0)
(0.0545918 7.75685e-11 0)
(0.0545918 6.37273e-11 0)
(0.0545918 5.23166e-11 0)
(0.0545918 4.29503e-11 0)
(0.0545918 3.52842e-11 0)
(0.0545918 2.89977e-11 0)
(0.0545918 2.38111e-11 0)
(0.0545918 1.95091e-11 0)
(0.0545918 1.59445e-11 0)
(0.0545918 1.30176e-11 0)
(0.0545918 1.06401e-11 0)
(0.0545918 8.71789e-12 0)
(0.0545918 7.14947e-12 0)
(0.0545918 5.84008e-12 0)
(0.0545918 4.72714e-12 0)
(0.0545918 3.77632e-12 0)
(0.0545918 2.98029e-12 0)
(0.0545918 2.33568e-12 0)
(0.0545918 1.83094e-12 0)
(0.0545918 1.44087e-12 0)
(0.0545918 1.13752e-12 0)
(0.0545918 8.99429e-13 0)
(0.0545918 7.14018e-13 0)
(0.0545918 5.75199e-13 0)
(0.0545918 4.75017e-13 0)
(0.0545918 4.02016e-13 0)
(0.0545918 3.45636e-13 0)
(0.0545918 2.98475e-13 0)
(0.0545918 2.62054e-13 0)
(0.0545918 2.44665e-13 0)
(0.0545918 2.51228e-13 0)
(0.0545918 2.78165e-13 0)
(0.0545918 3.06029e-13 0)
(0.0545918 3.07256e-13 0)
(0.0545918 2.5976e-13 0)
(0.0545918 1.56126e-13 0)
(0.0545918 1.41474e-14 0)
(0.0545918 -1.32121e-13 0)
(0.0545918 -2.43322e-13 0)
(0.0545918 -2.91819e-13 0)
(0.0545918 -2.7021e-13 0)
(0.0545918 -1.93992e-13 0)
(0.0545918 -9.5003e-14 0)
(0.0545918 -7.74878e-15 0)
(0.0545918 4.33815e-14 0)
(0.0545918 5.00498e-14 0)
(0.0545918 2.21631e-14 0)
(0.0545918 -2.37511e-14 0)
(0.0545918 -6.65511e-14 0)
(0.0545918 -9.03902e-14 0)
(0.0545918 -8.88914e-14 0)
(0.0545918 -6.58898e-14 0)
(0.0545918 -3.11288e-14 0)
(0.0545918 6.46493e-15 0)
(0.0545918 3.56535e-14 0)
(0.0545918 5.37899e-14 0)
(0.0545918 6.16249e-14 0)
(0.0545918 6.32809e-14 0)
(0.0545918 6.49775e-14 0)
(0.0545918 6.77526e-14 0)
(0.0545918 7.36027e-14 0)
(0.0545918 8.10536e-14 0)
(0.0545918 8.55924e-14 0)
(0.0545918 8.52925e-14 0)
(0.0545918 7.66794e-14 0)
(0.0545918 6.48522e-14 0)
(0.0545918 5.60131e-14 0)
(0.0545918 6.10161e-14 0)
(0.0545918 8.74672e-14 0)
(0.0545918 1.37857e-13 0)
(0.0545918 2.10524e-13 0)
(0.0545918 2.97096e-13 0)
(0.0545918 3.86625e-13 0)
(0.0545918 4.66363e-13 0)
(0.0545918 5.30335e-13 0)
(0.0545918 5.81966e-13 0)
(0.0545918 6.34157e-13 0)
(0.0545918 7.06436e-13 0)
(0.0545918 8.1894e-13 0)
(0.0545918 9.90337e-13 0)
(0.0545918 1.23187e-12 0)
(0.0545918 1.55199e-12 0)
(0.0545918 1.94988e-12 0)
(0.0545918 2.42529e-12 0)
(0.0545918 2.98827e-12 0)
(0.0545918 3.66538e-12 0)
(0.0545918 4.5072e-12 0)
(0.0545918 5.58851e-12 0)
(0.0545918 7.01247e-12 0)
(0.0545918 8.91599e-12 0)
(0.0545918 1.15038e-11 0)
(0.0545918 1.49552e-11 0)
(0.0545918 1.97269e-11 0)
(0.0545918 2.65118e-11 0)
(0.0545918 3.52817e-11 0)
(0.0545918 4.6811e-11 0)
(0.0545918 8.10752e-11 0)
(0.0545918 9.02998e-11 0)
(-0.00145887 0.0157341 0)
(-0.00498945 0.0148263 0)
(-0.00579277 0.00886733 0)
(-0.00449656 0.00188658 0)
(-0.00132916 -0.00529985 0)
(0.00299121 -0.0125073 0)
(0.00828302 -0.0193743 0)
(0.0141688 -0.025326 0)
(0.0203839 -0.0295713 0)
(0.0265599 -0.0312802 0)
(0.032306 -0.0301055 0)
(0.0372668 -0.0266045 0)
(0.0412458 -0.0219885 0)
(0.0442642 -0.0173901 0)
(0.0464994 -0.0134298 0)
(0.0481677 -0.0102704 0)
(0.0494472 -0.00783887 0)
(0.0504574 -0.00599183 0)
(0.0512719 -0.00459138 0)
(0.0519354 -0.00352676 0)
(0.0524774 -0.00271449 0)
(0.0529195 -0.00209269 0)
(0.0532789 -0.00161543 0)
(0.05357 -0.00124833 0)
(0.0538048 -0.000965476 0)
(0.0539935 -0.000747209 0)
(0.0541447 -0.000578566 0)
(0.0542656 -0.000448115 0)
(0.0543621 -0.000347107 0)
(0.0544388 -0.00026883 0)
(0.0544998 -0.00020813 0)
(0.0545481 -0.000161038 0)
(0.0545864 -0.000124494 0)
(0.0546167 -9.61339e-05 0)
(0.0546407 -7.41303e-05 0)
(0.0546595 -5.70657e-05 0)
(0.0546744 -4.38404e-05 0)
(0.0546861 -3.36003e-05 0)
(0.0546953 -2.56808e-05 0)
(0.0547025 -1.95651e-05 0)
(0.0547081 -1.48504e-05 0)
(0.0547126 -1.12233e-05 0)
(0.054716 -8.43947e-06 0)
(0.0547187 -6.30873e-06 0)
(0.0547208 -4.683e-06 0)
(0.0547224 -3.44711e-06 0)
(0.0547237 -2.51151e-06 0)
(0.0547247 -1.80669e-06 0)
(0.0547254 -1.27875e-06 0)
(0.054726 -8.85941e-07 0)
(0.0547265 -5.96018e-07 0)
(0.0547268 -3.84103e-07 0)
(0.0547271 -2.31054e-07 0)
(0.0547273 -1.22184e-07 0)
(0.0547274 -4.62568e-08 0)
(0.0547275 5.29398e-09 0)
(0.0547276 3.8973e-08 0)
(0.0547277 5.96966e-08 0)
(0.0547277 7.11615e-08 0)
(0.0547277 7.61297e-08 0)
(0.0547278 7.66499e-08 0)
(0.0547278 7.42286e-08 0)
(0.0547278 6.99615e-08 0)
(0.0547278 6.46353e-08 0)
(0.0547278 5.88049e-08 0)
(0.0547278 5.28534e-08 0)
(0.0547278 4.70367e-08 0)
(0.0547278 4.15182e-08 0)
(0.0547278 3.63945e-08 0)
(0.0547278 3.17149e-08 0)
(0.0547278 2.74959e-08 0)
(0.0547278 2.37317e-08 0)
(0.0547278 2.0402e-08 0)
(0.0547278 1.7478e-08 0)
(0.0547278 1.49259e-08 0)
(0.0547278 1.27102e-08 0)
(0.0547278 1.07956e-08 0)
(0.0547278 9.14785e-09 0)
(0.0547278 7.7349e-09 0)
(0.0547278 6.52724e-09 0)
(0.0547278 5.49806e-09 0)
(0.0547278 4.62327e-09 0)
(0.0547278 3.88148e-09 0)
(0.0547278 3.25385e-09 0)
(0.0547278 2.7239e-09 0)
(0.0547278 2.27729e-09 0)
(0.0547278 1.90159e-09 0)
(0.0547278 1.58606e-09 0)
(0.0547278 1.32142e-09 0)
(0.0547278 1.09975e-09 0)
(0.0547278 9.14325e-10 0)
(0.0547278 7.59417e-10 0)
(0.0547278 6.30171e-10 0)
(0.0547278 5.22454e-10 0)
(0.0547278 4.32761e-10 0)
(0.0547278 3.58143e-10 0)
(0.0547278 2.9614e-10 0)
(0.0547278 2.44701e-10 0)
(0.0547278 2.02095e-10 0)
(0.0547278 1.66838e-10 0)
(0.0547278 1.3766e-10 0)
(0.0547278 1.13497e-10 0)
(0.0547278 9.34859e-11 0)
(0.0547278 7.69354e-11 0)
(0.0547278 6.32905e-11 0)
(0.0547278 5.20732e-11 0)
(0.0547278 4.28559e-11 0)
(0.0547278 3.52655e-11 0)
(0.0547278 2.89869e-11 0)
(0.0547278 2.37846e-11 0)
(0.0547278 1.94878e-11 0)
(0.0547278 1.59642e-11 0)
(0.0547278 1.30938e-11 0)
(0.0547278 1.07504e-11 0)
(0.0547278 8.81735e-12 0)
(0.0547278 7.19529e-12 0)
(0.0547278 5.81979e-12 0)
(0.0547278 4.66074e-12 0)
(0.0547278 3.70048e-12 0)
(0.0547278 2.92615e-12 0)
(0.0547278 2.31108e-12 0)
(0.0547278 1.82403e-12 0)
(0.0547278 1.43499e-12 0)
(0.0547278 1.12415e-12 0)
(0.0547278 8.81953e-13 0)
(0.0547278 7.00198e-13 0)
(0.0547278 5.70119e-13 0)
(0.0547278 4.77252e-13 0)
(0.0547278 4.07815e-13 0)
(0.0547278 3.53771e-13 0)
(0.0547278 3.17002e-13 0)
(0.0547278 3.04589e-13 0)
(0.0547278 3.1963e-13 0)
(0.0547278 3.51545e-13 0)
(0.0547278 3.77422e-13 0)
(0.0547278 3.66509e-13 0)
(0.0547278 2.98385e-13 0)
(0.0547278 1.72554e-13 0)
(0.0547278 1.27518e-14 0)
(0.0547278 -1.41875e-13 0)
(0.0547278 -2.52998e-13 0)
(0.0547278 -2.94969e-13 0)
(0.0547278 -2.67215e-13 0)
(0.0547278 -1.91782e-13 0)
(0.0547278 -1.03173e-13 0)
(0.0547278 -3.51907e-14 0)
(0.0547278 -6.30635e-15 0)
(0.0547278 -1.69669e-14 0)
(0.0547278 -5.26797e-14 0)
(0.0547278 -9.13248e-14 0)
(0.0547278 -1.14337e-13 0)
(0.0547278 -1.12078e-13 0)
(0.0547278 -8.63743e-14 0)
(0.0547278 -4.56532e-14 0)
(0.0547278 -1.37022e-15 0)
(0.0547278 3.5441e-14 0)
(0.0547278 6.09973e-14 0)
(0.0547278 7.61525e-14 0)
(0.0547278 8.31764e-14 0)
(0.0547278 8.76324e-14 0)
(0.0547278 9.2183e-14 0)
(0.0547278 9.75012e-14 0)
(0.0547278 1.0248e-13 0)
(0.0547278 1.02077e-13 0)
(0.0547278 9.33346e-14 0)
(0.0547278 7.66602e-14 0)
(0.0547278 5.70487e-14 0)
(0.0547278 4.20655e-14 0)
(0.0547278 4.20449e-14 0)
(0.0547278 6.5223e-14 0)
(0.0547278 1.16143e-13 0)
(0.0547278 1.94722e-13 0)
(0.0547278 2.93337e-13 0)
(0.0547278 3.99149e-13 0)
(0.0547278 4.98679e-13 0)
(0.0547278 5.80959e-13 0)
(0.0547278 6.45386e-13 0)
(0.0547278 7.02252e-13 0)
(0.0547278 7.65017e-13 0)
(0.0547278 8.58574e-13 0)
(0.0547278 1.00327e-12 0)
(0.0547278 1.21781e-12 0)
(0.0547278 1.51369e-12 0)
(0.0547278 1.89071e-12 0)
(0.0547278 2.35138e-12 0)
(0.0547278 2.89606e-12 0)
(0.0547278 3.54007e-12 0)
(0.0547278 4.31789e-12 0)
(0.0547278 5.28275e-12 0)
(0.0547278 6.51826e-12 0)
(0.0547278 8.13092e-12 0)
(0.0547278 1.0272e-11 0)
(0.0547278 1.30984e-11 0)
(0.0547278 1.68648e-11 0)
(0.0547278 2.20195e-11 0)
(0.0547278 2.83235e-11 0)
(0.0547278 3.80901e-11 0)
(0.0547278 4.94469e-11 0)
(0.0547278 7.00082e-11 0)
(0.0547278 8.23008e-11 0)
(-0.000968468 0.0169388 0)
(-0.00210856 0.0152657 0)
(0.000878151 0.00742426 0)
(0.00502823 -0.000602797 0)
(0.0104601 -0.00854137 0)
(0.0162356 -0.0162687 0)
(0.0221762 -0.0235695 0)
(0.0279612 -0.0299306 0)
(0.0333452 -0.0345656 0)
(0.0380707 -0.0365565 0)
(0.0419732 -0.0353447 0)
(0.0450227 -0.0313122 0)
(0.0472938 -0.0257759 0)
(0.048921 -0.0201872 0)
(0.0500722 -0.0154148 0)
(0.0509096 -0.0116875 0)
(0.051555 -0.0088865 0)
(0.0520816 -0.00679873 0)
(0.0525264 -0.00523246 0)
(0.0529067 -0.00404502 0)
(0.0532312 -0.00313635 0)
(0.0535057 -0.00243638 0)
(0.0537359 -0.00189488 0)
(0.0539271 -0.00147486 0)
(0.0540847 -0.00114852 0)
(0.0542138 -0.00089467 0)
(0.0543189 -0.000697024 0)
(0.0544041 -0.000543031 0)
(0.0544729 -0.000422982 0)
(0.0545282 -0.000329356 0)
(0.0545725 -0.000256317 0)
(0.0546079 -0.000199333 0)
(0.0546362 -0.000154875 0)
(0.0546587 -0.0001202 0)
(0.0546765 -9.31636e-05 0)
(0.0546907 -7.20967e-05 0)
(0.0547018 -5.56935e-05 0)
(0.0547107 -4.29337e-05 0)
(0.0547176 -3.30196e-05 0)
(0.0547231 -2.53268e-05 0)
(0.0547274 -1.93672e-05 0)
(0.0547308 -1.47584e-05 0)
(0.0547334 -1.12017e-05 0)
(0.0547355 -8.4632e-06 0)
(0.0547371 -6.36029e-06 0)
(0.0547384 -4.75026e-06 0)
(0.0547393 -3.52177e-06 0)
(0.0547401 -2.58803e-06 0)
(0.0547407 -1.88147e-06 0)
(0.0547411 -1.34955e-06 0)
(0.0547415 -9.51493e-07 0)
(0.0547417 -6.557e-07 0)
(0.0547419 -4.3774e-07 0)
(0.0547421 -2.78763e-07 0)
(0.0547422 -1.64264e-07 0)
(0.0547423 -8.3111e-08 0)
(0.0547424 -2.67923e-08 0)
(0.0547424 1.11799e-08 0)
(0.0547424 3.57288e-08 0)
(0.0547425 5.05726e-08 0)
(0.0547425 5.85042e-08 0)
(0.0547425 6.16076e-08 0)
(0.0547425 6.14264e-08 0)
(0.0547425 5.90931e-08 0)
(0.0547425 5.54296e-08 0)
(0.0547425 5.10239e-08 0)
(0.0547425 4.62892e-08 0)
(0.0547425 4.15087e-08 0)
(0.0547425 3.68706e-08 0)
(0.0547425 3.2493e-08 0)
(0.0547425 2.84446e-08 0)
(0.0547425 2.47583e-08 0)
(0.0547425 2.14429e-08 0)
(0.0547425 1.84907e-08 0)
(0.0547425 1.58837e-08 0)
(0.0547425 1.35974e-08 0)
(0.0547425 1.16045e-08 0)
(0.0547425 9.87609e-09 0)
(0.0547425 8.38394e-09 0)
(0.0547425 7.10082e-09 0)
(0.0547425 6.00136e-09 0)
(0.0547425 5.06224e-09 0)
(0.0547425 4.26236e-09 0)
(0.0547425 3.58284e-09 0)
(0.0547425 3.00696e-09 0)
(0.0547425 2.51996e-09 0)
(0.0547425 2.10894e-09 0)
(0.0547425 1.76267e-09 0)
(0.0547425 1.47143e-09 0)
(0.0547425 1.22686e-09 0)
(0.0547425 1.0218e-09 0)
(0.0547425 8.50135e-10 0)
(0.0547425 7.06623e-10 0)
(0.0547425 5.86785e-10 0)
(0.0547425 4.86818e-10 0)
(0.0547425 4.03515e-10 0)
(0.0547425 3.34185e-10 0)
(0.0547425 2.7656e-10 0)
(0.0547425 2.2872e-10 0)
(0.0547425 1.8903e-10 0)
(0.0547425 1.56107e-10 0)
(0.0547425 1.28805e-10 0)
(0.0547425 1.06187e-10 0)
(0.0547425 8.74889e-11 0)
(0.0547425 7.20687e-11 0)
(0.0547425 5.93711e-11 0)
(0.0547425 4.89087e-11 0)
(0.0547425 4.02671e-11 0)
(0.0547425 3.31161e-11 0)
(0.0547425 2.72014e-11 0)
(0.0547425 2.23308e-11 0)
(0.0547425 1.83395e-11 0)
(0.0547425 1.50742e-11 0)
(0.0547425 1.2388e-11 0)
(0.0547425 1.01525e-11 0)
(0.0547425 8.27499e-12 0)
(0.0547425 6.69486e-12 0)