/*--------------------------------*- C++ -*----------------------------------*\
| =========                 |                                                 |
| \\      /  F ield         | OpenFOAM: The Open Source CFD Toolbox           |
|  \\    /   O peration     | Version:  4.1                                   |
|   \\  /    A nd           | Web:      www.OpenFOAM.org                      |
|    \\/     M anipulation  |                                                 |
\*---------------------------------------------------------------------------*/
FoamFile
{
    version     2.0;
    format      ascii;
    class       volScalarField;
    location    "3630";
    object      p;
}
// * * * * * * * * * * * * * * * * * * * * * * * * * * * * * * * * * * * * * //

dimensions      [1 -1 -2 0 0 0 0];

internalField   nonuniform List<scalar> 
1275
(
0.712255
0.712207
0.7122
0.712157
0.712145
0.712101
0.712085
0.712034
0.712019
0.71195
0.712267
0.712215
0.712209
0.712164
0.712154
0.71211
0.712097
0.712051
0.712043
0.711996
0.712284
0.71223
0.712225
0.712178
0.712169
0.712125
0.712113
0.71207
0.712058
0.71202
0.712304
0.712248
0.712244
0.712197
0.712189
0.712146
0.712137
0.712097
0.71209
0.712056
0.712323
0.712267
0.712263
0.712216
0.712209
0.712168
0.712158
0.712122
0.712112
0.712082
0.712339
0.712284
0.71228
0.712235
0.712227
0.712188
0.712179
0.712145
0.712135
0.712107
0.712347
0.712295
0.71229
0.712248
0.712239
0.712203
0.712192
0.71216
0.712149
0.712122
0.71235
0.712301
0.712296
0.712256
0.712246
0.712211
0.7122
0.712169
0.712157
0.712131
0.712344
0.712301
0.712295
0.712257
0.712247
0.712212
0.7122
0.71217
0.712157
0.712131
0.712075
0.71208
0.712086
0.712092
0.712099
0.712105
0.712112
0.712119
0.712127
0.712134
0.712143
0.712151
0.71216
0.712169
0.712179
0.712189
0.712199
0.71221
0.712221
0.712233
0.712246
0.712259
0.712273
0.712288
0.712304
0.71232
0.712337
0.712356
0.712375
0.712396
0.712417
0.71244
0.712465
0.712491
0.712518
0.712546
0.712577
0.712608
0.712641
0.712675
0.71271
0.712746
0.712783
0.71282
0.712857
0.712894
0.71293
0.712966
0.713
0.713032
0.713063
0.713091
0.713117
0.713141
0.713162
0.713181
0.713197
0.71321
0.713222
0.713231
0.713239
0.713245
0.713249
0.713253
0.713256
0.713258
0.713259
0.71326
0.713261
0.713262
0.713263
0.713264
0.713266
0.713267
0.713269
0.713271
0.713273
0.713275
0.711927
0.711978
0.711971
0.711993
0.711988
0.711996
0.711993
0.711996
0.711994
0.711995
0.711994
0.711994
0.711993
0.711994
0.711993
0.711994
0.711994
0.711995
0.711995
0.711996
0.711997
0.711998
0.711999
0.712001
0.712002
0.712004
0.712006
0.712008
0.712011
0.712013
0.712016
0.712019
0.712022
0.712025
0.712029
0.712032
0.712036
0.712041
0.712045
0.712049
0.712054
0.712059
0.712064
0.71207
0.712075
0.712082
0.712087
0.712095
0.712101
0.712108
0.712116
0.712124
0.712132
0.71214
0.712149
0.712158
0.712168
0.712178
0.712188
0.7122
0.712211
0.712223
0.712236
0.712249
0.712263
0.712278
0.712293
0.712309
0.712326
0.712344
0.712363
0.712382
0.712403
0.712425
0.712447
0.712471
0.712496
0.712522
0.712549
0.712577
0.712606
0.712636
0.712667
0.712698
0.71273
0.712763
0.712796
0.712829
0.712861
0.712893
0.712924
0.712954
0.712983
0.71301
0.713036
0.713059
0.71308
0.7131
0.713117
0.713132
0.713145
0.713157
0.713166
0.713175
0.713182
0.713188
0.713193
0.713197
0.7132
0.713204
0.713207
0.713209
0.713212
0.713215
0.713218
0.713221
0.713224
0.713227
0.71323
0.713234
0.713238
0.713242
0.713246
0.712
0.712004
0.711998
0.712004
0.711997
0.712
0.711995
0.711997
0.711994
0.711994
0.711993
0.711993
0.711992
0.711993
0.711992
0.711993
0.711993
0.711994
0.711995
0.711996
0.711997
0.711999
0.712
0.712002
0.712004
0.712006
0.712008
0.712011
0.712013
0.712016
0.712019
0.712022
0.712026
0.71203
0.712033
0.712038
0.712042
0.712047
0.712051
0.712057
0.712062
0.712068
0.712074
0.71208
0.712086
0.712093
0.7121
0.712108
0.712115
0.712124
0.712132
0.712141
0.712151
0.712161
0.712171
0.712182
0.712193
0.712205
0.712217
0.71223
0.712244
0.712258
0.712273
0.712289
0.712305
0.712322
0.712339
0.712358
0.712377
0.712397
0.712418
0.71244
0.712463
0.712486
0.712511
0.712536
0.712562
0.712588
0.712616
0.712644
0.712672
0.712701
0.71273
0.71276
0.712789
0.712818
0.712847
0.712875
0.712903
0.712929
0.712954
0.712978
0.713
0.713021
0.71304
0.713058
0.713073
0.713088
0.7131
0.713111
0.713121
0.71313
0.713137
0.713144
0.713149
0.713155
0.71316
0.713164
0.713169
0.713173
0.713177
0.713181
0.713185
0.71319
0.713194
0.713198
0.713203
0.713207
0.713212
0.713217
0.713222
0.713227
0.713232
0.712009
0.712009
0.712003
0.712008
0.712004
0.712007
0.712003
0.712004
0.712001
0.712001
0.711998
0.711998
0.711997
0.711997
0.711996
0.711996
0.711996
0.711996
0.711997
0.711998
0.711999
0.712
0.712002
0.712004
0.712006
0.712008
0.712011
0.712013
0.712016
0.71202
0.712023
0.712027
0.712031
0.712035
0.712039
0.712044
0.712049
0.712054
0.71206
0.712066
0.712072
0.712078
0.712085
0.712092
0.7121
0.712108
0.712116
0.712125
0.712134
0.712143
0.712153
0.712164
0.712174
0.712186
0.712198
0.71221
0.712224
0.712237
0.712252
0.712267
0.712282
0.712299
0.712316
0.712333
0.712352
0.712371
0.712391
0.712412
0.712433
0.712455
0.712478
0.712501
0.712525
0.71255
0.712575
0.712601
0.712627
0.712654
0.712681
0.712708
0.712735
0.712762
0.712788
0.712815
0.712841
0.712866
0.71289
0.712914
0.712936
0.712957
0.712977
0.712996
0.713014
0.713029
0.713044
0.713057
0.713069
0.71308
0.713089
0.713098
0.713106
0.713114
0.71312
0.713127
0.713133
0.713139
0.713144
0.71315
0.713155
0.71316
0.713165
0.71317
0.713174
0.713179
0.713184
0.713189
0.713194
0.7132
0.713205
0.71321
0.713215
0.713221
0.713226
0.712054
0.712041
0.712036
0.71203
0.712024
0.71202
0.712014
0.712011
0.712007
0.712005
0.712002
0.712
0.711998
0.711997
0.711997
0.711996
0.711996
0.711997
0.711997
0.711999
0.712
0.712001
0.712003
0.712005
0.712008
0.712011
0.712013
0.712017
0.71202
0.712024
0.712028
0.712032
0.712037
0.712041
0.712046
0.712052
0.712057
0.712063
0.71207
0.712076
0.712083
0.712091
0.712098
0.712107
0.712115
0.712124
0.712133
0.712143
0.712154
0.712165
0.712176
0.712188
0.7122
0.712213
0.712227
0.712241
0.712256
0.712272
0.712288
0.712305
0.712322
0.71234
0.712359
0.712379
0.712399
0.71242
0.712442
0.712464
0.712487
0.71251
0.712534
0.712559
0.712583
0.712608
0.712634
0.712659
0.712685
0.712711
0.712736
0.712761
0.712786
0.712811
0.712835
0.712858
0.71288
0.712902
0.712922
0.712942
0.71296
0.712977
0.712993
0.713008
0.713022
0.713034
0.713046
0.713057
0.713067
0.713077
0.713085
0.713093
0.713101
0.713108
0.713114
0.713121
0.713127
0.713133
0.713138
0.713144
0.713149
0.713155
0.713161
0.713166
0.713171
0.713177
0.713182
0.713187
0.713193
0.713198
0.713203
0.713209
0.713214
0.713219
0.713225
0.712074
0.712056
0.712049
0.71204
0.712034
0.712027
0.712022
0.712017
0.712013
0.712009
0.712006
0.712003
0.712001
0.712
0.711998
0.711998
0.711998
0.711998
0.711998
0.711999
0.712001
0.712002
0.712004
0.712007
0.712009
0.712012
0.712016
0.712019
0.712023
0.712027
0.712032
0.712036
0.712041
0.712047
0.712052
0.712058
0.712065
0.712071
0.712078
0.712086
0.712093
0.712102
0.71211
0.712119
0.712128
0.712138
0.712149
0.71216
0.712171
0.712183
0.712196
0.712209
0.712222
0.712237
0.712252
0.712267
0.712284
0.7123
0.712318
0.712336
0.712355
0.712375
0.712395
0.712416
0.712437
0.712459
0.712482
0.712505
0.712529
0.712553
0.712577
0.712601
0.712626
0.712651
0.712676
0.712701
0.712725
0.712749
0.712773
0.712797
0.712819
0.712841
0.712863
0.712883
0.712903
0.712921
0.712939
0.712955
0.712971
0.712986
0.713
0.713013
0.713025
0.713036
0.713047
0.713057
0.713066
0.713074
0.713082
0.71309
0.713097
0.713104
0.713111
0.713118
0.713125
0.713131
0.713137
0.713143
0.713149
0.713155
0.71316
0.713166
0.713171
0.713176
0.713181
0.713187
0.713192
0.713197
0.713203
0.713208
0.713214
0.713219
0.713225
0.712099
0.712079
0.712071
0.712057
0.712049
0.712039
0.712032
0.712024
0.712019
0.712013
0.712009
0.712006
0.712003
0.712001
0.711999
0.711998
0.711998
0.711998
0.711999
0.712
0.712001
0.712003
0.712005
0.712008
0.712011
0.712014
0.712018
0.712022
0.712026
0.71203
0.712035
0.71204
0.712046
0.712051
0.712058
0.712064
0.712071
0.712078
0.712085
0.712093
0.712102
0.71211
0.71212
0.712129
0.712139
0.71215
0.712161
0.712173
0.712185
0.712198
0.712211
0.712225
0.71224
0.712255
0.712271
0.712287
0.712305
0.712322
0.712341
0.71236
0.71238
0.7124
0.712421
0.712442
0.712465
0.712487
0.71251
0.712533
0.712557
0.712581
0.712605
0.712629
0.712653
0.712677
0.712701
0.712725
0.712748
0.712771
0.712793
0.712815
0.712836
0.712857
0.712876
0.712895
0.712913
0.71293
0.712946
0.712961
0.712975
0.712988
0.713001
0.713013
0.713024
0.713035
0.713045
0.713055
0.713064
0.713073
0.713081
0.71309
0.713097
0.713104
0.713111
0.713118
0.713124
0.713131
0.713137
0.713142
0.713148
0.713154
0.71316
0.713165
0.713171
0.713176
0.713181
0.713187
0.713192
0.713198
0.713203
0.713208
0.713214
0.713219
0.713225
0.712111
0.71209
0.71208
0.712063
0.712055
0.712043
0.712035
0.712026
0.71202
0.712014
0.71201
0.712005
0.712003
0.712
0.711999
0.711997
0.711997
0.711997
0.711998
0.711999
0.712001
0.712002
0.712005
0.712008
0.712011
0.712014
0.712018
0.712022
0.712027
0.712031
0.712036
0.712042
0.712047
0.712053
0.71206
0.712067
0.712074
0.712081
0.712089
0.712097
0.712106
0.712115
0.712124
0.712135
0.712145
0.712156
0.712168
0.71218
0.712192
0.712205
0.712219
0.712233
0.712248
0.712264
0.71228
0.712297
0.712315
0.712333
0.712351
0.712371
0.712391
0.712411
0.712432
0.712454
0.712476
0.712498
0.712521
0.712544
0.712568
0.712592
0.712615
0.712639
0.712663
0.712686
0.712709
0.712732
0.712755
0.712777
0.712798
0.712819
0.712839
0.712859
0.712877
0.712895
0.712912
0.712928
0.712944
0.712959
0.712973
0.712986
0.712999
0.713011
0.713023
0.713034
0.713044
0.713054
0.713063
0.713072
0.71308
0.713088
0.713096
0.713103
0.71311
0.713117
0.713123
0.71313
0.713136
0.713142
0.713148
0.713154
0.713159
0.713165
0.71317
0.713176
0.713181
0.713187
0.713192
0.713197
0.713203
0.713208
0.713214
0.713219
0.713225
0.712119
0.712097
0.712086
0.712069
0.71206
0.712047
0.712039
0.712029
0.712023
0.712015
0.712011
0.712006
0.712003
0.712
0.711999
0.711998
0.711997
0.711997
0.711998
0.711999
0.712001
0.712003
0.712005
0.712008
0.712011
0.712015
0.712019
0.712023
0.712027
0.712032
0.712037
0.712043
0.712049
0.712055
0.712061
0.712068
0.712075
0.712083
0.712091
0.712099
0.712108
0.712117
0.712127
0.712137
0.712148
0.712159
0.71217
0.712183
0.712195
0.712209
0.712223
0.712237
0.712252
0.712268
0.712284
0.712301
0.712319
0.712337
0.712356
0.712375
0.712395
0.712416
0.712437
0.712458
0.71248
0.712502
0.712525
0.712548
0.712571
0.712595
0.712618
0.712641
0.712664
0.712688
0.71271
0.712733
0.712755
0.712776
0.712798
0.712818
0.712838
0.712858
0.712876
0.712894
0.712911
0.712928
0.712943
0.712958
0.712972
0.712986
0.712998
0.71301
0.713022
0.713033
0.713043
0.713053
0.713062
0.713071
0.71308
0.713088
0.713095
0.713103
0.71311
0.713117
0.713123
0.71313
0.713136
0.713142
0.713148
0.713153
0.713159
0.713165
0.71317
0.713176
0.713181
0.713186
0.713192
0.713197
0.713203
0.713208
0.713214
0.713219
0.713225
0.712119
0.712097
0.712086
0.712069
0.712059
0.712045
0.712037
0.712027
0.712021
0.712013
0.712009
0.712004
0.712001
0.711998
0.711997
0.711995
0.711995
0.711995
0.711996
0.711997
0.711999
0.712001
0.712003
0.712006
0.712009
0.712013
0.712017
0.712021
0.712026
0.712031
0.712036
0.712041
0.712047
0.712053
0.71206
0.712067
0.712074
0.712081
0.712089
0.712098
0.712106
0.712116
0.712125
0.712135
0.712146
0.712157
0.712169
0.712181
0.712194
0.712207
0.712221
0.712235
0.71225
0.712266
0.712282
0.712299
0.712316
0.712334
0.712353
0.712372
0.712392
0.712412
0.712433
0.712455
0.712476
0.712499
0.712521
0.712544
0.712567
0.71259
0.712614
0.712637
0.71266
0.712684
0.712706
0.712729
0.712751
0.712773
0.712794
0.712815
0.712835
0.712855
0.712873
0.712891
0.712909
0.712925
0.712941
0.712956
0.71297
0.712984
0.712997
0.713009
0.713021
0.713032
0.713042
0.713052
0.713061
0.71307
0.713079
0.713087
0.713095
0.713102
0.713109
0.713116
0.713123
0.713129
0.713135
0.713141
0.713147
0.713153
0.713159
0.713164
0.71317
0.713175
0.713181
0.713186
0.713192
0.713197
0.713202
0.713208
0.713213
0.713219
0.713225
)
;

boundaryField
{
    inlet
    {
        type            zeroGradient;
    }
    outlet
    {
        type            fixedValue;
        value           nonuniform 0();
    }
    walls
    {
        type            zeroGradient;
    }
    symwall
    {
        type            empty;
    }
    procBoundary2to0
    {
        type            processor;
        value           nonuniform List<scalar> 
133
(
0.712071
0.712076
0.712082
0.712087
0.712093
0.712099
0.712106
0.712112
0.712119
0.712126
0.712134
0.712141
0.712149
0.712157
0.712166
0.712175
0.712184
0.712194
0.712204
0.712215
0.712226
0.712237
0.71225
0.712263
0.712276
0.712291
0.712306
0.712322
0.71234
0.712358
0.712378
0.712399
0.712422
0.712446
0.712472
0.712499
0.712529
0.71256
0.712593
0.712628
0.712664
0.712702
0.712742
0.712782
0.712824
0.712866
0.712907
0.712949
0.71299
0.713029
0.713067
0.713103
0.713137
0.713168
0.713196
0.713222
0.713244
0.713263
0.71328
0.713293
0.713304
0.713313
0.713319
0.713324
0.713327
0.713329
0.71333
0.71333
0.713329
0.713328
0.713327
0.713325
0.713324
0.713323
0.713322
0.713321
0.713321
0.712246
0.712204
0.712196
0.712155
0.712142
0.712099
0.712084
0.712033
0.712023
0.71195
0.711968
0.711994
0.711988
0.711993
0.711988
0.71199
0.711987
0.711989
0.711987
0.711989
0.711988
0.711989
0.711988
0.711989
0.71199
0.71199
0.711991
0.711992
0.711993
0.711994
0.711995
0.711996
0.711997
0.711999
0.712001
0.712003
0.712004
0.712007
0.712009
0.712011
0.712014
0.712017
0.71202
0.712023
0.712026
0.71203
0.712033
0.712037
0.712041
0.712045
0.71205
0.712054
0.712059
0.712064
0.712069
0.712069
)
;
    }
    procBoundary2to1
    {
        type            processor;
        value           uniform 0.713322;
    }
    procBoundary2to3
    {
        type            processor;
        value           nonuniform List<scalar> 10(0.713278 0.713251 0.713237 0.713232 0.713231 0.71323 0.713231 0.713231 0.713231 0.713231);
    }
}


// ************************************************************************* //
