/*--------------------------------*- C++ -*----------------------------------*\
| =========                 |                                                 |
| \\      /  F ield         | OpenFOAM: The Open Source CFD Toolbox           |
|  \\    /   O peration     | Version:  4.1                                   |
|   \\  /    A nd           | Web:      www.OpenFOAM.org                      |
|    \\/     M anipulation  |                                                 |
\*---------------------------------------------------------------------------*/
FoamFile
{
    version     2.0;
    format      ascii;
    class       volScalarField;
    location    "1230";
    object      p;
}
// * * * * * * * * * * * * * * * * * * * * * * * * * * * * * * * * * * * * * //

dimensions      [1 -1 -2 0 0 0 0];

internalField   nonuniform List<scalar> 
1275
(
0.714271
0.714274
0.714278
0.71428
0.714285
0.713216
0.713223
0.713231
0.713239
0.713247
0.713255
0.713264
0.713274
0.713284
0.713294
0.713305
0.713316
0.713328
0.71334
0.713353
0.713367
0.71338
0.713395
0.71341
0.713425
0.713442
0.713458
0.713475
0.713493
0.713511
0.71353
0.713549
0.713568
0.713587
0.713607
0.713627
0.713648
0.713668
0.713688
0.713708
0.713728
0.713748
0.713767
0.713786
0.713805
0.713823
0.71384
0.713856
0.713872
0.713887
0.713901
0.713914
0.713927
0.713938
0.713949
0.713959
0.713969
0.713977
0.713985
0.713992
0.713999
0.714005
0.71401
0.714016
0.71402
0.714025
0.714029
0.714033
0.714036
0.71404
0.714043
0.714046
0.71405
0.714053
0.714056
0.714059
0.714062
0.714065
0.714068
0.714072
0.714075
0.714078
0.714082
0.714085
0.714089
0.714093
0.714097
0.7141
0.714104
0.714108
0.714113
0.714117
0.714121
0.714125
0.71413
0.714134
0.714138
0.714143
0.714147
0.714152
0.714156
0.714161
0.714166
0.71417
0.714175
0.714179
0.714184
0.714188
0.714193
0.714198
0.714202
0.714206
0.714211
0.714215
0.71422
0.714224
0.714228
0.714232
0.714236
0.714241
0.714244
0.714249
0.714252
0.714256
0.71426
0.714264
0.714266
0.714271
0.714274
0.714278
0.714281
0.714284
0.713207
0.713214
0.713221
0.713229
0.713237
0.713246
0.713255
0.713264
0.713274
0.713284
0.713294
0.713305
0.713317
0.713329
0.713342
0.713355
0.713368
0.713383
0.713397
0.713413
0.713429
0.713445
0.713463
0.71348
0.713499
0.713518
0.713537
0.713557
0.713577
0.713598
0.713619
0.713641
0.713662
0.713684
0.713706
0.713727
0.713749
0.71377
0.713791
0.713811
0.713831
0.713851
0.713869
0.713887
0.713904
0.71392
0.713935
0.71395
0.713963
0.713975
0.713987
0.713997
0.714007
0.714015
0.714023
0.714031
0.714037
0.714043
0.714048
0.714053
0.714057
0.714061
0.714064
0.714067
0.71407
0.714073
0.714075
0.714078
0.71408
0.714082
0.714084
0.714086
0.714089
0.714091
0.714093
0.714095
0.714098
0.7141
0.714103
0.714106
0.714109
0.714111
0.714114
0.714118
0.714121
0.714124
0.714128
0.714131
0.714135
0.714138
0.714142
0.714146
0.71415
0.714154
0.714158
0.714162
0.714166
0.71417
0.714174
0.714179
0.714183
0.714187
0.714191
0.714196
0.7142
0.714204
0.714208
0.714212
0.714217
0.714221
0.714225
0.714229
0.714233
0.714237
0.714241
0.714245
0.714249
0.714253
0.714256
0.71426
0.714264
0.714267
0.714271
0.714274
0.714277
0.714281
0.714283
0.713202
0.713209
0.713217
0.713224
0.713232
0.713241
0.71325
0.713259
0.713268
0.713278
0.713288
0.713299
0.713311
0.713322
0.713335
0.713348
0.713361
0.713375
0.71339
0.713405
0.713421
0.713437
0.713454
0.713472
0.71349
0.713509
0.713529
0.713549
0.71357
0.713591
0.713613
0.713635
0.713658
0.713681
0.713704
0.713727
0.713749
0.713772
0.713795
0.713817
0.713839
0.71386
0.71388
0.7139
0.713919
0.713937
0.713954
0.71397
0.713985
0.713999
0.714011
0.714023
0.714034
0.714044
0.714052
0.71406
0.714067
0.714073
0.714079
0.714083
0.714088
0.714091
0.714094
0.714097
0.714099
0.714101
0.714103
0.714105
0.714106
0.714108
0.714109
0.71411
0.714111
0.714113
0.714114
0.714116
0.714117
0.714119
0.71412
0.714122
0.714124
0.714126
0.714128
0.714131
0.714133
0.714136
0.714138
0.714141
0.714144
0.714147
0.71415
0.714154
0.714157
0.71416
0.714164
0.714168
0.714171
0.714175
0.714179
0.714183
0.714186
0.71419
0.714194
0.714198
0.714202
0.714206
0.71421
0.714214
0.714218
0.714222
0.714226
0.71423
0.714234
0.714238
0.714242
0.714246
0.714249
0.714253
0.714257
0.71426
0.714264
0.714268
0.714271
0.714275
0.714277
0.714281
0.714282
0.713201
0.713208
0.713215
0.713223
0.713231
0.713239
0.713248
0.713257
0.713266
0.713276
0.713286
0.713297
0.713308
0.71332
0.713332
0.713345
0.713358
0.713372
0.713386
0.713401
0.713417
0.713433
0.71345
0.713468
0.713486
0.713505
0.713525
0.713546
0.713567
0.713588
0.71361
0.713633
0.713656
0.71368
0.713703
0.713727
0.713751
0.713775
0.713799
0.713822
0.713845
0.713868
0.71389
0.713911
0.713932
0.713951
0.71397
0.713987
0.714003
0.714018
0.714033
0.714045
0.714057
0.714068
0.714077
0.714086
0.714093
0.7141
0.714106
0.71411
0.714115
0.714118
0.714121
0.714123
0.714125
0.714127
0.714128
0.714129
0.71413
0.714131
0.714131
0.714132
0.714132
0.714133
0.714133
0.714134
0.714134
0.714135
0.714136
0.714137
0.714138
0.714139
0.714141
0.714142
0.714144
0.714146
0.714148
0.71415
0.714152
0.714155
0.714158
0.71416
0.714163
0.714166
0.714169
0.714172
0.714176
0.714179
0.714182
0.714186
0.714189
0.714193
0.714197
0.7142
0.714204
0.714208
0.714212
0.714215
0.714219
0.714223
0.714227
0.714231
0.714234
0.714238
0.714242
0.714246
0.714249
0.714253
0.714257
0.714261
0.714264
0.714268
0.71427
0.714275
0.714276
0.714282
0.714281
0.713201
0.713208
0.713215
0.713223
0.71323
0.713239
0.713247
0.713256
0.713266
0.713275
0.713286
0.713296
0.713307
0.713319
0.713331
0.713344
0.713357
0.713371
0.713385
0.7134
0.713416
0.713432
0.713449
0.713466
0.713485
0.713504
0.713524
0.713544
0.713565
0.713587
0.713609
0.713632
0.713656
0.713679
0.713704
0.713728
0.713753
0.713777
0.713802
0.713826
0.71385
0.713874
0.713897
0.713919
0.71394
0.713961
0.713981
0.713999
0.714017
0.714033
0.714048
0.714062
0.714074
0.714086
0.714096
0.714105
0.714113
0.71412
0.714126
0.714131
0.714135
0.714139
0.714142
0.714144
0.714146
0.714147
0.714148
0.714148
0.714149
0.714149
0.714149
0.714148
0.714148
0.714148
0.714148
0.714148
0.714148
0.714148
0.714148
0.714149
0.714149
0.71415
0.714151
0.714152
0.714153
0.714154
0.714156
0.714157
0.714159
0.714161
0.714163
0.714166
0.714168
0.714171
0.714173
0.714176
0.714179
0.714182
0.714185
0.714188
0.714192
0.714195
0.714198
0.714202
0.714206
0.714209
0.714213
0.714216
0.71422
0.714224
0.714227
0.714231
0.714235
0.714239
0.714242
0.714246
0.71425
0.714253
0.714257
0.714261
0.714264
0.714268
0.71427
0.714275
0.714276
0.714282
0.714281
0.713201
0.713208
0.713215
0.713223
0.713231
0.713239
0.713248
0.713257
0.713266
0.713276
0.713286
0.713297
0.713308
0.713319
0.713332
0.713344
0.713357
0.713371
0.713385
0.7134
0.713416
0.713432
0.713449
0.713467
0.713485
0.713504
0.713524
0.713545
0.713566
0.713588
0.71361
0.713633
0.713657
0.713681
0.713706
0.71373
0.713755
0.71378
0.713805
0.71383
0.713855
0.713879
0.713902
0.713925
0.713948
0.713969
0.713989
0.714009
0.714027
0.714044
0.714059
0.714074
0.714087
0.714099
0.71411
0.714119
0.714127
0.714135
0.714141
0.714146
0.71415
0.714154
0.714157
0.714159
0.71416
0.714161
0.714162
0.714162
0.714162
0.714162
0.714161
0.714161
0.71416
0.714159
0.714159
0.714158
0.714158
0.714157
0.714157
0.714157
0.714157
0.714157
0.714157
0.714158
0.714159
0.71416
0.714161
0.714162
0.714163
0.714165
0.714167
0.714169
0.714171
0.714173
0.714176
0.714178
0.714181
0.714184
0.714187
0.71419
0.714193
0.714196
0.714199
0.714203
0.714206
0.71421
0.714213
0.714217
0.71422
0.714224
0.714227
0.714231
0.714235
0.714238
0.714242
0.714246
0.714249
0.714253
0.714256
0.714261
0.714263
0.714268
0.71427
0.714275
0.714276
0.714282
0.714281
0.713202
0.713209
0.713216
0.713224
0.713232
0.71324
0.713249
0.713258
0.713267
0.713277
0.713287
0.713298
0.713309
0.71332
0.713333
0.713345
0.713358
0.713372
0.713387
0.713402
0.713417
0.713433
0.71345
0.713468
0.713486
0.713506
0.713525
0.713546
0.713567
0.713589
0.713611
0.713635
0.713658
0.713682
0.713707
0.713732
0.713757
0.713782
0.713807
0.713832
0.713857
0.713882
0.713906
0.713929
0.713952
0.713973
0.713994
0.714014
0.714032
0.71405
0.714066
0.71408
0.714094
0.714106
0.714117
0.714127
0.714136
0.714143
0.714149
0.714155
0.714159
0.714163
0.714165
0.714168
0.714169
0.71417
0.71417
0.71417
0.71417
0.71417
0.714169
0.714168
0.714167
0.714166
0.714165
0.714164
0.714164
0.714163
0.714162
0.714162
0.714162
0.714162
0.714162
0.714162
0.714162
0.714163
0.714164
0.714165
0.714166
0.714168
0.714169
0.714171
0.714173
0.714175
0.714177
0.71418
0.714182
0.714185
0.714188
0.714191
0.714194
0.714197
0.7142
0.714203
0.714207
0.71421
0.714213
0.714217
0.71422
0.714224
0.714228
0.714231
0.714235
0.714238
0.714242
0.714246
0.714249
0.714253
0.714256
0.71426
0.714263
0.714268
0.71427
0.714275
0.714276
0.714282
0.714281
0.713202
0.713209
0.713217
0.713224
0.713232
0.71324
0.713249
0.713258
0.713268
0.713277
0.713288
0.713299
0.71331
0.713321
0.713334
0.713346
0.71336
0.713373
0.713388
0.713403
0.713419
0.713435
0.713452
0.71347
0.713488
0.713508
0.713527
0.713548
0.713569
0.713591
0.713614
0.713637
0.713661
0.713685
0.71371
0.713735
0.71376
0.713785
0.713811
0.713836
0.713861
0.713885
0.713909
0.713933
0.713955
0.713977
0.713998
0.714018
0.714037
0.714054
0.71407
0.714085
0.714099
0.714111
0.714123
0.714132
0.714141
0.714149
0.714155
0.71416
0.714165
0.714168
0.714171
0.714173
0.714174
0.714175
0.714175
0.714175
0.714175
0.714174
0.714173
0.714172
0.714171
0.71417
0.714169
0.714168
0.714167
0.714166
0.714165
0.714165
0.714164
0.714164
0.714164
0.714164
0.714164
0.714165
0.714165
0.714166
0.714167
0.714169
0.71417
0.714172
0.714174
0.714176
0.714178
0.71418
0.714183
0.714185
0.714188
0.714191
0.714194
0.714197
0.7142
0.714203
0.714206
0.71421
0.714213
0.714217
0.71422
0.714224
0.714227
0.714231
0.714234
0.714238
0.714241
0.714245
0.714249
0.714253
0.714256
0.71426
0.714263
0.714267
0.714269
0.714275
0.714276
0.714282
0.714281
0.713203
0.71321
0.713217
0.713225
0.713233
0.713241
0.71325
0.713259
0.713268
0.713278
0.713288
0.713299
0.71331
0.713322
0.713334
0.713347
0.71336
0.713374
0.713389
0.713404
0.71342
0.713436
0.713453
0.713471
0.71349
0.713509
0.713529
0.713549
0.713571
0.713593
0.713615
0.713639
0.713662
0.713687
0.713711
0.713736
0.713761
0.713787
0.713812
0.713837
0.713862
0.713886
0.71391
0.713934
0.713957
0.713978
0.713999
0.714019
0.714038
0.714055
0.714072
0.714087
0.7141
0.714113
0.714124
0.714134
0.714142
0.71415
0.714156
0.714162
0.714166
0.71417
0.714172
0.714174
0.714176
0.714177
0.714177
0.714177
0.714176
0.714176
0.714175
0.714174
0.714173
0.714171
0.71417
0.714169
0.714168
0.714167
0.714166
0.714165
0.714165
0.714165
0.714164
0.714165
0.714165
0.714165
0.714166
0.714167
0.714168
0.714169
0.714171
0.714172
0.714174
0.714176
0.714178
0.71418
0.714183
0.714185
0.714188
0.714191
0.714194
0.714197
0.7142
0.714203
0.714206
0.71421
0.714213
0.714216
0.71422
0.714223
0.714227
0.714231
0.714234
0.714238
0.714241
0.714245
0.714249
0.714252
0.714256
0.71426
0.714263
0.714267
0.714269
0.714275
0.714276
0.714282
0.714282
0.713202
0.713209
0.713217
0.713224
0.713232
0.713241
0.713249
0.713258
0.713268
0.713278
0.713288
0.713299
0.71331
0.713322
0.713334
0.713347
0.713361
0.713375
0.713389
0.713404
0.71342
0.713437
0.713454
0.713472
0.71349
0.71351
0.71353
0.713551
0.713572
0.713594
0.713617
0.71364
0.713664
0.713689
0.713713
0.713738
0.713764
0.713789
0.713814
0.71384
0.713864
0.713889
0.713913
0.713937
0.713959
0.713981
0.714002
0.714022
0.71404
0.714058
0.714074
0.714089
0.714103
0.714115
0.714126
0.714136
0.714145
0.714152
0.714159
0.714164
0.714168
0.714172
0.714174
0.714176
0.714177
0.714178
0.714178
0.714178
0.714178
0.714177
0.714176
0.714175
0.714173
0.714172
0.714171
0.71417
0.714168
0.714167
0.714166
0.714166
0.714165
0.714165
0.714164
0.714164
0.714165
0.714165
0.714166
0.714166
0.714167
0.714169
0.71417
0.714172
0.714173
0.714175
0.714177
0.71418
0.714182
0.714185
0.714187
0.71419
0.714193
0.714196
0.714199
0.714202
0.714206
0.714209
0.714212
0.714216
0.714219
0.714223
0.714226
0.71423
0.714234
0.714237
0.714241
0.714245
0.714248
0.714252
0.714255
0.714259
0.714262
0.714267
0.714269
0.714274
0.714275
0.714282
0.714282
)
;

boundaryField
{
    inlet
    {
        type            zeroGradient;
    }
    outlet
    {
        type            fixedValue;
        value           uniform 0.714286;
    }
    walls
    {
        type            zeroGradient;
    }
    symwall
    {
        type            empty;
    }
    procBoundary3to1
    {
        type            processor;
        value           nonuniform List<scalar> 
128
(
0.714271
0.714273
0.714279
0.71428
0.714287
0.713233
0.71324
0.713247
0.713255
0.713263
0.713271
0.71328
0.71329
0.7133
0.713311
0.713322
0.713333
0.713345
0.713358
0.713371
0.713384
0.713399
0.713413
0.713428
0.713444
0.71346
0.713476
0.713493
0.71351
0.713528
0.713546
0.713564
0.713582
0.713601
0.71362
0.713639
0.713657
0.713676
0.713694
0.713713
0.713731
0.713748
0.713766
0.713782
0.713799
0.713814
0.713829
0.713843
0.713857
0.71387
0.713882
0.713894
0.713904
0.713915
0.713924
0.713933
0.713941
0.713949
0.713956
0.713963
0.713969
0.713975
0.71398
0.713985
0.71399
0.713995
0.713999
0.714004
0.714008
0.714012
0.714016
0.71402
0.714024
0.714028
0.714032
0.714036
0.71404
0.714044
0.714048
0.714053
0.714057
0.714061
0.714065
0.71407
0.714074
0.714079
0.714083
0.714088
0.714092
0.714097
0.714102
0.714107
0.714112
0.714116
0.714121
0.714126
0.714131
0.714136
0.714141
0.714146
0.714151
0.714156
0.714161
0.714166
0.714171
0.714176
0.714181
0.714186
0.71419
0.714195
0.7142
0.714205
0.714209
0.714214
0.714218
0.714223
0.714227
0.714231
0.714236
0.71424
0.714244
0.714248
0.714252
0.714256
0.714259
0.714264
0.714267
0.714267
)
;
    }
    procBoundary3to2
    {
        type            processor;
        value           nonuniform List<scalar> 10(0.71321 0.7132 0.713196 0.713194 0.713194 0.713194 0.713195 0.713195 0.713196 0.713195);
    }
}


// ************************************************************************* //
