/*--------------------------------*- C++ -*----------------------------------*\
| =========                 |                                                 |
| \\      /  F ield         | OpenFOAM: The Open Source CFD Toolbox           |
|  \\    /   O peration     | Version:  4.1                                   |
|   \\  /    A nd           | Web:      www.OpenFOAM.org                      |
|    \\/     M anipulation  |                                                 |
\*---------------------------------------------------------------------------*/
FoamFile
{
    version     2.0;
    format      ascii;
    class       volScalarField;
    location    "295";
    object      p;
}
// * * * * * * * * * * * * * * * * * * * * * * * * * * * * * * * * * * * * * //

dimensions      [1 -1 -2 0 0 0 0];

internalField   nonuniform List<scalar> 
3264
(
0.712501
0.712499
0.712498
0.712497
0.712497
0.712498
0.712499
0.712501
0.712503
0.712507
0.712511
0.712516
0.712522
0.712528
0.712536
0.712545
0.712554
0.712565
0.712577
0.71259
0.712604
0.71262
0.712637
0.712656
0.712678
0.712701
0.712727
0.712756
0.712788
0.712823
0.712862
0.712905
0.712951
0.713001
0.713055
0.713113
0.713175
0.713241
0.71331
0.713382
0.713457
0.713533
0.713612
0.713691
0.71377
0.713849
0.713926
0.714002
0.714075
0.714145
0.714211
0.714273
0.71433
0.714382
0.714429
0.71447
0.714506
0.714537
0.714562
0.714582
0.714598
0.71461
0.714618
0.714623
0.714625
0.714625
0.714623
0.71462
0.714616
0.714612
0.714608
0.714604
0.714601
0.714598
0.714596
0.714595
0.714594
0.714595
0.714596
0.714598
0.7146
0.714603
0.714607
0.71461
0.714614
0.714617
0.714621
0.714624
0.714627
0.71463
0.714633
0.714635
0.714638
0.71464
0.714641
0.714643
0.714644
0.714645
0.714646
0.714647
0.714648
0.714649
0.71465
0.714651
0.714652
0.714653
0.714654
0.714656
0.714658
0.714661
0.714664
0.714668
0.714673
0.714678
0.714683
0.71469
0.714697
0.714705
0.714713
0.714721
0.71473
0.714739
0.714748
0.714757
0.714766
0.714775
0.714783
0.71479
0.714797
0.714802
0.714807
0.714811
0.714813
0.714815
0.714815
0.714815
0.714813
0.714811
0.714807
0.714803
0.714798
0.714792
0.714786
0.714779
0.714772
0.714765
0.714757
0.714749
0.714741
0.714734
0.714726
0.714718
0.71471
0.714702
0.714695
0.714687
0.714679
0.714672
0.714665
0.714657
0.71465
0.714642
0.714635
0.714627
0.71462
0.714612
0.714604
0.714596
0.714588
0.714579
0.714571
0.714562
0.714553
0.714544
0.714535
0.714525
0.714516
0.714506
0.714496
0.714487
0.714477
0.714467
0.714457
0.714447
0.714437
0.714427
0.714417
0.714407
0.714398
0.714388
0.714378
0.714368
0.714358
0.714349
0.714339
0.714329
0.71432
0.71431
0.7143
0.714291
0.712502
0.712501
0.7125
0.7125
0.7125
0.7125
0.712501
0.712503
0.712506
0.712509
0.712513
0.712518
0.712524
0.71253
0.712538
0.712547
0.712556
0.712567
0.712579
0.712592
0.712606
0.712622
0.712639
0.712658
0.712679
0.712702
0.712728
0.712756
0.712788
0.712822
0.71286
0.712902
0.712948
0.712997
0.713051
0.713108
0.713169
0.713235
0.713303
0.713375
0.713449
0.713525
0.713603
0.713682
0.713761
0.713839
0.713917
0.713993
0.714066
0.714136
0.714202
0.714264
0.714321
0.714373
0.71442
0.714462
0.714498
0.714529
0.714554
0.714575
0.714591
0.714603
0.714612
0.714617
0.714619
0.71462
0.714619
0.714616
0.714613
0.71461
0.714607
0.714604
0.714601
0.714599
0.714598
0.714597
0.714597
0.714598
0.7146
0.714602
0.714605
0.714608
0.714611
0.714614
0.714618
0.714621
0.714624
0.714627
0.71463
0.714633
0.714636
0.714638
0.71464
0.714642
0.714643
0.714645
0.714646
0.714647
0.714648
0.714648
0.714649
0.71465
0.71465
0.714651
0.714652
0.714653
0.714654
0.714656
0.714658
0.71466
0.714663
0.714667
0.714671
0.714676
0.714682
0.714688
0.714695
0.714702
0.71471
0.714719
0.714728
0.714737
0.714746
0.714755
0.714764
0.714772
0.71478
0.714788
0.714794
0.7148
0.714805
0.714809
0.714812
0.714814
0.714814
0.714814
0.714812
0.71481
0.714807
0.714803
0.714798
0.714792
0.714786
0.714779
0.714772
0.714765
0.714757
0.71475
0.714742
0.714734
0.714726
0.714718
0.71471
0.714702
0.714695
0.714687
0.714679
0.714672
0.714664
0.714657
0.71465
0.714642
0.714635
0.714627
0.71462
0.714612
0.714604
0.714596
0.714588
0.714579
0.714571
0.714562
0.714553
0.714544
0.714535
0.714525
0.714516
0.714506
0.714496
0.714487
0.714477
0.714467
0.714457
0.714447
0.714437
0.714427
0.714417
0.714407
0.714398
0.714388
0.714378
0.714368
0.714358
0.714349
0.714339
0.714329
0.71432
0.71431
0.7143
0.714291
0.712504
0.712502
0.7125
0.7125
0.7125
0.7125
0.712501
0.712502
0.712505
0.712508
0.712512
0.712517
0.712523
0.712529
0.712537
0.712546
0.712555
0.712566
0.712578
0.71259
0.712604
0.71262
0.712637
0.712656
0.712676
0.712699
0.712724
0.712752
0.712783
0.712817
0.712855
0.712896
0.712941
0.71299
0.713043
0.713101
0.713162
0.713227
0.713295
0.713366
0.71344
0.713517
0.713594
0.713673
0.713752
0.71383
0.713908
0.713983
0.714056
0.714126
0.714192
0.714254
0.714311
0.714363
0.714409
0.714451
0.714487
0.714517
0.714543
0.714563
0.71458
0.714592
0.7146
0.714606
0.714608
0.714609
0.714608
0.714606
0.714604
0.714601
0.714598
0.714595
0.714593
0.714592
0.714591
0.714591
0.714592
0.714594
0.714597
0.7146
0.714603
0.714607
0.714611
0.714615
0.714619
0.714623
0.714627
0.71463
0.714633
0.714636
0.714638
0.71464
0.714642
0.714643
0.714645
0.714646
0.714647
0.714648
0.714649
0.714649
0.71465
0.714651
0.714651
0.714652
0.714652
0.714653
0.714654
0.714656
0.714658
0.71466
0.714663
0.714666
0.71467
0.714675
0.714681
0.714687
0.714694
0.714701
0.714709
0.714717
0.714726
0.714735
0.714744
0.714753
0.714762
0.714771
0.714779
0.714786
0.714793
0.714799
0.714804
0.714808
0.714811
0.714812
0.714813
0.714813
0.714812
0.714809
0.714806
0.714802
0.714797
0.714792
0.714786
0.714779
0.714772
0.714765
0.714757
0.71475
0.714742
0.714734
0.714726
0.714718
0.71471
0.714702
0.714695
0.714687
0.71468
0.714672
0.714665
0.714657
0.71465
0.714642
0.714635
0.714627
0.71462
0.714612
0.714604
0.714596
0.714588
0.714579
0.714571
0.714562
0.714553
0.714544
0.714535
0.714525
0.714516
0.714506
0.714496
0.714487
0.714477
0.714467
0.714457
0.714447
0.714437
0.714427
0.714417
0.714407
0.714397
0.714388
0.714378
0.714368
0.714358
0.714349
0.714339
0.714329
0.71432
0.71431
0.7143
0.714291
0.712498
0.712498
0.712496
0.712497
0.712497
0.712497
0.712498
0.7125
0.712502
0.712506
0.71251
0.712515
0.712521
0.712527
0.712535
0.712544
0.712554
0.712564
0.712576
0.712588
0.712602
0.712618
0.712634
0.712652
0.712673
0.712695
0.71272
0.712747
0.712777
0.712811
0.712848
0.712888
0.712933
0.712982
0.713034
0.713091
0.713152
0.713216
0.713284
0.713355
0.713429
0.713504
0.713582
0.71366
0.713738
0.713816
0.713892
0.713967
0.714039
0.714108
0.714173
0.714233
0.714289
0.71434
0.714386
0.714426
0.714461
0.714491
0.714515
0.714535
0.714551
0.714563
0.714571
0.714576
0.714579
0.71458
0.71458
0.714579
0.714577
0.714576
0.714574
0.714573
0.714572
0.714572
0.714573
0.714575
0.714577
0.714581
0.714585
0.714589
0.714594
0.7146
0.714605
0.714611
0.714616
0.714622
0.714627
0.714631
0.714635
0.714638
0.714642
0.714644
0.714646
0.714648
0.714649
0.71465
0.714651
0.714651
0.714652
0.714652
0.714653
0.714653
0.714653
0.714654
0.714654
0.714655
0.714656
0.714657
0.714659
0.714661
0.714663
0.714666
0.71467
0.714675
0.71468
0.714686
0.714693
0.7147
0.714708
0.714716
0.714724
0.714733
0.714742
0.714751
0.71476
0.714768
0.714776
0.714783
0.71479
0.714796
0.714801
0.714805
0.714808
0.714809
0.71481
0.71481
0.714809
0.714807
0.714804
0.7148
0.714795
0.71479
0.714784
0.714778
0.714771
0.714764
0.714757
0.714749
0.714741
0.714734
0.714726
0.714718
0.714711
0.714703
0.714695
0.714688
0.71468
0.714673
0.714665
0.714658
0.71465
0.714643
0.714635
0.714628
0.71462
0.714612
0.714604
0.714596
0.714588
0.714579
0.714571
0.714562
0.714553
0.714544
0.714535
0.714525
0.714516
0.714506
0.714496
0.714487
0.714477
0.714467
0.714457
0.714447
0.714437
0.714427
0.714417
0.714407
0.714397
0.714388
0.714378
0.714368
0.714358
0.714349
0.714339
0.714329
0.71432
0.71431
0.7143
0.714291
0.712495
0.712495
0.712493
0.712493
0.712492
0.712492
0.712493
0.712495
0.712498
0.712501
0.712506
0.712511
0.712517
0.712524
0.712532
0.712541
0.712551
0.712561
0.712573
0.712586
0.712599
0.712614
0.712631
0.712649
0.712669
0.712691
0.712715
0.712742
0.712772
0.712806
0.712842
0.712883
0.712927
0.712976
0.713028
0.713085
0.713145
0.713209
0.713276
0.713347
0.71342
0.713494
0.713571
0.713647
0.713724
0.713801
0.713875
0.713948
0.714018
0.714084
0.714147
0.714205
0.714259
0.714307
0.71435
0.714388
0.71442
0.714448
0.71447
0.714489
0.714503
0.714514
0.714521
0.714526
0.714529
0.714531
0.714531
0.714531
0.71453
0.71453
0.71453
0.71453
0.714532
0.714534
0.714537
0.714541
0.714546
0.714551
0.714558
0.714565
0.714573
0.714581
0.714589
0.714597
0.714605
0.714613
0.71462
0.714627
0.714633
0.714639
0.714643
0.714647
0.714651
0.714653
0.714655
0.714657
0.714658
0.714659
0.714659
0.71466
0.71466
0.71466
0.71466
0.71466
0.71466
0.71466
0.714661
0.714661
0.714663
0.714664
0.714667
0.71467
0.714673
0.714677
0.714682
0.714688
0.714694
0.714701
0.714708
0.714716
0.714724
0.714733
0.714741
0.714749
0.714758
0.714766
0.714773
0.71478
0.714786
0.714791
0.714796
0.7148
0.714802
0.714804
0.714805
0.714804
0.714803
0.714801
0.714798
0.714795
0.71479
0.714786
0.71478
0.714774
0.714768
0.714762
0.714755
0.714748
0.714741
0.714733
0.714726
0.714718
0.714711
0.714704
0.714696
0.714689
0.714681
0.714674
0.714666
0.714659
0.714651
0.714644
0.714636
0.714628
0.714621
0.714613
0.714605
0.714596
0.714588
0.714579
0.714571
0.714562
0.714553
0.714544
0.714534
0.714525
0.714515
0.714506
0.714496
0.714486
0.714476
0.714467
0.714457
0.714447
0.714437
0.714427
0.714417
0.714407
0.714397
0.714388
0.714378
0.714368
0.714358
0.714349
0.714339
0.714329
0.71432
0.71431
0.7143
0.714291
0.712463
0.712478
0.712478
0.712484
0.712485
0.712487
0.712489
0.712492
0.712495
0.712499
0.712504
0.712509
0.712515
0.712523
0.712531
0.71254
0.712549
0.71256
0.712572
0.712584
0.712598
0.712613
0.71263
0.712648
0.712668
0.71269
0.712714
0.712741
0.712771
0.712804
0.712841
0.712882
0.712926
0.712975
0.713027
0.713083
0.713143
0.713207
0.713274
0.713343
0.713415
0.713488
0.713562
0.713637
0.713712
0.713785
0.713857
0.713926
0.713993
0.714055
0.714114
0.714168
0.714217
0.714261
0.7143
0.714334
0.714363
0.714387
0.714406
0.714422
0.714434
0.714443
0.71445
0.714454
0.714457
0.714459
0.714461
0.714462
0.714463
0.714465
0.714467
0.71447
0.714474
0.714479
0.714485
0.714492
0.7145
0.714508
0.714518
0.714528
0.714539
0.71455
0.714561
0.714573
0.714584
0.714596
0.714606
0.714617
0.714626
0.714635
0.714642
0.714649
0.714655
0.71466
0.714664
0.714667
0.71467
0.714672
0.714673
0.714673
0.714673
0.714673
0.714673
0.714673
0.714673
0.714672
0.714672
0.714673
0.714673
0.714675
0.714676
0.714679
0.714681
0.714685
0.714689
0.714694
0.7147
0.714706
0.714712
0.714719
0.714726
0.714734
0.714741
0.714749
0.714756
0.714763
0.714769
0.714775
0.714781
0.714785
0.714789
0.714792
0.714794
0.714795
0.714796
0.714795
0.714794
0.714792
0.71479
0.714786
0.714783
0.714779
0.714774
0.714769
0.714763
0.714758
0.714752
0.714745
0.714739
0.714732
0.714726
0.714719
0.714712
0.714705
0.714698
0.71469
0.714683
0.714676
0.714668
0.714661
0.714653
0.714645
0.714638
0.71463
0.714622
0.714614
0.714605
0.714597
0.714588
0.71458
0.714571
0.714562
0.714553
0.714543
0.714534
0.714525
0.714515
0.714505
0.714496
0.714486
0.714476
0.714466
0.714456
0.714447
0.714437
0.714427
0.714417
0.714407
0.714397
0.714388
0.714378
0.714368
0.714358
0.714349
0.714339
0.714329
0.71432
0.71431
0.7143
0.714291
0.712463
0.712479
0.712477
0.712481
0.712481
0.712484
0.712486
0.712489
0.712493
0.712497
0.712502
0.712508
0.712515
0.712522
0.71253
0.71254
0.712549
0.71256
0.712572
0.712585
0.712599
0.712614
0.712631
0.71265
0.71267
0.712693
0.712718
0.712746
0.712776
0.71281
0.712848
0.712889
0.712934
0.712983
0.713035
0.713092
0.713152
0.713215
0.71328
0.713349
0.713419
0.71349
0.713562
0.713634
0.713705
0.713774
0.713841
0.713906
0.713967
0.714024
0.714077
0.714125
0.714168
0.714207
0.71424
0.714268
0.714292
0.714312
0.714327
0.71434
0.71435
0.714357
0.714363
0.714367
0.714371
0.714374
0.714377
0.71438
0.714384
0.714388
0.714393
0.714399
0.714407
0.714415
0.714424
0.714434
0.714445
0.714457
0.71447
0.714483
0.714497
0.714512
0.714527
0.714542
0.714557
0.714572
0.714587
0.714601
0.714614
0.714627
0.714639
0.714649
0.714659
0.714667
0.714674
0.71468
0.714685
0.714689
0.714692
0.714693
0.714695
0.714695
0.714695
0.714695
0.714695
0.714694
0.714694
0.714694
0.714694
0.714694
0.714695
0.714696
0.714698
0.7147
0.714704
0.714707
0.714711
0.714716
0.714721
0.714727
0.714733
0.714739
0.714745
0.71475
0.714756
0.714761
0.714766
0.714771
0.714775
0.714778
0.71478
0.714782
0.714783
0.714784
0.714784
0.714783
0.714782
0.71478
0.714778
0.714775
0.714772
0.714769
0.714765
0.714761
0.714756
0.714752
0.714747
0.714742
0.714736
0.714731
0.714725
0.714719
0.714713
0.714706
0.714699
0.714693
0.714685
0.714678
0.714671
0.714663
0.714656
0.714648
0.71464
0.714632
0.714623
0.714615
0.714606
0.714598
0.714589
0.71458
0.714571
0.714562
0.714552
0.714543
0.714534
0.714524
0.714514
0.714505
0.714495
0.714485
0.714476
0.714466
0.714456
0.714446
0.714436
0.714427
0.714417
0.714407
0.714397
0.714388
0.714378
0.714368
0.714358
0.714349
0.714339
0.714329
0.71432
0.71431
0.7143
0.714291
0.712308
0.712446
0.712464
0.712485
0.712488
0.712491
0.712493
0.712495
0.712498
0.712502
0.712507
0.712512
0.712519
0.712526
0.712534
0.712543
0.712554
0.712565
0.712577
0.712591
0.712605
0.712622
0.712639
0.712659
0.71268
0.712704
0.712731
0.71276
0.712792
0.712828
0.712867
0.712909
0.712955
0.713005
0.713058
0.713115
0.713174
0.713237
0.713302
0.713368
0.713436
0.713504
0.713573
0.71364
0.713707
0.713771
0.713832
0.71389
0.713944
0.713994
0.714039
0.71408
0.714116
0.714147
0.714173
0.714196
0.714214
0.714229
0.714241
0.714251
0.714259
0.714266
0.714271
0.714277
0.714282
0.714287
0.714293
0.714299
0.714306
0.714313
0.714322
0.714331
0.714342
0.714353
0.714365
0.714378
0.714393
0.714408
0.714423
0.71444
0.714457
0.714475
0.714493
0.714512
0.71453
0.714549
0.714567
0.714585
0.714602
0.714618
0.714634
0.714649
0.714662
0.714674
0.714685
0.714694
0.714702
0.714709
0.714714
0.714719
0.714722
0.714724
0.714725
0.714726
0.714726
0.714725
0.714725
0.714724
0.714723
0.714723
0.714723
0.714723
0.714724
0.714725
0.714726
0.714728
0.714731
0.714733
0.714737
0.71474
0.714744
0.714747
0.714751
0.714755
0.714758
0.714761
0.714764
0.714766
0.714768
0.714769
0.71477
0.714771
0.714771
0.71477
0.714769
0.714768
0.714767
0.714765
0.714763
0.714761
0.714759
0.714756
0.714754
0.714751
0.714748
0.714745
0.714741
0.714737
0.714733
0.714729
0.714724
0.714719
0.714714
0.714708
0.714702
0.714695
0.714689
0.714681
0.714674
0.714667
0.714659
0.714651
0.714642
0.714634
0.714625
0.714617
0.714608
0.714599
0.71459
0.71458
0.714571
0.714562
0.714552
0.714543
0.714533
0.714523
0.714514
0.714504
0.714494
0.714485
0.714475
0.714465
0.714456
0.714446
0.714436
0.714426
0.714417
0.714407
0.714397
0.714388
0.714378
0.714368
0.714359
0.714349
0.714339
0.714329
0.71432
0.71431
0.7143
0.714291
0.713036
0.71298
0.712918
0.712851
0.712778
0.7127
0.712613
0.712494
0.713043
0.712996
0.712934
0.712864
0.712791
0.712713
0.712623
0.712526
0.713047
0.713008
0.71295
0.712884
0.712815
0.712744
0.712673
0.712603
0.713057
0.713023
0.71297
0.712909
0.712845
0.712781
0.712717
0.712659
0.71307
0.713038
0.712989
0.712932
0.712873
0.712816
0.712762
0.712714
0.713084
0.713051
0.713003
0.712949
0.712895
0.712843
0.712796
0.712753
0.7131
0.713062
0.713012
0.71296
0.712909
0.712861
0.712817
0.712777
0.713107
0.71306
0.71301
0.71296
0.712912
0.712866
0.712824
0.712784
0.712432
0.712452
0.712473
0.712484
0.71249
0.712493
0.712496
0.712499
0.712502
0.712506
0.712511
0.712517
0.712524
0.712532
0.712541
0.712551
0.712562
0.712574
0.712588
0.712603
0.712619
0.712637
0.712657
0.712678
0.712702
0.712729
0.712757
0.712789
0.712824
0.712862
0.712903
0.712948
0.712996
0.713047
0.713101
0.713158
0.713218
0.713279
0.713342
0.713407
0.713471
0.713536
0.713599
0.713661
0.713721
0.713778
0.713831
0.713881
0.713927
0.713968
0.714004
0.714037
0.714064
0.714088
0.714108
0.714124
0.714138
0.71415
0.71416
0.714168
0.714176
0.714184
0.714191
0.714198
0.714206
0.714214
0.714223
0.714233
0.714243
0.714253
0.714265
0.714277
0.714291
0.714304
0.714319
0.714335
0.714351
0.714369
0.714387
0.714406
0.714425
0.714445
0.714466
0.714487
0.714508
0.71453
0.714551
0.714572
0.714592
0.714612
0.714631
0.71465
0.714667
0.714682
0.714697
0.714709
0.714721
0.714731
0.714739
0.714746
0.714751
0.714755
0.714758
0.71476
0.714761
0.714762
0.714761
0.714761
0.71476
0.714759
0.714758
0.714757
0.714756
0.714755
0.714755
0.714755
0.714755
0.714756
0.714757
0.714758
0.714759
0.71476
0.71476
0.714761
0.714762
0.714762
0.714762
0.714762
0.714762
0.714761
0.71476
0.714759
0.714757
0.714756
0.714754
0.714752
0.714751
0.714749
0.714748
0.714746
0.714745
0.714744
0.714742
0.714741
0.714739
0.714737
0.714735
0.714733
0.71473
0.714727
0.714724
0.714719
0.714715
0.71471
0.714704
0.714698
0.714692
0.714685
0.714678
0.71467
0.714662
0.714654
0.714645
0.714637
0.714628
0.714619
0.714609
0.7146
0.71459
0.714581
0.714571
0.714562
0.714552
0.714542
0.714532
0.714523
0.714513
0.714503
0.714494
0.714484
0.714474
0.714465
0.714455
0.714445
0.714436
0.714426
0.714417
0.714407
0.714397
0.714388
0.714378
0.714368
0.714359
0.714349
0.714339
0.71433
0.71432
0.71431
0.714301
0.714291
0.712454
0.712464
0.712477
0.712489
0.712497
0.712502
0.712506
0.712509
0.712513
0.712517
0.712523
0.712529
0.712537
0.712545
0.712555
0.712567
0.712579
0.712593
0.712609
0.712626
0.712644
0.712665
0.712688
0.712712
0.71274
0.712769
0.712802
0.712837
0.712875
0.712916
0.71296
0.713007
0.713058
0.71311
0.713165
0.713223
0.713281
0.713342
0.713402
0.713463
0.713523
0.713582
0.713639
0.713694
0.713745
0.713793
0.713837
0.713878
0.713914
0.713945
0.713973
0.713997
0.714018
0.714035
0.71405
0.714063
0.714074
0.714085
0.714095
0.714105
0.714114
0.714124
0.714134
0.714144
0.714155
0.714166
0.714178
0.71419
0.714203
0.714216
0.714229
0.714244
0.714259
0.714274
0.714291
0.714308
0.714325
0.714344
0.714364
0.714384
0.714405
0.714426
0.714449
0.714472
0.714495
0.714518
0.714542
0.714565
0.714588
0.714611
0.714632
0.714653
0.714673
0.714692
0.714709
0.714725
0.71474
0.714752
0.714763
0.714773
0.714781
0.714787
0.714792
0.714795
0.714797
0.714798
0.714799
0.714798
0.714797
0.714796
0.714794
0.714792
0.71479
0.714788
0.714786
0.714784
0.714782
0.71478
0.714778
0.714776
0.714774
0.714773
0.714771
0.714768
0.714766
0.714764
0.714761
0.714758
0.714755
0.714752
0.71475
0.714747
0.714744
0.714741
0.714739
0.714737
0.714736
0.714734
0.714733
0.714733
0.714732
0.714732
0.714732
0.714732
0.714731
0.714731
0.71473
0.714729
0.714728
0.714726
0.714723
0.71472
0.714716
0.714712
0.714707
0.714702
0.714695
0.714689
0.714682
0.714674
0.714666
0.714657
0.714648
0.714639
0.71463
0.714621
0.714611
0.714601
0.714591
0.714581
0.714572
0.714562
0.714552
0.714542
0.714532
0.714522
0.714512
0.714503
0.714493
0.714483
0.714474
0.714464
0.714455
0.714445
0.714435
0.714426
0.714416
0.714407
0.714397
0.714388
0.714378
0.714368
0.714359
0.714349
0.714339
0.71433
0.71432
0.71431
0.714301
0.714291
0.71255
0.712526
0.71252
0.71252
0.712521
0.712523
0.712525
0.712527
0.712531
0.712535
0.71254
0.712547
0.712556
0.712565
0.712577
0.71259
0.712604
0.71262
0.712638
0.712658
0.71268
0.712704
0.712731
0.712759
0.71279
0.712824
0.712861
0.7129
0.712942
0.712987
0.713034
0.713084
0.713136
0.71319
0.713245
0.713302
0.713359
0.713416
0.713473
0.713528
0.713582
0.713634
0.713683
0.713729
0.713771
0.713809
0.713844
0.713874
0.713901
0.713925
0.713945
0.713963
0.71398
0.713994
0.714008
0.71402
0.714033
0.714044
0.714056
0.714068
0.71408
0.714092
0.714104
0.714117
0.71413
0.714143
0.714156
0.714169
0.714183
0.714198
0.714212
0.714227
0.714243
0.714259
0.714276
0.714294
0.714313
0.714332
0.714352
0.714373
0.714395
0.714417
0.714441
0.714465
0.714489
0.714514
0.714539
0.714563
0.714588
0.714613
0.714636
0.71466
0.714682
0.714703
0.714722
0.71474
0.714757
0.714772
0.714785
0.714797
0.714806
0.714814
0.714821
0.714826
0.714829
0.714831
0.714832
0.714832
0.714831
0.714829
0.714827
0.714824
0.714821
0.714817
0.714813
0.71481
0.714806
0.714801
0.714797
0.714793
0.714788
0.714784
0.714779
0.714774
0.714769
0.714764
0.714759
0.714754
0.71475
0.714745
0.71474
0.714736
0.714733
0.71473
0.714727
0.714725
0.714723
0.714722
0.714722
0.714722
0.714722
0.714723
0.714724
0.714725
0.714726
0.714726
0.714727
0.714727
0.714726
0.714725
0.714724
0.714721
0.714718
0.714714
0.71471
0.714705
0.714699
0.714692
0.714685
0.714677
0.714669
0.71466
0.714651
0.714642
0.714632
0.714622
0.714612
0.714602
0.714592
0.714582
0.714572
0.714562
0.714552
0.714541
0.714532
0.714522
0.714512
0.714502
0.714492
0.714483
0.714473
0.714464
0.714454
0.714445
0.714435
0.714426
0.714416
0.714407
0.714397
0.714388
0.714378
0.714368
0.714359
0.714349
0.714339
0.71433
0.71432
0.71431
0.714301
0.714291
0.712613
0.712585
0.712571
0.712563
0.712559
0.712556
0.712555
0.712555
0.712557
0.71256
0.712565
0.712572
0.71258
0.712591
0.712603
0.712617
0.712634
0.712652
0.712673
0.712696
0.712721
0.712748
0.712778
0.712811
0.712846
0.712884
0.712924
0.712967
0.713013
0.713061
0.713111
0.713162
0.713215
0.713269
0.713324
0.713379
0.713432
0.713485
0.713537
0.713586
0.713632
0.713676
0.713716
0.713752
0.713785
0.713815
0.713842
0.713866
0.713888
0.713908
0.713925
0.713942
0.713957
0.713971
0.713985
0.713998
0.714012
0.714026
0.714039
0.714053
0.714066
0.71408
0.714094
0.714107
0.714121
0.714134
0.714148
0.714162
0.714177
0.714191
0.714206
0.714222
0.714238
0.714254
0.714272
0.71429
0.714308
0.714328
0.714348
0.71437
0.714392
0.714415
0.714439
0.714464
0.714489
0.714514
0.71454
0.714566
0.714592
0.714617
0.714643
0.714667
0.714691
0.714713
0.714734
0.714754
0.714772
0.714788
0.714803
0.714816
0.714827
0.714836
0.714844
0.71485
0.714854
0.714856
0.714858
0.714858
0.714857
0.714855
0.714852
0.714848
0.714844
0.714839
0.714834
0.714829
0.714823
0.714817
0.714811
0.714804
0.714798
0.714791
0.714784
0.714777
0.71477
0.714764
0.714757
0.714751
0.714745
0.714739
0.714734
0.714729
0.714725
0.714721
0.714719
0.714717
0.714715
0.714715
0.714715
0.714715
0.714716
0.714718
0.714719
0.714721
0.714722
0.714724
0.714725
0.714726
0.714726
0.714725
0.714724
0.714722
0.71472
0.714716
0.714712
0.714707
0.714701
0.714695
0.714688
0.71468
0.714671
0.714662
0.714653
0.714644
0.714634
0.714624
0.714613
0.714603
0.714593
0.714582
0.714572
0.714562
0.714551
0.714541
0.714531
0.714521
0.714511
0.714502
0.714492
0.714482
0.714473
0.714463
0.714454
0.714444
0.714435
0.714426
0.714416
0.714407
0.714397
0.714388
0.714378
0.714368
0.714359
0.714349
0.714339
0.71433
0.71432
0.71431
0.714301
0.714291
0.712675
0.712646
0.712626
0.712612
0.712602
0.712595
0.712589
0.712586
0.712585
0.712587
0.71259
0.712596
0.712605
0.712615
0.712629
0.712644
0.712662
0.712682
0.712705
0.712731
0.712759
0.712789
0.712822
0.712858
0.712897
0.712938
0.712981
0.713027
0.713075
0.713124
0.713175
0.713227
0.71328
0.713332
0.713384
0.713435
0.713484
0.713531
0.713577
0.71362
0.71366
0.713697
0.713731
0.713761
0.713789
0.713813
0.713835
0.713856
0.713875
0.713893
0.71391
0.713928
0.713944
0.713961
0.713977
0.713992
0.714007
0.714022
0.714036
0.71405
0.714063
0.714077
0.714091
0.714104
0.714118
0.714132
0.714146
0.71416
0.714175
0.71419
0.714205
0.714221
0.714237
0.714254
0.714271
0.714289
0.714308
0.714328
0.714349
0.71437
0.714393
0.714416
0.714441
0.714466
0.714491
0.714517
0.714544
0.71457
0.714597
0.714623
0.714649
0.714674
0.714698
0.714721
0.714743
0.714764
0.714783
0.7148
0.714816
0.714829
0.714841
0.714851
0.714859
0.714865
0.71487
0.714873
0.714874
0.714875
0.714873
0.714871
0.714868
0.714864
0.714859
0.714853
0.714847
0.71484
0.714833
0.714826
0.714818
0.714811
0.714803
0.714794
0.714786
0.714778
0.71477
0.714763
0.714755
0.714748
0.714741
0.714735
0.714729
0.714725
0.71472
0.714717
0.714714
0.714712
0.714711
0.714711
0.714711
0.714712
0.714713
0.714715
0.714717
0.714719
0.714721
0.714723
0.714724
0.714725
0.714726
0.714726
0.714725
0.714723
0.714721
0.714718
0.714714
0.714709
0.714703
0.714696
0.714689
0.714681
0.714673
0.714664
0.714654
0.714645
0.714634
0.714624
0.714614
0.714603
0.714593
0.714582
0.714572
0.714562
0.714551
0.714541
0.714531
0.714521
0.714511
0.714501
0.714492
0.714482
0.714473
0.714463
0.714454
0.714444
0.714435
0.714425
0.714416
0.714407
0.714397
0.714388
0.714378
0.714368
0.714359
0.714349
0.714339
0.71433
0.71432
0.71431
0.714301
0.714291
0.712717
0.712688
0.712666
0.712648
0.712633
0.712622
0.712613
0.712607
0.712604
0.712604
0.712607
0.712612
0.71262
0.712632
0.712645
0.712662
0.712681
0.712703
0.712727
0.712754
0.712784
0.712817
0.712852
0.712889
0.71293
0.712972
0.713017
0.713063
0.713112
0.713162
0.713212
0.713263
0.713314
0.713364
0.713413
0.71346
0.713506
0.713549
0.713589
0.713627
0.713662
0.713694
0.713723
0.71375
0.713776
0.7138
0.713824
0.713847
0.713869
0.713889
0.713909
0.713927
0.713943
0.71396
0.713975
0.71399
0.714005
0.714019
0.714034
0.714048
0.714062
0.714076
0.71409
0.714104
0.714118
0.714132
0.714146
0.714161
0.714175
0.71419
0.714206
0.714221
0.714238
0.714255
0.714272
0.714291
0.71431
0.71433
0.714351
0.714373
0.714396
0.71442
0.714444
0.714469
0.714495
0.714521
0.714548
0.714575
0.714602
0.714628
0.714654
0.71468
0.714705
0.714728
0.71475
0.714771
0.714791
0.714808
0.714824
0.714838
0.71485
0.71486
0.714868
0.714875
0.714879
0.714882
0.714883
0.714883
0.714882
0.714879
0.714875
0.714871
0.714865
0.714859
0.714852
0.714845
0.714837
0.714829
0.714821
0.714812
0.714804
0.714795
0.714786
0.714778
0.714769
0.714761
0.714754
0.714746
0.71474
0.714733
0.714728
0.714723
0.714719
0.714715
0.714713
0.714711
0.71471
0.71471
0.71471
0.714711
0.714713
0.714715
0.714717
0.714719
0.714721
0.714723
0.714725
0.714726
0.714726
0.714726
0.714726
0.714724
0.714722
0.714718
0.714714
0.714709
0.714704
0.714697
0.71469
0.714682
0.714673
0.714664
0.714655
0.714645
0.714635
0.714624
0.714614
0.714603
0.714593
0.714582
0.714572
0.714562
0.714551
0.714541
0.714531
0.714521
0.714511
0.714501
0.714492
0.714482
0.714473
0.714463
0.714454
0.714444
0.714435
0.714425
0.714416
0.714407
0.714397
0.714388
0.714378
0.714368
0.714359
0.714349
0.714339
0.71433
0.71432
0.71431
0.714301
0.714291
0.712743
0.712713
0.712688
0.712667
0.71265
0.712635
0.712625
0.712617
0.712613
0.712612
0.712615
0.71262
0.712629
0.71264
0.712654
0.712671
0.712691
0.712714
0.712739
0.712767
0.712797
0.71283
0.712866
0.712904
0.712945
0.712988
0.713032
0.713079
0.713126
0.713175
0.713224
0.713273
0.713321
0.713368
0.713413
0.713457
0.713499
0.71354
0.713579
0.713617
0.713653
0.713687
0.713719
0.713749
0.713776
0.713801
0.713825
0.713847
0.713867
0.713887
0.713906
0.713923
0.713941
0.713957
0.713973
0.713989
0.714004
0.714019
0.714034
0.714048
0.714062
0.714076
0.71409
0.714104
0.714118
0.714132
0.714146
0.714161
0.714176
0.714191
0.714206
0.714222
0.714239
0.714256
0.714274
0.714292
0.714312
0.714332
0.714353
0.714375
0.714398
0.714422
0.714447
0.714472
0.714498
0.714525
0.714551
0.714578
0.714605
0.714632
0.714658
0.714683
0.714708
0.714732
0.714754
0.714775
0.714794
0.714812
0.714828
0.714841
0.714853
0.714864
0.714872
0.714878
0.714882
0.714885
0.714886
0.714886
0.714884
0.714882
0.714878
0.714873
0.714867
0.71486
0.714853
0.714846
0.714838
0.714829
0.714821
0.714812
0.714803
0.714794
0.714786
0.714777
0.714769
0.714761
0.714753
0.714746
0.714739
0.714733
0.714728
0.714723
0.714719
0.714716
0.714713
0.714711
0.71471
0.71471
0.714711
0.714712
0.714713
0.714715
0.714717
0.714719
0.714721
0.714723
0.714725
0.714726
0.714727
0.714727
0.714726
0.714724
0.714722
0.714718
0.714714
0.714709
0.714703
0.714697
0.71469
0.714682
0.714673
0.714664
0.714655
0.714645
0.714635
0.714624
0.714614
0.714603
0.714593
0.714582
0.714572
0.714562
0.714551
0.714541
0.714531
0.714521
0.714511
0.714501
0.714492
0.714482
0.714473
0.714463
0.714454
0.714444
0.714435
0.714425
0.714416
0.714407
0.714397
0.714387
0.714378
0.714368
0.714359
0.714349
0.714339
0.71433
0.71432
0.71431
0.714301
0.714291
0.712749
0.712718
0.712691
0.712667
0.712648
0.712632
0.712621
0.712613
0.712609
0.712608
0.71261
0.712616
0.712624
0.712636
0.71265
0.712667
0.712687
0.712709
0.712734
0.712762
0.712792
0.712825
0.71286
0.712898
0.712938
0.712979
0.713023
0.713069
0.713115
0.713163
0.713212
0.71326
0.713309
0.713357
0.713403
0.713449
0.713493
0.713535
0.713575
0.713613
0.713649
0.713683
0.713714
0.713743
0.71377
0.713796
0.71382
0.713843
0.713864
0.713885
0.713904
0.713923
0.71394
0.713957
0.713973
0.713988
0.714004
0.714018
0.714033
0.714047
0.714062
0.714076
0.71409
0.714104
0.714118
0.714132
0.714146
0.714161
0.714176
0.714191
0.714207
0.714223
0.71424
0.714257
0.714275
0.714294
0.714314
0.714334
0.714356
0.714378
0.714401
0.714425
0.71445
0.714476
0.714502
0.714529
0.714555
0.714583
0.714609
0.714636
0.714662
0.714688
0.714713
0.714736
0.714758
0.714779
0.714798
0.714816
0.714832
0.714845
0.714857
0.714867
0.714875
0.714881
0.714885
0.714887
0.714888
0.714887
0.714885
0.714882
0.714878
0.714872
0.714866
0.714859
0.714852
0.714844
0.714836
0.714828
0.714819
0.71481
0.714802
0.714793
0.714784
0.714776
0.714768
0.71476
0.714752
0.714745
0.714739
0.714733
0.714727
0.714723
0.714719
0.714716
0.714714
0.714712
0.714711
0.714711
0.714712
0.714713
0.714715
0.714716
0.714718
0.714721
0.714723
0.714724
0.714726
0.714727
0.714727
0.714727
0.714726
0.714725
0.714722
0.714719
0.714714
0.714709
0.714703
0.714697
0.714689
0.714681
0.714673
0.714664
0.714654
0.714644
0.714634
0.714624
0.714614
0.714603
0.714593
0.714582
0.714572
0.714561
0.714551
0.714541
0.714531
0.714521
0.714511
0.714501
0.714492
0.714482
0.714473
0.714463
0.714454
0.714444
0.714435
0.714425
0.714416
0.714407
0.714397
0.714387
0.714378
0.714368
0.714359
0.714349
0.714339
0.71433
0.71432
0.71431
0.714301
0.714291
)
;

boundaryField
{
    inlet
    {
        type            zeroGradient;
    }
    outlet
    {