/*--------------------------------*- C++ -*----------------------------------*\
| =========                 |                                                 |
| \\      /  F ield         | OpenFOAM: The Open Source CFD Toolbox           |
|  \\    /   O peration     | Version:  4.1                                   |
|   \\  /    A nd           | Web:      www.OpenFOAM.org                      |
|    \\/     M anipulation  |                                                 |
\*---------------------------------------------------------------------------*/
FoamFile
{
    version     2.0;
    format      ascii;
    class       volVectorField;
    location    "1380";
    object      U;
}
// * * * * * * * * * * * * * * * * * * * * * * * * * * * * * * * * * * * * * //

dimensions      [0 1 -1 0 0 0 0];

internalField   nonuniform List<vector> 
1275
(
(0.07641 -5.7403e-05 0)
(0.076612 -0.00011999 0)
(0.0764755 -0.000219867 0)
(0.0767192 -0.00027993 0)
(0.0767102 -0.000334527 0)
(0.0770289 -0.000428373 0)
(0.0771414 -0.000449792 0)
(0.0775712 -0.000614924 0)
(0.0778214 -0.000641215 0)
(0.0784754 -0.000871826 0)
(0.112435 -4.03097e-05 0)
(0.112616 -0.000132826 0)
(0.112485 -0.000263837 0)
(0.112674 -0.000349344 0)
(0.112628 -0.000461987 0)
(0.112861 -0.000564809 0)
(0.112887 -0.000681114 0)
(0.113187 -0.000820011 0)
(0.113267 -0.00100287 0)
(0.113618 -0.00115505 0)
(0.136447 -3.30064e-05 0)
(0.136616 -0.000152934 0)
(0.136479 -0.000288069 0)
(0.136632 -0.000410335 0)
(0.136553 -0.000531976 0)
(0.136717 -0.00067793 0)
(0.136689 -0.000796226 0)
(0.136882 -0.000985611 0)
(0.13689 -0.00112629 0)
(0.137092 -0.00134739 0)
(0.148452 -2.87355e-05 0)
(0.148612 -0.000154156 0)
(0.14846 -0.000288363 0)
(0.14858 -0.000416494 0)
(0.148461 -0.000551749 0)
(0.148559 -0.000694728 0)
(0.148462 -0.000842759 0)
(0.14855 -0.00100969 0)
(0.148451 -0.00119432 0)
(0.148515 -0.00137324 0)
(0.148453 -2.35957e-05 0)
(0.148607 -0.000150925 0)
(0.148437 -0.000265764 0)
(0.148526 -0.00040252 0)
(0.148368 -0.000520909 0)
(0.148408 -0.000673794 0)
(0.148252 -0.000799551 0)
(0.148251 -0.000973228 0)
(0.14808 -0.00111469 0)
(0.148027 -0.00129403 0)
(0.136449 -1.63267e-05 0)
(0.136598 -0.000127754 0)
(0.136406 -0.000214958 0)
(0.136465 -0.000338001 0)
(0.136267 -0.000438428 0)
(0.136253 -0.000572307 0)
(0.136037 -0.000686182 0)
(0.135957 -0.000830939 0)
(0.135701 -0.000961279 0)
(0.135549 -0.0011074 0)
(0.112439 -3.90371e-06 0)
(0.112585 -9.79502e-05 0)
(0.112368 -0.000146358 0)
(0.1124 -0.000255388 0)
(0.112165 -0.000321524 0)
(0.112105 -0.000438046 0)
(0.111836 -0.000514113 0)
(0.11169 -0.00063501 0)
(0.111367 -0.000718897 0)
(0.11113 -0.000833523 0)
(0.0764174 2.6772e-05 0)
(0.0765625 -3.66841e-05 0)
(0.076314 -4.07267e-05 0)
(0.0763401 -0.000119626 0)
(0.0760738 -0.000151781 0)
(0.0759982 -0.000232216 0)
(0.0756878 -0.000275078 0)
(0.0755107 -0.000353604 0)
(0.0751349 -0.000401995 0)
(0.0748546 -0.000473851 0)
(0.0284323 6.10508e-05 0)
(0.0286337 3.00002e-05 0)
(0.0284806 4.62653e-05 0)
(0.0285963 1.41271e-06 0)
(0.0284062 -1.85899e-06 0)
(0.0284107 -3.96473e-05 0)
(0.0281685 -4.34747e-05 0)
(0.0280691 -7.37117e-05 0)
(0.0277678 -7.54043e-05 0)
(0.027576 -9.6897e-05 0)
(0.0816895 -0.00404322 0)
(0.0828911 -0.00428822 0)
(0.0841301 -0.00455766 0)
(0.0854099 -0.00484466 0)
(0.086729 -0.0051557 0)
(0.088092 -0.00548895 0)
(0.0894974 -0.00584804 0)
(0.090948 -0.00623281 0)
(0.0924426 -0.00664577 0)
(0.0939822 -0.00708738 0)
(0.0955652 -0.00755947 0)
(0.0971907 -0.00806265 0)
(0.0988559 -0.00859815 0)
(0.100558 -0.00916633 0)
(0.102293 -0.00976772 0)
(0.104055 -0.0104021 0)
(0.105837 -0.0110689 0)
(0.107632 -0.0117669 0)
(0.109429 -0.0124942 0)
(0.111219 -0.013248 0)
(0.112989 -0.0140247 0)
(0.114724 -0.0148194 0)
(0.11641 -0.0156262 0)
(0.118029 -0.016438 0)
(0.119564 -0.0172463 0)
(0.120996 -0.0180417 0)
(0.122305 -0.0188135 0)
(0.123473 -0.0195501 0)
(0.12448 -0.0202392 0)
(0.125307 -0.0208682 0)
(0.125936 -0.0214244 0)
(0.126353 -0.0218953 0)
(0.126542 -0.0222693 0)
(0.126494 -0.0225358 0)
(0.1262 -0.022686 0)
(0.125655 -0.0227129 0)
(0.12486 -0.0226121 0)
(0.123817 -0.0223818 0)
(0.122536 -0.0220233 0)
(0.121027 -0.0215408 0)
(0.119306 -0.0209413 0)
(0.117393 -0.0202346 0)
(0.11531 -0.0194324 0)
(0.113082 -0.0185484 0)
(0.110736 -0.017597 0)
(0.1083 -0.0165935 0)
(0.105805 -0.0155533 0)
(0.103279 -0.0144914 0)
(0.100753 -0.0134224 0)
(0.0982531 -0.0123595 0)
(0.0958065 -0.0113149 0)
(0.0934364 -0.0102989 0)
(0.0911636 -0.00932009 0)
(0.0890056 -0.00838484 0)
(0.0869764 -0.00749779 0)
(0.0850871 -0.00666176 0)
(0.0833452 -0.00587799 0)
(0.0817557 -0.00514638 0)
(0.0803206 -0.00446582 0)
(0.0790397 -0.00383436 0)
(0.0779109 -0.00324952 0)
(0.07693 -0.00270842 0)
(0.0760919 -0.00220797 0)
(0.0753903 -0.001745 0)
(0.074818 -0.00131637 0)
(0.0743676 -0.000918949 0)
(0.0740312 -0.000549867 0)
(0.0738009 -0.000206246 0)
(0.0736691 0.000114399 0)
(0.073628 0.000414653 0)
(0.0736706 0.000696526 0)
(0.0737896 0.000962367 0)
(0.0739792 0.00121369 0)
(0.074232 0.00145265 0)
(0.0745443 0.00168042 0)
(0.0749081 0.00189856 0)
(0.0753216 0.00210925 0)
(0.0757786 0.00230995 0)
(0.078971 -0.00119695 0)
(0.0787931 -0.00132692 0)
(0.0792836 -0.00142 0)
(0.0795362 -0.0015269 0)
(0.0801042 -0.00159763 0)
(0.0805668 -0.00168242 0)
(0.0811767 -0.00174108 0)
(0.081736 -0.00180394 0)
(0.0823684 -0.00185045 0)
(0.0829733 -0.0018968 0)
(0.0836161 -0.00193363 0)
(0.0842415 -0.00196923 0)
(0.0848864 -0.00199968 0)
(0.0855188 -0.00202921 0)
(0.0861607 -0.00205639 0)
(0.0867929 -0.00208342 0)
(0.0874291 -0.00210998 0)
(0.0880576 -0.00213729 0)
(0.0886874 -0.00216551 0)
(0.0893112 -0.00219536 0)
(0.0899352 -0.00222722 0)
(0.090555 -0.00226157 0)
(0.091175 -0.00229886 0)
(0.0917926 -0.00233948 0)
(0.0924112 -0.00238394 0)
(0.0930294 -0.00243254 0)
(0.0936499 -0.00248589 0)
(0.0942721 -0.00254423 0)
(0.0948982 -0.00260827 0)
(0.0955285 -0.00267821 0)
(0.0961645 -0.00275488 0)
(0.0968072 -0.00283843 0)
(0.0974575 -0.00292988 0)
(0.0981177 -0.00302929 0)
(0.0987867 -0.0031379 0)
(0.0994701 -0.00325572 0)
(0.100162 -0.00338412 0)
(0.100875 -0.00352328 0)
(0.101592 -0.00367431 0)
(0.102346 -0.00383828 0)
(0.103084 -0.00401478 0)
(0.103896 -0.00420798 0)
(0.10464 -0.00441211 0)
(0.105548 -0.00464104 0)
(0.106248 -0.00487191 0)
(0.107188 -0.00514158 0)
(0.108089 -0.00541914 0)
(0.108997 -0.00571905 0)
(0.109938 -0.00603978 0)
(0.110898 -0.00638441 0)
(0.111886 -0.00675234 0)
(0.112894 -0.00714576 0)
(0.113925 -0.00756464 0)
(0.114975 -0.00801047 0)
(0.116043 -0.00848338 0)
(0.117124 -0.0089842 0)
(0.118216 -0.00951286 0)
(0.119312 -0.0100695 0)
(0.120407 -0.0106536 0)
(0.121494 -0.0112643 0)
(0.122565 -0.0119002 0)
(0.123611 -0.0125596 0)
(0.124621 -0.0132397 0)
(0.125583 -0.0139373 0)
(0.126485 -0.0146482 0)
(0.127312 -0.0153674 0)
(0.128049 -0.0160889 0)
(0.128679 -0.0168057 0)
(0.129187 -0.0175097 0)
(0.129554 -0.0181919 0)
(0.129762 -0.0188424 0)
(0.129795 -0.0194507 0)
(0.129635 -0.0200053 0)
(0.129267 -0.020495 0)
(0.128676 -0.0209081 0)
(0.127851 -0.0212339 0)
(0.126781 -0.0214623 0)
(0.125461 -0.0215844 0)
(0.123888 -0.0215934 0)
(0.122061 -0.0214844 0)
(0.119987 -0.0212549 0)
(0.117672 -0.0209051 0)
(0.115131 -0.0204377 0)
(0.11238 -0.0198577 0)
(0.10944 -0.0191728 0)
(0.106335 -0.0183928 0)
(0.103093 -0.0175298 0)
(0.0997464 -0.016598 0)
(0.0963274 -0.0156127 0)
(0.092871 -0.0145904 0)
(0.089412 -0.0135479 0)
(0.0859849 -0.0125013 0)
(0.0826224 -0.0114655 0)
(0.0793551 -0.0104536 0)
(0.0762107 -0.00947674 0)
(0.0732135 -0.00854349 0)
(0.0703844 -0.00766033 0)
(0.0677402 -0.00683157 0)
(0.0652936 -0.00605963 0)
(0.0630529 -0.00534529 0)
(0.0610225 -0.0046879 0)
(0.0592027 -0.00408567 0)
(0.0575907 -0.00353586 0)
(0.0561805 -0.00303507 0)
(0.0549642 -0.00257941 0)
(0.0539317 -0.00216478 0)
(0.0530724 -0.00178696 0)
(0.0523745 -0.0014419 0)
(0.0518263 -0.00112569 0)
(0.0514164 -0.000834742 0)
(0.0511335 -0.000565758 0)
(0.0509669 -0.000315825 0)
(0.0509066 -8.23159e-05 0)
(0.0509434 0.000137073 0)
(0.0510686 0.000344272 0)
(0.0512746 0.000541236 0)
(0.0515539 0.000729076 0)
(0.0519008 0.000909935 0)
(0.0523082 0.00108359 0)
(0.0527727 0.00125344 0)
(0.0532872 0.00141685 0)
(0.0538501 0.00157963 0)
(0.0544555 0.00173751 0)
(0.113714 -0.00168178 0)
(0.113827 -0.00179134 0)
(0.114066 -0.00198622 0)
(0.114234 -0.00204084 0)
(0.114515 -0.00212707 0)
(0.114736 -0.00216927 0)
(0.115029 -0.00222184 0)
(0.115284 -0.00225839 0)
(0.115581 -0.00229749 0)
(0.115855 -0.00232911 0)
(0.116155 -0.00236097 0)
(0.11644 -0.00238866 0)
(0.11674 -0.00241632 0)
(0.117031 -0.00244171 0)
(0.11733 -0.00246756 0)
(0.117623 -0.00249259 0)
(0.117921 -0.00251883 0)
(0.118214 -0.00254553 0)
(0.11851 -0.00257426 0)
(0.118803 -0.00260461 0)
(0.119097 -0.00263783 0)
(0.11939 -0.00267373 0)
(0.119684 -0.00271336 0)
(0.119978 -0.00275667 0)
(0.120273 -0.00280457 0)
(0.120569 -0.00285713 0)
(0.120868 -0.00291519 0)
(0.121168 -0.00297886 0)
(0.121472 -0.00304903 0)
(0.121778 -0.00312578 0)
(0.122089 -0.00321013 0)
(0.122404 -0.00330205 0)
(0.122725 -0.00340284 0)
(0.12305 -0.00351219 0)
(0.123383 -0.00363193 0)
(0.12372 -0.00376114 0)
(0.124069 -0.00390264 0)
(0.124419 -0.00405428 0)
(0.124786 -0.00422075 0)
(0.125149 -0.0043974 0)
(0.125537 -0.00459265 0)
(0.125913 -0.00479663 0)
(0.126322 -0.00502514 0)
(0.126715 -0.00525866 0)
(0.127134 -0.00552385 0)
(0.127556 -0.00579354 0)
(0.127982 -0.0060915 0)
(0.128413 -0.00640603 0)
(0.128852 -0.00674313 0)
(0.12929 -0.00710115 0)
(0.12973 -0.00748166 0)
(0.130167 -0.00788482 0)
(0.130599 -0.00831106 0)
(0.13102 -0.0087606 0)
(0.131428 -0.00923333 0)
(0.131816 -0.00972902 0)
(0.13218 -0.010247 0)
(0.13251 -0.0107863 0)
(0.132801 -0.0113456 0)
(0.133043 -0.011923 0)
(0.133226 -0.012516 0)
(0.13334 -0.0131217 0)
(0.133374 -0.0137364 0)
(0.133314 -0.0143556 0)
(0.133147 -0.0149742 0)
(0.13286 -0.0155862 0)
(0.132436 -0.0161846 0)
(0.131862 -0.0167619 0)
(0.131121 -0.0173097 0)
(0.1302 -0.017819 0)
(0.129083 -0.0182801 0)
(0.127757 -0.0186833 0)
(0.12621 -0.0190189 0)
(0.124432 -0.0192773 0)
(0.122415 -0.0194496 0)
(0.120153 -0.0195278 0)
(0.117643 -0.019505 0)
(0.114889 -0.0193757 0)
(0.111893 -0.0191364 0)
(0.108667 -0.0187854 0)
(0.105224 -0.0183239 0)
(0.101582 -0.0177556 0)
(0.0977649 -0.0170873 0)
(0.0938011 -0.0163286 0)
(0.0897222 -0.0154919 0)
(0.085563 -0.0145917 0)
(0.0813606 -0.0136441 0)
(0.0771538 -0.012666 0)
(0.072982 -0.0116738 0)
(0.0688847 -0.0106835 0)
(0.0649009 -0.00970949 0)
(0.0610675 -0.008765 0)
(0.0574186 -0.00786151 0)
(0.0539842 -0.0070088 0)
(0.0507888 -0.00621461 0)
(0.0478503 -0.00548437 0)
(0.0451794 -0.00482096 0)
(0.0427797 -0.00422471 0)
(0.0406482 -0.0036936 0)
(0.0387759 -0.00322368 0)
(0.03715 -0.00280959 0)
(0.0357543 -0.00244516 0)
(0.0345714 -0.00212391 0)
(0.033583 -0.00183951 0)
(0.0327715 -0.00158607 0)
(0.0321198 -0.00135833 0)
(0.0316123 -0.00115172 0)
(0.0312349 -0.000962417 0)
(0.0309748 -0.000787218 0)
(0.0308206 -0.000623542 0)
(0.0307623 -0.000469231 0)
(0.0307912 -0.000322601 0)
(0.0308991 -0.00018221 0)
(0.0310798 -4.69387e-05 0)
(0.0313264 8.41978e-05 0)
(0.0316345 0.000211987 0)
(0.0319984 0.000337118 0)
(0.0324151 0.000460215 0)
(0.0328795 0.000581731 0)
(0.0333898 0.000702301 0)
(0.0339419 0.000822003 0)
(0.0345336 0.000941967 0)
(0.0351637 0.00106115 0)
(0.137142 -0.00158585 0)
(0.137133 -0.00172071 0)
(0.137184 -0.00189057 0)
(0.137175 -0.00199207 0)
(0.137245 -0.00211272 0)
(0.137271 -0.00219424 0)
(0.137352 -0.00228197 0)
(0.137403 -0.00234583 0)
(0.137486 -0.00241001 0)
(0.137549 -0.0024588 0)
(0.13763 -0.00250624 0)
(0.137697 -0.00254372 0)
(0.137773 -0.00258004 0)
(0.137838 -0.00261025 0)
(0.137907 -0.0026402 0)
(0.137968 -0.00266695 0)
(0.138029 -0.00269452 0)
(0.138084 -0.00272117 0)
(0.138138 -0.00274971 0)
(0.138187 -0.00277914 0)
(0.138233 -0.0028115 0)
(0.138276 -0.00284624 0)
(0.138316 -0.00288489 0)
(0.138352 -0.00292722 0)
(0.138387 -0.00297439 0)
(0.138418 -0.00302639 0)
(0.138447 -0.00308419 0)
(0.138473 -0.0031479 0)
(0.138497 -0.00321837 0)
(0.138519 -0.00329585 0)
(0.138539 -0.00338108 0)
(0.138557 -0.00347444 0)
(0.138573 -0.0035766 0)
(0.138587 -0.00368811 0)
(0.138598 -0.00380946 0)
(0.138608 -0.00394158 0)
(0.138613 -0.00408448 0)
(0.138617 -0.00423987 0)
(0.138616 -0.00440674 0)
(0.138612 -0.00458829 0)
(0.138601 -0.00478157 0)
(0.138586 -0.00499228 0)
(0.138563 -0.00521451 0)
(0.138531 -0.00545699 0)
(0.138492 -0.00571147 0)
(0.138436 -0.00598666 0)
(0.138371 -0.00627886 0)
(0.138286 -0.00658839 0)
(0.138186 -0.00691706 0)
(0.13806 -0.00726398 0)
(0.13791 -0.00763026 0)
(0.137728 -0.00801521 0)
(0.137513 -0.00841908 0)
(0.137256 -0.00884109 0)
(0.136954 -0.00928071 0)
(0.136599 -0.00973675 0)
(0.136184 -0.0102079 0)
(0.135701 -0.0106922 0)
(0.135142 -0.0111875 0)
(0.134497 -0.011691 0)
(0.133755 -0.0121994 0)
(0.132906 -0.0127088 0)
(0.131939 -0.0132147 0)
(0.130842 -0.0137121 0)
(0.129601 -0.0141953 0)
(0.128205 -0.014658 0)
(0.126641 -0.0150931 0)
(0.124896 -0.0154934 0)
(0.122959 -0.0158509 0)
(0.120818 -0.0161573 0)
(0.118464 -0.0164041 0)
(0.115889 -0.0165828 0)
(0.113086 -0.0166853 0)
(0.110052 -0.0167041 0)
(0.106786 -0.0166325 0)
(0.103293 -0.0164656 0)
(0.0995798 -0.0162001 0)
(0.095659 -0.015835 0)
(0.0915476 -0.0153717 0)
(0.0872671 -0.0148145 0)
(0.0828438 -0.0141705 0)
(0.0783083 -0.013449 0)
(0.0736954 -0.0126613 0)
(0.0690442 -0.0118202 0)
(0.0643971 -0.0109398 0)
(0.0598002 -0.010035 0)
(0.0553018 -0.00912205 0)
(0.0509514 -0.00821774 0)
(0.0467974 -0.00733932 0)
(0.0428841 -0.00650333 0)
(0.0392485 -0.00572434 0)
(0.0359178 -0.00501382 0)
(0.0329073 -0.00437916 0)
(0.0302202 -0.00382321 0)
(0.0278487 -0.00334434 0)
(0.0257764 -0.00293713 0)
(0.0239808 -0.00259347 0)
(0.0224362 -0.00230388 0)
(0.0211158 -0.00205868 0)
(0.0199939 -0.00184895 0)
(0.0190466 -0.00166705 0)
(0.0182529 -0.00150683 0)
(0.0175945 -0.00136354 0)
(0.0170558 -0.00123361 0)
(0.0166238 -0.00111439 0)
(0.0162874 -0.00100388 0)
(0.0160373 -0.000900514 0)
(0.0158655 -0.000803031 0)
(0.0157652 -0.00071036 0)
(0.0157308 -0.000621589 0)
(0.0157571 -0.000535907 0)
(0.0158398 -0.000452588 0)
(0.0159751 -0.000371036 0)
(0.0161598 -0.00029062 0)
(0.0163905 -0.000210993 0)
(0.0166652 -0.000131501 0)
(0.0169809 -5.215e-05 0)
(0.0173363 2.79578e-05 0)
(0.0177287 0.000108259 0)
(0.0181575 0.00019019 0)
(0.0186203 0.000272456 0)
(0.0191167 0.000357022 0)
(0.0196451 0.000442474 0)
(0.148391 -0.00163459 0)
(0.148336 -0.00178646 0)
(0.148237 -0.00197648 0)
(0.148144 -0.0020794 0)
(0.148056 -0.00220152 0)
(0.147951 -0.00227049 0)
(0.147858 -0.00234883 0)
(0.147746 -0.0023959 0)
(0.147643 -0.00244729 0)
(0.147523 -0.00248001 0)
(0.147407 -0.00251483 0)
(0.147278 -0.00253849 0)
(0.147149 -0.0025636 0)
(0.14701 -0.00258234 0)
(0.146869 -0.00260269 0)
(0.14672 -0.00261997 0)
(0.146566 -0.00263938 0)
(0.146406 -0.00265813 0)
(0.146241 -0.0026797 0)
(0.146069 -0.00270242 0)
(0.145892 -0.00272872 0)
(0.145709 -0.00275763 0)
(0.14552 -0.00279088 0)
(0.145324 -0.00282795 0)
(0.145123 -0.00287014 0)
(0.144915 -0.00291721 0)
(0.1447 -0.0029702 0)
(0.144478 -0.00302903 0)
(0.144248 -0.00309465 0)
(0.144011 -0.00316701 0)
(0.143765 -0.00324709 0)
(0.14351 -0.00333479 0)
(0.143246 -0.00343124 0)
(0.142971 -0.00353614 0)
(0.142685 -0.00365097 0)
(0.142386 -0.00377498 0)
(0.142075 -0.00391032 0)
(0.141748 -0.00405539 0)
(0.141407 -0.00421345 0)
(0.141047 -0.00438147 0)
(0.140669 -0.00456449 0)
(0.140269 -0.00475729 0)
(0.139846 -0.0049673 0)
(0.139398 -0.00518679 0)
(0.138921 -0.00542489 0)
(0.138413 -0.00567368 0)
(0.137871 -0.00593977 0)
(0.13729 -0.00621897 0)
(0.136669 -0.00651435 0)
(0.136 -0.00682353 0)
(0.135281 -0.00714779 0)
(0.134504 -0.00748545 0)
(0.133667 -0.00783661 0)
(0.132761 -0.00819963 0)
(0.13178 -0.00857367 0)
(0.130717 -0.00895674 0)
(0.129565 -0.00934708 0)
(0.128315 -0.00974207 0)
(0.126958 -0.010139 0)
(0.125485 -0.0105344 0)
(0.123887 -0.0109246 0)
(0.122153 -0.0113051 0)
(0.120274 -0.0116711 0)
(0.118239 -0.0120172 0)
(0.116039 -0.0123376 0)
(0.113664 -0.012626 0)
(0.111104 -0.0128756 0)
(0.108353 -0.0130796 0)
(0.105403 -0.0132309 0)
(0.10225 -0.0133227 0)
(0.0988927 -0.0133483 0)
(0.0953305 -0.013302 0)
(0.0915672 -0.013179 0)
(0.0876101 -0.0129757 0)
(0.0834705 -0.0126903 0)
(0.0791639 -0.0123226 0)
(0.0747106 -0.0118739 0)
(0.0701361 -0.0113477 0)
(0.0654714 -0.010749 0)
(0.0607532 -0.0100852 0)
(0.0560244 -0.00936642 0)
(0.0513342 -0.00860544 0)
(0.046737 -0.00781818 0)
(0.0422902 -0.00702306 0)
(0.0380512 -0.00624025 0)
(0.0340723 -0.00549035 0)
(0.0303963 -0.00479265 0)
(0.027053 -0.00416293 0)
(0.0240563 -0.00361148 0)
(0.0214047 -0.00314185 0)
(0.0190828 -0.00275087 0)
(0.0170646 -0.00242993 0)
(0.0153178 -0.00216731 0)
(0.0138084 -0.00195053 0)
(0.0125042 -0.00176841 0)
(0.0113765 -0.00161211 0)
(0.0104007 -0.00147543 0)
(0.00955602 -0.00135441 0)
(0.00882514 -0.00124676 0)
(0.00819359 -0.00115115 0)
(0.00764952 -0.00106666 0)
(0.00718327 -0.000992416 0)
(0.00678697 -0.000927332 0)
(0.00645417 -0.000870143 0)
(0.00617948 -0.000819428 0)
(0.00595837 -0.000773761 0)
(0.00578684 -0.000731773 0)
(0.00566151 -0.000692272 0)
(0.00557929 -0.00065423 0)
(0.00553762 -0.000616832 0)
(0.00553408 -0.000579422 0)
(0.00556686 -0.000541501 0)
(0.00563399 -0.000502697 0)
(0.0057343 -0.000462698 0)
(0.00586617 -0.000421339 0)
(0.00602899 -0.000378375 0)
(0.00622132 -0.000333801 0)
(0.00644301 -0.00028735 0)
(0.00669282 -0.000239161 0)
(0.0069708 -0.000188888 0)
(0.00727616 -0.000136784 0)
(0.00760866 -8.24096e-05 0)
(0.00796846 -2.60961e-05 0)
(0.147825 -0.00146465 0)
(0.147672 -0.00159669 0)
(0.147441 -0.00173909 0)
(0.147225 -0.00183333 0)
(0.146975 -0.00193998 0)
(0.146724 -0.00200826 0)
(0.146458 -0.00208471 0)
(0.146184 -0.00213392 0)
(0.145901 -0.00218726 0)
(0.145609 -0.0022221 0)
(0.145309 -0.00225879 0)
(0.145 -0.00228338 0)
(0.144684 -0.002309 0)
(0.144359 -0.00232717 0)
(0.144027 -0.00234641 0)
(0.143687 -0.00236163 0)
(0.143339 -0.00237842 0)
(0.142983 -0.00239374 0)
(0.142619 -0.00241133 0)
(0.142248 -0.0024294 0)
(0.141868 -0.00245049 0)
(0.14148 -0.00247357 0)
(0.141083 -0.00250042 0)
(0.140677 -0.0025305 0)
(0.140262 -0.00256508 0)
(0.139836 -0.00260393 0)
(0.1394 -0.002648 0)
(0.138952 -0.00269727 0)
(0.138492 -0.00275248 0)
(0.138019 -0.00281375 0)
(0.137531 -0.00288167 0)
(0.137029 -0.0029565 0)
(0.136509 -0.00303869 0)
(0.135972 -0.00312864 0)
(0.135415 -0.00322663 0)
(0.134838 -0.00333327 0)
(0.134237 -0.00344855 0)
(0.133612 -0.00357343 0)
(0.132959 -0.0037074 0)
(0.132278 -0.00385198 0)
(0.131565 -0.00400593 0)
(0.130816 -0.00417138 0)
(0.130032 -0.00434648 0)
(0.129205 -0.00453342 0)
(0.128335 -0.00473072 0)
(0.127416 -0.00493905 0)
(0.126447 -0.00515895 0)
(0.125419 -0.00538859 0)
(0.124332 -0.00562933 0)
(0.123178 -0.00587901 0)
(0.121953 -0.0061383 0)
(0.12065 -0.00640513 0)
(0.119264 -0.00667922 0)
(0.117788 -0.00695838 0)
(0.116216 -0.00724141 0)
(0.114541 -0.00752576 0)
(0.112756 -0.0078093 0)
(0.110852 -0.00808894 0)
(0.108823 -0.00836162 0)
(0.106662 -0.00862358 0)
(0.10436 -0.00887091 0)
(0.101911 -0.00909918 0)
(0.0993074 -0.00930379 0)
(0.0965442 -0.00947979 0)
(0.0936161 -0.00962217 0)
(0.0905195 -0.00972577 0)
(0.0872523 -0.00978552 0)
(0.0838145 -0.00979644 0)
(0.0802085 -0.00975383 0)
(0.0764394 -0.00965339 0)
(0.0725159 -0.00949139 0)
(0.0684501 -0.00926496 0)
(0.064259 -0.00897239 0)
(0.0599647 -0.00861352 0)
(0.0555952 -0.00819025 0)
(0.0511854 -0.0077069 0)
(0.0467769 -0.00717065 0)
(0.042418 -0.0065918 0)
(0.0381617 -0.00598397 0)
(0.0340633 -0.00536397 0)
(0.0301763 -0.00475107 0)
(0.0265487 -0.00416539 0)
(0.0232182 -0.00362544 0)
(0.0202086 -0.0031455 0)
(0.0175271 -0.00273338 0)
(0.0151644 -0.00238951 0)
(0.0130974 -0.00210764 0)
(0.0112963 -0.00187714 0)
(0.00972952 -0.00168556 0)
(0.00836677 -0.00152101 0)
(0.00717963 -0.00137416 0)
(0.00614164 -0.00123961 0)
(0.00522898 -0.00111627 0)
(0.00442165 -0.00100614 0)
(0.00370407 -0.000912104 0)
(0.00306474 -0.000835849 0)
(0.00249511 -0.000776913 0)
(0.00198834 -0.000732989 0)
(0.00153843 -0.000700869 0)
(0.00113974 -0.000677375 0)
(0.000786901 -0.000659883 0)
(0.000474961 -0.000646449 0)
(0.000199467 -0.000635692 0)
(-4.33797e-05 -0.000626633 0)
(-0.000256762 -0.000618531 0)
(-0.000443186 -0.00061082 0)
(-0.000604667 -0.000603036 0)
(-0.000742665 -0.000594812 0)
(-0.00085837 -0.000585851 0)
(-0.000952533 -0.000575904 0)
(-0.00102585 -0.000564799 0)
(-0.00107861 -0.000552345 0)
(-0.00111124 -0.000538475 0)
(-0.00112374 -0.000522995 0)
(-0.0011164 -0.000505958 0)
(-0.001089 -0.000487098 0)
(-0.00104173 -0.000466637 0)
(-0.000974234 -0.000444156 0)
(-0.000886629 -0.000420098 0)
(-0.000778489 -0.000393848 0)
(-0.000649773 -0.000366025 0)
(-0.00050011 -0.000335954 0)
(-0.000329202 -0.000304114 0)
(0.135238 -0.00125504 0)
(0.134991 -0.00137854 0)
(0.13464 -0.00150495 0)
(0.134319 -0.00159306 0)
(0.133936 -0.00168405 0)
(0.133563 -0.00174074 0)
(0.13315 -0.00179965 0)
(0.132737 -0.00183315 0)
(0.132297 -0.00186815 0)
(0.131852 -0.00188599 0)
(0.131388 -0.00190498 0)
(0.130917 -0.00191316 0)
(0.130431 -0.00192254 0)
(0.129938 -0.00192569 0)
(0.129432 -0.00193038 0)
(0.128919 -0.00193206 0)
(0.128396 -0.00193578 0)
(0.127865 -0.00193877 0)
(0.127323 -0.00194433 0)
(0.126774 -0.0019508 0)
(0.126215 -0.00196036 0)
(0.125646 -0.00197202 0)
(0.125067 -0.00198728 0)
(0.124478 -0.00200557 0)
(0.123876 -0.00202793 0)
(0.123263 -0.00205404 0)
(0.122636 -0.0020847 0)
(0.121996 -0.00211973 0)
(0.121339 -0.00215978 0)
(0.120666 -0.00220473 0)
(0.119975 -0.00225518 0)
(0.119264 -0.00231101 0)
(0.118532 -0.00237286 0)
(0.117776 -0.00244047 0)
(0.116996 -0.00251467 0)
(0.116188 -0.0025949 0)
(0.11535 -0.00268233 0)
(0.11448 -0.00277591 0)
(0.113575 -0.00287731 0)
(0.112633 -0.00298479 0)
(0.11165 -0.00310069 0)
(0.110623 -0.00322237 0)
(0.109549 -0.00335284 0)
(0.108424 -0.00348873 0)
(0.107244 -0.00363316 0)
(0.106006 -0.00378284 0)
(0.104704 -0.00393993 0)
(0.103334 -0.0041018 0)
(0.101892 -0.00426967 0)
(0.100372 -0.00444114 0)
(0.0987702 -0.00461657 0)
(0.0970805 -0.00479368 0)
(0.0952983 -0.00497196 0)
(0.0934177 -0.00514905 0)
(0.091434 -0.00532364 0)
(0.0893415 -0.00549314 0)
(0.0871358 -0.00565546 0)
(0.0848118 -0.00580763 0)
(0.0823657 -0.00594688 0)
(0.0797936 -0.0060698 0)
(0.0770929 -0.00617306 0)
(0.0742619 -0.0062529 0)
(0.0713001 -0.00630564 0)
(0.0682087 -0.00632742 0)
(0.064991 -0.00631459 0)
(0.0616525 -0.00626362 0)
(0.0582023 -0.00617145 0)
(0.0546524 -0.00603553 0)
(0.0510194 -0.00585418 0)
(0.0473244 -0.00562682 0)
(0.0435936 -0.00535439 0)
(0.0398583 -0.0050398 0)
(0.0361546 -0.0046884 0)
(0.0325223 -0.00430829 0)
(0.0290039 -0.00391025 0)
(0.0256417 -0.00350724 0)
(0.0224755 -0.00311327 0)
(0.0195384 -0.0027419 0)
(0.0168529 -0.00240442 0)
(0.0144283 -0.00210821 0)
(0.0122608 -0.00185591 0)
(0.0103383 -0.00164537 0)
(0.00864405 -0.00146998 0)
(0.00715889 -0.00131925 0)
(0.00586117 -0.00118114 0)
(0.00472623 -0.00104666 0)
(0.00372845 -0.000914212 0)
(0.00284461 -0.000789692 0)
(0.0020566 -0.000681726 0)
(0.0013518 -0.000595859 0)
(0.000721737 -0.000532033 0)
(0.000159981 -0.00048616 0)
(-0.000339573 -0.000453305 0)
(-0.000783632 -0.000429817 0)
(-0.00117964 -0.000413592 0)
(-0.0015353 -0.000403306 0)
(-0.00185787 -0.000397725 0)
(-0.00215358 -0.000395559 0)
(-0.00242737 -0.000395659 0)
(-0.00268293 -0.000397244 0)
(-0.00292298 -0.00039992 0)
(-0.00314947 -0.000403565 0)
(-0.00336388 -0.00040814 0)
(-0.00356729 -0.00041357 0)
(-0.00376055 -0.000419674 0)
(-0.00394421 -0.000426186 0)
(-0.00411871 -0.000432776 0)
(-0.00428424 -0.000439109 0)
(-0.00444094 -0.000444872 0)
(-0.00458871 -0.000449791 0)
(-0.00472751 -0.000453659 0)
(-0.004857 -0.000456292 0)
(-0.00497703 -0.000457601 0)
(-0.0050871 -0.000457462 0)
(-0.00518701 -0.000455885 0)
(-0.00527609 -0.000452757 0)
(-0.00535413 -0.000448178 0)
(-0.00542039 -0.000442007 0)
(-0.00547456 -0.000434413 0)
(-0.00551597 -0.000425219 0)
(-0.00554411 -0.000414618 0)
(-0.00555849 -0.000402431 0)
(-0.00555833 -0.00038879 0)
(0.11074 -0.000923578 0)
(0.110405 -0.00101024 0)
(0.109951 -0.00108569 0)
(0.109529 -0.00114311 0)
(0.109024 -0.00119759 0)
(0.108535 -0.00123274 0)
(0.10799 -0.00126809 0)
(0.107451 -0.00128769 0)
(0.106874 -0.00130812 0)
(0.106298 -0.0013172 0)
(0.105695 -0.00132702 0)
(0.105091 -0.00132931 0)
(0.104467 -0.00133233 0)
(0.103841 -0.00133081 0)
(0.103201 -0.00133021 0)
(0.102557 -0.00132731 0)
(0.101901 -0.00132566 0)
(0.101242 -0.00132336 0)
(0.100572 -0.00132273 0)
(0.0998974 -0.00132264 0)
(0.0992133 -0.00132464 0)
(0.0985226 -0.00132808 0)
(0.0978222 -0.00133398 0)
(0.0971134 -0.001342 0)
(0.0963938 -0.00135283 0)
(0.0956636 -0.00136631 0)
(0.0949206 -0.0013829 0)
(0.0941646 -0.00140255 0)
(0.0933933 -0.0014256 0)
(0.0926059 -0.00145206 0)
(0.0918001 -0.00148215 0)
(0.0909747 -0.00151596 0)
(0.0901273 -0.00155358 0)
(0.0892561 -0.00159518 0)
(0.0883588 -0.00164072 0)
(0.0874331 -0.00169045 0)
(0.0864765 -0.00174414 0)
(0.0854865 -0.00180219 0)
(0.0844601 -0.00186408 0)
(0.0833946 -0.00193039 0)
(0.0822869 -0.0020003 0)
(0.0811339 -0.00207445 0)
(0.0799323 -0.00215189 0)
(0.0786786 -0.00223294 0)
(0.0773695 -0.00231699 0)
(0.0760013 -0.00240344 0)
(0.0745705 -0.00249241 0)
(0.0730734 -0.00258231 0)
(0.0715066 -0.0026734 0)
(0.0698663 -0.00276378 0)
(0.0681496 -0.00285335 0)
(0.0663527 -0.00294013 0)
(0.0644734 -0.00302347 0)
(0.0625088 -0.00310133 0)
(0.0604573 -0.0031725 0)
(0.0583175 -0.00323481 0)
(0.0560893 -0.00328657 0)
(0.053773 -0.00332548 0)
(0.0513709 -0.00334953 0)
(0.0488862 -0.00335638 0)
(0.0463243 -0.00334399 0)
(0.0436922 -0.00331033 0)
(0.0409998 -0.00325383 0)
(0.0382589 -0.00317334 0)
(0.0354848 -0.00306851 0)
(0.0326952 -0.00293981 0)
(0.0299113 -0.00278885 0)
(0.0271567 -0.0026184 0)
(0.0244574 -0.00243247 0)
(0.0218403 -0.00223617 0)
(0.0193318 -0.00203552 0)
(0.0169553 -0.00183699 0)
(0.0147294 -0.00164697 0)
(0.0126667 -0.00147119 0)
(0.0107738 -0.00131407 0)
(0.00905276 -0.00117781 0)
(0.00750203 -0.00106118 0)
(0.00611677 -0.00095848 0)
(0.0048881 -0.000860479 0)
(0.00380273 -0.000758671 0)
(0.00284404 -0.000650866 0)
(0.00199459 -0.000543259 0)
(0.00123878 -0.000446371 0)
(0.000564546 -0.000368029 0)
(-3.61115e-05 -0.000309338 0)
(-0.000567911 -0.000266287 0)
(-0.00103438 -0.000234253 0)
(-0.00144035 -0.000210791 0)
(-0.00179336 -0.000195011 0)
(-0.00210291 -0.000185539 0)
(-0.00237855 -0.000179751 0)
(-0.00262813 -0.000174843 0)
(-0.00285734 -0.00016934 0)
(-0.00307022 -0.000163605 0)
(-0.00326997 -0.000159155 0)
(-0.0034594 -0.000157528 0)
(-0.00364101 -0.000159513 0)
(-0.00381688 -0.00016501 0)
(-0.00398865 -0.000173329 0)
(-0.00415751 -0.000183581 0)
(-0.0043244 -0.000194956 0)
(-0.00449008 -0.000206837 0)
(-0.00465519 -0.000218799 0)
(-0.00482023 -0.000230559 0)
(-0.00498562 -0.000241925 0)
(-0.00515155 -0.000252766 0)
(-0.00531813 -0.000262986 0)
(-0.00548525 -0.000272515 0)
(-0.00565274 -0.000281309 0)
(-0.0058202 -0.000289324 0)
(-0.00598731 -0.000296559 0)
(-0.00615351 -0.000302968 0)
(-0.00631837 -0.000308593 0)
(-0.00648125 -0.000313361 0)
(-0.00664168 -0.000317365 0)
(-0.00679898 -0.000320481 0)
(-0.00695268 -0.000322871 0)
(-0.00710208 -0.00032434 0)
(-0.00724667 -0.000325126 0)
(-0.00738583 -0.000324973 0)
(-0.00751895 -0.000324151 0)
(-0.00764549 -0.000322415 0)
(-0.00776475 -0.000319945 0)
(0.0744023 -0.00052432 0)
(0.0740173 -0.000580085 0)
(0.0734971 -0.000621601 0)
(0.073023 -0.000656449 0)
(0.0724507 -0.000682358 0)
(0.0719091 -0.000698117 0)
(0.0712998 -0.000708617 0)
(0.0707112 -0.000710189 0)
(0.0700779 -0.000708968 0)
(0.0694589 -0.000701522 0)
(0.0688117 -0.000692951 0)
(0.068175 -0.00068077 0)
(0.0675212 -0.000668612 0)
(0.0668756 -0.000654873 0)
(0.0662202 -0.000641941 0)
(0.0655712 -0.000628839 0)
(0.0649166 -0.000617063 0)
(0.0642668 -0.000606031 0)
(0.0636136 -0.000596649 0)
(0.0629633 -0.000588568 0)
(0.0623101 -0.000582323 0)
(0.0616578 -0.000577697 0)
(0.061002 -0.000575001 0)
(0.0603446 -0.000574088 0)
(0.0596821 -0.00057514 0)
(0.0590153 -0.000578047 0)
(0.0583411 -0.000582921 0)
(0.0576595 -0.000589659 0)
(0.0569677 -0.00059835 0)
(0.0562651 -0.000608872 0)
(0.0555491 -0.000621322 0)
(0.0548185 -0.000635528 0)
(0.0540709 -0.000651632 0)
(0.0533047 -0.000669361 0)
(0.0525176 -0.000688953 0)
(0.0517077 -0.00070996 0)
(0.0508726 -0.000732782 0)
(0.0500106 -0.000756703 0)
(0.0491189 -0.000782356 0)
(0.0481958 -0.000808668 0)
(0.0472385 -0.000836547 0)
(0.0462456 -0.000864533 0)
(0.0452141 -0.000893734 0)
(0.0441429 -0.000922445 0)
(0.0430291 -0.000951696 0)
(0.0418719 -0.00097986 0)
(0.0406689 -0.00100756 0)
(0.0394195 -0.0010334 0)
(0.0381225 -0.00105767 0)
(0.0367773 -0.00107908 0)
(0.0353843 -0.00109763 0)
(0.0339438 -0.00111215 0)
(0.0324574 -0.00112243 0)
(0.0309272 -0.00112743 0)
(0.0293565 -0.00112682 0)
(0.0277494 -0.00111976 0)
(0.0261115 -0.00110594 0)
(0.0244491 -0.00108482 0)
(0.0227705 -0.00105631 0)
(0.0210845 -0.0010203 0)
(0.0194013 -0.000977162 0)
(0.0177319 -0.000927442 0)
(0.0160878 -0.000872215 0)
(0.0144804 -0.000812914 0)
(0.0129214 -0.000751511 0)
(0.0114211 -0.000690327 0)
(0.00998937 -0.000631944 0)
(0.00863442 -0.000578746 0)
(0.00736319 -0.000532375 0)
(0.00618085 -0.000492901 0)
(0.00509092 -0.000458227 0)
(0.00409486 -0.000424137 0)
(0.00319208 -0.000385655 0)
(0.00237971 -0.000339386 0)
(0.00165267 -0.000285668 0)
(0.00100384 -0.000228888 0)
(0.000424936 -0.000175466 0)
(-9.20391e-05 -0.000130628 0)
(-0.000552746 -9.62606e-05 0)
(-0.000959428 -7.13428e-05 0)
(-0.0013121 -5.42112e-05 0)
(-0.00161185 -4.41461e-05 0)
(-0.00186353 -4.07291e-05 0)
(-0.00207562 -4.20357e-05 0)
(-0.00225737 -4.41427e-05 0)
(-0.00241594 -4.29539e-05 0)
(-0.0025557 -3.67513e-05 0)
(-0.00267958 -2.70909e-05 0)
(-0.00279058 -1.73889e-05 0)
(-0.00289208 -1.06359e-05 0)
(-0.00298707 -8.05258e-06 0)
(-0.00307742 -9.24017e-06 0)
(-0.003164 -1.31096e-05 0)
(-0.00324735 -1.86575e-05 0)
(-0.00332835 -2.5217e-05 0)
(-0.0034084 -3.23519e-05 0)
(-0.0034892 -3.97023e-05 0)
(-0.00357239 -4.6941e-05 0)
(-0.00365926 -5.38198e-05 0)
(-0.00375065 -6.02231e-05 0)
(-0.00384703 -6.61712e-05 0)
(-0.00394857 -7.17801e-05 0)