/*--------------------------------*- C++ -*----------------------------------*\
| =========                 |                                                 |
| \\      /  F ield         | OpenFOAM: The Open Source CFD Toolbox           |
|  \\    /   O peration     | Version:  4.1                                   |
|   \\  /    A nd           | Web:      www.OpenFOAM.org                      |
|    \\/     M anipulation  |                                                 |
\*---------------------------------------------------------------------------*/
FoamFile
{
    version     2.0;
    format      ascii;
    class       volScalarField;
    location    "5460";
    object      p;
}
// * * * * * * * * * * * * * * * * * * * * * * * * * * * * * * * * * * * * * //

dimensions      [1 -1 -2 0 0 0 0];

internalField   nonuniform List<scalar> 
1275
(
0.711993
0.711993
0.711992
0.711992
0.711991
0.711992
0.711991
0.711991
0.71199
0.711991
0.71199
0.71199
0.71199
0.711991
0.711991
0.711991
0.711992
0.711992
0.711993
0.711994
0.711995
0.711996
0.711997
0.711999
0.712
0.712002
0.712004
0.712006
0.712008
0.71201
0.712013
0.712015
0.712018
0.712021
0.712024
0.712027
0.712031
0.712034
0.712038
0.712042
0.712046
0.71205
0.712055
0.712059
0.712064
0.712069
0.712074
0.712079
0.712085
0.712091
0.712096
0.712102
0.712109
0.712115
0.712122
0.712128
0.712136
0.712143
0.71215
0.712158
0.712166
0.712174
0.712183
0.712191
0.712201
0.71221
0.71222
0.71223
0.712241
0.712252
0.712264
0.712276
0.712289
0.712303
0.712317
0.712333
0.712349
0.712367
0.712386
0.712407
0.712429
0.712453
0.712479
0.712507
0.712537
0.71257
0.712605
0.712643
0.712683
0.712727
0.712773
0.712822
0.712873
0.712926
0.712981
0.713038
0.713096
0.713154
0.713212
0.713269
0.713325
0.71338
0.713432
0.71348
0.713526
0.713568
0.713605
0.713638
0.713667
0.713691
0.71371
0.713726
0.713737
0.713744
0.713747
0.713748
0.713745
0.71374
0.713733
0.713724
0.713713
0.713702
0.711992
0.711992
0.711991
0.711992
0.711991
0.711992
0.711991
0.711992
0.711991
0.711991
0.711991
0.711991
0.711991
0.711991
0.711991
0.711992
0.711992
0.711993
0.711994
0.711995
0.711996
0.711997
0.711998
0.711999
0.712001
0.712003
0.712004
0.712006
0.712009
0.712011
0.712013
0.712016
0.712019
0.712022
0.712025
0.712028
0.712031
0.712035
0.712039
0.712043
0.712047
0.712051
0.712055
0.71206
0.712065
0.71207
0.712075
0.71208
0.712085
0.712091
0.712097
0.712103
0.712109
0.712116
0.712122
0.712129
0.712136
0.712143
0.712151
0.712159
0.712167
0.712175
0.712183
0.712192
0.712201
0.712211
0.712221
0.712231
0.712242
0.712253
0.712265
0.712277
0.71229
0.712304
0.712318
0.712334
0.71235
0.712368
0.712387
0.712407
0.712429
0.712452
0.712478
0.712506
0.712535
0.712568
0.712602
0.71264
0.71268
0.712723
0.712768
0.712817
0.712867
0.712921
0.712976
0.713032
0.71309
0.713148
0.713206
0.713263
0.71332
0.713374
0.713426
0.713475
0.71352
0.713562
0.7136
0.713633
0.713662
0.713686
0.713705
0.713721
0.713732
0.713739
0.713743
0.713743
0.713741
0.713736
0.713729
0.71372
0.71371
0.713698
0.711995
0.711995
0.711994
0.711994
0.711993
0.711993
0.711992
0.711992
0.711991
0.711991
0.711991
0.711991
0.711991
0.711991
0.711991
0.711992
0.711992
0.711993
0.711993
0.711994
0.711995
0.711996
0.711998
0.711999
0.712001
0.712002
0.712004
0.712006
0.712008
0.712011
0.712013
0.712016
0.712018
0.712021
0.712024
0.712028
0.712031
0.712035
0.712038
0.712042
0.712046
0.712051
0.712055
0.71206
0.712064
0.712069
0.712074
0.71208
0.712085
0.712091
0.712097
0.712103
0.712109
0.712115
0.712122
0.712129
0.712136
0.712143
0.712151
0.712158
0.712166
0.712175
0.712183
0.712192
0.712201
0.712211
0.71222
0.712231
0.712241
0.712252
0.712264
0.712276
0.712289
0.712303
0.712317
0.712333
0.712349
0.712366
0.712385
0.712405
0.712426
0.71245
0.712475
0.712502
0.712532
0.712563
0.712598
0.712635
0.712675
0.712718
0.712763
0.712811
0.712862
0.712915
0.71297
0.713027
0.713084
0.713142
0.713201
0.713258
0.713314
0.713369
0.713421
0.71347
0.713515
0.713557
0.713594
0.713627
0.713656
0.71368
0.7137
0.713715
0.713726
0.713733
0.713737
0.713737
0.713735
0.71373
0.713723
0.713714
0.713704
0.713692
0.711991
0.711991
0.71199
0.711992
0.71199
0.711992
0.711991
0.711992
0.711991
0.711991
0.711991
0.711991
0.711991
0.711992
0.711991
0.711992
0.711992
0.711993
0.711994
0.711995
0.711995
0.711997
0.711998
0.711999
0.712001
0.712002
0.712004
0.712006
0.712008
0.712011
0.712013
0.712016
0.712018
0.712021
0.712024
0.712028
0.712031
0.712035
0.712038
0.712042
0.712046
0.712051
0.712055
0.71206
0.712064
0.712069
0.712074
0.71208
0.712085
0.712091
0.712097
0.712103
0.712109
0.712115
0.712122
0.712129
0.712136
0.712143
0.712151
0.712158
0.712166
0.712175
0.712183
0.712192
0.712201
0.71221
0.71222
0.71223
0.712241
0.712252
0.712264
0.712276
0.712289
0.712302
0.712316
0.712331
0.712347
0.712364
0.712382
0.712402
0.712423
0.712446
0.712471
0.712497
0.712526
0.712558
0.712592
0.712629
0.712668
0.712711
0.712756
0.712804
0.712854
0.712907
0.712962
0.713018
0.713076
0.713134
0.713192
0.713249
0.713305
0.713358
0.71341
0.713458
0.713503
0.713544
0.713581
0.713613
0.713641
0.713664
0.713683
0.713698
0.713709
0.713715
0.713719
0.713719
0.713717
0.713712
0.713705
0.713696
0.713686
0.713676
0.711997
0.711996
0.711995
0.711995
0.711993
0.711993
0.711991
0.711991
0.71199
0.71199
0.71199
0.71199
0.711989
0.71199
0.71199
0.711991
0.711991
0.711992
0.711992
0.711993
0.711994
0.711995
0.711997
0.711998
0.712
0.712001
0.712003
0.712005
0.712007
0.71201
0.712012
0.712015
0.712018
0.712021
0.712024
0.712027
0.71203
0.712034
0.712038
0.712042
0.712046
0.71205
0.712054
0.712059
0.712064
0.712069
0.712074
0.712079
0.712085
0.71209
0.712096
0.712102
0.712108
0.712115
0.712121
0.712128
0.712135
0.712142
0.71215
0.712158
0.712166
0.712174
0.712182
0.712191
0.7122
0.712209
0.712219
0.712229
0.71224
0.712251
0.712262
0.712274
0.712287
0.7123
0.712314
0.712329
0.712345
0.712361
0.71238
0.712399
0.71242
0.712443
0.712467
0.712494
0.712523
0.712554
0.712588
0.712625
0.712665
0.712707
0.712752
0.7128
0.71285
0.712903
0.712957
0.713013
0.71307
0.713127
0.713184
0.71324
0.713294
0.713347
0.713397
0.713443
0.713487
0.713526
0.713561
0.713592
0.713618
0.71364
0.713658
0.713672
0.713681
0.713687
0.71369
0.71369
0.713687
0.713683
0.713676
0.713668
0.713658
0.713648
0.711985
0.711988
0.711985
0.711989
0.711987
0.71199
0.711988
0.71199
0.711989
0.71199
0.711989
0.71199
0.711989
0.71199
0.71199
0.71199
0.711991
0.711991
0.711992
0.711993
0.711994
0.711995
0.711996
0.711998
0.711999
0.712001
0.712003
0.712005
0.712007
0.712009
0.712012
0.712014
0.712017
0.71202
0.712023
0.712026
0.71203
0.712033
0.712037
0.712041
0.712045
0.712049
0.712054
0.712059
0.712063
0.712068
0.712073
0.712079
0.712084
0.71209
0.712096
0.712102
0.712108
0.712114
0.712121
0.712128
0.712135
0.712142
0.712149
0.712157
0.712165
0.712173
0.712182
0.71219
0.712199
0.712209
0.712218
0.712228
0.712239
0.71225
0.712261
0.712273
0.712285
0.712299
0.712313
0.712327
0.712343
0.71236
0.712378
0.712397
0.712418
0.712441
0.712466
0.712493
0.712522
0.712553
0.712587
0.712624
0.712663
0.712705
0.71275
0.712798
0.712848
0.712899
0.712953
0.713007
0.713063
0.713118
0.713173
0.713227
0.713279
0.713329
0.713376
0.71342
0.713461
0.713497
0.71353
0.713558
0.713582
0.713602
0.713617
0.713629
0.713638
0.713643
0.713645
0.713644
0.713641
0.713637
0.71363
0.713623
0.713614
0.713605
0.711996
0.711996
0.711993
0.711993
0.71199
0.71199
0.711988
0.711988
0.711987
0.711987
0.711986
0.711987
0.711987
0.711987
0.711987
0.711988
0.711989
0.711989
0.71199
0.711991
0.711992
0.711994
0.711995
0.711996
0.711998
0.712
0.712002
0.712004
0.712006
0.712008
0.712011
0.712013
0.712016
0.712019
0.712022
0.712026
0.712029
0.712033
0.712037
0.712041
0.712045
0.712049
0.712053
0.712058
0.712063
0.712068
0.712073
0.712078
0.712084
0.712089
0.712095
0.712101
0.712107
0.712114
0.71212
0.712127
0.712134
0.712141
0.712149
0.712156
0.712164
0.712172
0.712181
0.71219
0.712199
0.712208
0.712218
0.712228
0.712238
0.712249
0.71226
0.712272
0.712285
0.712298
0.712312
0.712327
0.712343
0.712361
0.712379
0.712399
0.71242
0.712443
0.712469
0.712496
0.712525
0.712557
0.712591
0.712628
0.712668
0.71271
0.712754
0.712801
0.71285
0.712901
0.712952
0.713005
0.713058
0.71311
0.713162
0.713213
0.713261
0.713307
0.713351
0.71339
0.713427
0.713459
0.713488
0.713513
0.713533
0.71355
0.713563
0.713573
0.713579
0.713583
0.713584
0.713583
0.71358
0.713576
0.71357
0.713564
0.713557
0.713549
0.711965
0.711979
0.711973
0.711984
0.711981
0.711987
0.711984
0.711988
0.711986
0.711988
0.711987
0.711988
0.711988
0.711988
0.711988
0.711989
0.711989
0.71199
0.711991
0.711992
0.711993
0.711994
0.711995
0.711997
0.711998
0.712
0.712002
0.712004
0.712006
0.712008
0.712011
0.712013
0.712016
0.712019
0.712022
0.712026
0.712029
0.712033
0.712036
0.71204
0.712044
0.712049
0.712053
0.712058
0.712062
0.712068
0.712073
0.712078
0.712083
0.712089
0.712095
0.712101
0.712107
0.712114
0.71212
0.712127
0.712134
0.712141
0.712149
0.712156
0.712164
0.712173
0.712181
0.71219
0.712199
0.712209
0.712218
0.712229
0.712239
0.712251
0.712262
0.712275
0.712288
0.712301
0.712316
0.712331
0.712348
0.712366
0.712385
0.712405
0.712428
0.712451
0.712477
0.712505
0.712535
0.712568
0.712602
0.712639
0.712679
0.71272
0.712764
0.712809
0.712856
0.712905
0.712954
0.713003
0.713053
0.713101
0.713149
0.713194
0.713238
0.713279
0.713316
0.713351
0.713382
0.71341
0.713433
0.713454
0.71347
0.713484
0.713494
0.713501
0.713506
0.713508
0.713509
0.713508
0.713505
0.713501
0.713497
0.713492
0.713487
0.713481
0.711989
0.711996
0.711988
0.71199
0.711985
0.711986
0.711984
0.711985
0.711984
0.711985
0.711984
0.711985
0.711985
0.711986
0.711986
0.711987
0.711988
0.711989
0.711989
0.711991
0.711992
0.711993
0.711994
0.711996
0.711998
0.712
0.712001
0.712004
0.712006
0.712008
0.712011
0.712013
0.712016
0.712019
0.712022
0.712026
0.712029
0.712033
0.712037
0.712041
0.712045
0.712049
0.712053
0.712058
0.712063
0.712068
0.712073
0.712078
0.712084
0.71209
0.712096
0.712102
0.712108
0.712115
0.712121
0.712128
0.712135
0.712143
0.71215
0.712158
0.712167
0.712175
0.712184
0.712193
0.712202
0.712212
0.712223
0.712233
0.712245
0.712256
0.712269
0.712282
0.712296
0.71231
0.712326
0.712342
0.71236
0.712379
0.712399
0.712421
0.712444
0.712469
0.712496
0.712525
0.712556
0.712588
0.712623
0.71266
0.712699
0.71274
0.712782
0.712825
0.71287
0.712915
0.71296
0.713006
0.71305
0.713093
0.713135
0.713174
0.713212
0.713246
0.713278
0.713306
0.713331
0.713353
0.713371
0.713387
0.713399
0.713409
0.713417
0.713422
0.713425
0.713426
0.713427
0.713426
0.713424
0.713422
0.713419
0.713416
0.713413
0.713409
0.711886
0.711968
0.711962
0.711986
0.711981
0.71199
0.711987
0.71199
0.711989
0.71199
0.711989
0.71199
0.711989
0.71199
0.71199
0.71199
0.711991
0.711991
0.711992
0.711993
0.711994
0.711995
0.711996
0.711997
0.711999
0.712001
0.712002
0.712005
0.712007
0.712009
0.712011
0.712014
0.712017
0.71202
0.712023
0.712027
0.71203
0.712034
0.712037
0.712042
0.712046
0.71205
0.712054
0.71206
0.712064
0.71207
0.712074
0.71208
0.712086
0.712092
0.712098
0.712104
0.712111
0.712117
0.712124
0.712132
0.712139
0.712147
0.712155
0.712163
0.712172
0.712181
0.712191
0.7122
0.712211
0.712221
0.712232
0.712244
0.712256
0.712269
0.712283
0.712297
0.712312
0.712328
0.712345
0.712363
0.712382
0.712403
0.712425
0.712448
0.712472
0.712499
0.712527
0.712556
0.712588
0.712621
0.712655
0.712692
0.712729
0.712768
0.712808
0.712848
0.712889
0.71293
0.71297
0.71301
0.713048
0.713085
0.71312
0.713152
0.713182
0.71321
0.713235
0.713256
0.713275
0.713292
0.713305
0.713317
0.713326
0.713333
0.713338
0.713342
0.713344
0.713346
0.713346
0.713346
0.713346
0.713345
0.713344
0.713344
0.713343
0.713343
0.712244
0.712202
0.712195
0.712154
0.712141
0.712098
0.712083
0.712032
0.712022
0.711949
0.711966
0.711993
0.711987
0.711992
0.711987
0.711989
0.711986
0.711988
0.711986
0.711987
0.711986
0.711987
0.711987
0.711988
0.711988
0.711989
0.71199
0.711991
0.711991
0.711992
0.711993
0.711995
0.711996
0.711998
0.711999
0.712001
0.712003
0.712005
0.712008
0.71201
0.712013
0.712015
0.712018
0.712021
0.712025
0.712028
0.712032
0.712035
0.712039
0.712044
0.712048
0.712053
0.712057
0.712062
0.712067
)
;

boundaryField
{
    inlet
    {
        type            zeroGradient;
    }
    outlet
    {
        type            fixedValue;
        value           nonuniform 0();
    }
    walls
    {
        type            zeroGradient;
    }
    symwall
    {
        type            empty;
    }
    procBoundary0to1
    {
        type            processor;
        value           nonuniform List<scalar> 10(0.71369 0.713686 0.71368 0.713664 0.713637 0.713596 0.713541 0.713476 0.713407 0.713343);
    }
    procBoundary0to2
    {
        type            processor;
        value           nonuniform List<scalar> 
133
(
0.712073
0.712078
0.712084
0.71209
0.712096
0.712103
0.71211
0.712117
0.712124
0.712132
0.712139
0.712148
0.712156
0.712165
0.712174
0.712184
0.712194
0.712204
0.712215
0.712227
0.712239
0.712251
0.712265
0.712278
0.712293
0.712308
0.712324
0.712341
0.712359
0.712378
0.712398
0.712419
0.712441
0.712465
0.71249
0.712516
0.712543
0.712572
0.712602
0.712634
0.712666
0.7127
0.712735
0.71277
0.712806
0.712843
0.712879
0.712915
0.71295
0.712984
0.713017
0.713049
0.713079
0.713106
0.713132
0.713155
0.713176
0.713194
0.71321
0.713224
0.713235
0.713245
0.713253
0.71326
0.713265
0.713269
0.713272
0.713275
0.713277
0.713278
0.71328
0.713281
0.713283
0.713284
0.713286
0.713288
0.71329
0.712253
0.712205
0.712199
0.712156
0.712143
0.712099
0.712084
0.712033
0.712017
0.711949
0.711925
0.711977
0.71197
0.711992
0.711986
0.711995
0.711991
0.711995
0.711992
0.711994
0.711992
0.711993
0.711992
0.711992
0.711992
0.711993
0.711993
0.711993
0.711994
0.711995
0.711995
0.711997
0.711998
0.711999
0.712001
0.712003
0.712005
0.712007
0.712009
0.712012
0.712014
0.712017
0.71202
0.712024
0.712027
0.712031
0.712034
0.712039
0.712043
0.712047
0.712052
0.712057
0.712062
0.712068
0.712073
0.712072
)
;
    }
}


// ************************************************************************* //
