/*--------------------------------*- C++ -*----------------------------------*\
| =========                 |                                                 |
| \\      /  F ield         | OpenFOAM: The Open Source CFD Toolbox           |
|  \\    /   O peration     | Version:  4.1                                   |
|   \\  /    A nd           | Web:      www.OpenFOAM.org                      |
|    \\/     M anipulation  |                                                 |
\*---------------------------------------------------------------------------*/
FoamFile
{
    version     2.0;
    format      ascii;
    class       volVectorField;
    location    "0.0153";
    object      U;
}
// * * * * * * * * * * * * * * * * * * * * * * * * * * * * * * * * * * * * * //

dimensions      [0 1 -1 0 0 0 0];

internalField   nonuniform List<vector> 
441
(
(-0.000121114 0.000108261 0)
(-0.000559461 0.000299905 0)
(-0.00115258 0.000458778 0)
(-0.00183448 0.000545416 0)
(-0.00253773 0.000565212 0)
(-0.00320663 0.000532913 0)
(-0.00379956 0.000463102 0)
(-0.00428729 0.000367568 0)
(-0.00465007 0.000255136 0)
(-0.00487518 0.000132343 0)
(-0.00495522 4.29483e-06 0)
(-0.00488721 -0.000124521 0)
(-0.00467239 -0.000249494 0)
(-0.00431672 -0.000365159 0)
(-0.00383197 -0.000464414 0)
(-0.00323769 -0.00053772 0)
(-0.00256376 -0.000572538 0)
(-0.00185316 -0.000553668 0)
(-0.00116347 -0.000466075 0)
(-0.000563937 -0.000304612 0)
(-0.000121777 -0.000109707 0)
(-0.000346216 0.000530732 0)
(-0.00151176 0.00137892 0)
(-0.00301485 0.00198017 0)
(-0.00469842 0.00228783 0)
(-0.00641011 0.00233712 0)
(-0.008025 0.00218618 0)
(-0.00944943 0.00189095 0)
(-0.0106173 0.00149662 0)
(-0.0114839 0.0010371 0)
(-0.0120204 0.000537545 0)
(-0.0122103 1.76399e-05 0)
(-0.0120468 -0.000505288 0)
(-0.0115329 -0.00101343 0)
(-0.0106822 -0.00148571 0)
(-0.00952128 -0.00189474 0)
(-0.00809445 -0.00220384 0)
(-0.006469 -0.00236489 0)
(-0.00474146 -0.00231959 0)
(-0.00304065 -0.00200867 0)
(-0.0015229 -0.0013978 0)
(-0.00034804 -0.000536825 0)
(-0.000557217 0.00114171 0)
(-0.00231223 0.0028649 0)
(-0.00450794 0.00400901 0)
(-0.00692635 0.00456706 0)
(-0.00936203 0.00462847 0)
(-0.0116473 0.0043091 0)
(-0.0136561 0.00371618 0)
(-0.0152994 0.00293559 0)
(-0.0165169 0.00203165 0)
(-0.0172701 0.00105201 0)
(-0.0175365 3.38914e-05 0)
(-0.0173074 -0.000990031 0)
(-0.0165866 -0.00198616 0)
(-0.0153918 -0.00291464 0)
(-0.013759 -0.00372358 0)
(-0.0117474 -0.00434337 0)
(-0.00944775 -0.00468249 0)
(-0.00698984 -0.00462906 0)
(-0.00454678 -0.00406498 0)
(-0.00232965 -0.00290235 0)
(-0.000560449 -0.00115393 0)
(-0.000732988 0.00191234 0)
(-0.00297291 0.00469378 0)
(-0.00572679 0.00646609 0)
(-0.00872678 0.00729688 0)
(-0.0117256 0.00735207 0)
(-0.0145245 0.00681931 0)
(-0.0169756 0.00586648 0)
(-0.0189752 0.00462656 0)
(-0.0204544 0.00319856 0)
(-0.0213692 0.00165542 0)
(-0.0216945 5.36874e-05 0)
(-0.0214199 -0.00155724 0)
(-0.020549 -0.00312655 0)
(-0.0191014 -0.00459358 0)
(-0.0171169 -0.0058788 0)
(-0.0146631 -0.00687482 0)
(-0.0118455 -0.00743964 0)
(-0.00881674 -0.00739775 0)
(-0.00578285 -0.00655761 0)
(-0.00299881 -0.00475534 0)
(-0.00073815 -0.00193253 0)
(-0.000888003 0.00282414 0)
(-0.00356137 0.00683 0)
(-0.00681398 0.00931182 0)
(-0.0103301 0.0104359 0)
(-0.0138224 0.0104654 0)
(-0.0170645 0.00967486 0)
(-0.0198913 0.00830339 0)
(-0.02219 0.0065378 0)
(-0.0238872 0.00451575 0)
(-0.0249374 0.00233741 0)
(-0.0253146 7.93734e-05 0)
(-0.0250078 -0.00219213 0)
(-0.0240192 -0.00440891 0)
(-0.022367 -0.00648853 0)
(-0.020091 -0.00832137 0)
(-0.0172624 -0.00975753 0)
(-0.0139958 -0.0105968 0)
(-0.0104623 -0.0105884 0)
(-0.00689819 -0.00945122 0)
(-0.0036015 -0.00692451 0)
(-0.000896461 -0.00285544 0)
(-0.00104209 0.00387606 0)
(-0.00415365 0.00927514 0)
(-0.00791153 0.0125509 0)
(-0.0119473 0.0139885 0)
(-0.0159302 0.0139692 0)
(-0.0196057 0.0128723 0)
(-0.0227934 0.0110204 0)
(-0.0253749 0.0086621 0)
(-0.0272765 0.00597797 0)
(-0.0284544 0.00309679 0)
(-0.0288843 0.000114784 0)
(-0.0285546 -0.00288626 0)
(-0.027465 -0.00582193 0)
(-0.0256294 -0.00858817 0)
(-0.0230833 -0.0110432 0)
(-0.0198964 -0.0129895 0)
(-0.0161886 -0.0141591 0)
(-0.012148 -0.0142117 0)
(-0.00804226 -0.0127575 0)
(-0.00421789 -0.00941702 0)
(-0.00105623 -0.00392403 0)
(-0.0012136 0.00508485 0)
(-0.0048188 0.0120666 0)
(-0.00914364 0.0162292 0)
(-0.0137559 0.0179986 0)
(-0.018274 0.0178994 0)
(-0.0224124 0.0164368 0)
(-0.0259774 0.0140331 0)
(-0.0288487 0.0110085 0)
(-0.0309573 0.00759083 0)
(-0.0322656 0.00393837 0)
(-0.0327532 0.000165152 0)
(-0.0324089 -0.00363444 0)
(-0.0312282 -0.0073627 0)
(-0.0292169 -0.0108954 0)
(-0.0264008 -0.0140574 0)
(-0.0228424 -0.0165975 0)
(-0.0186622 -0.0181679 0)
(-0.0140631 -0.0183204 0)
(-0.00934823 -0.0165322 0)
(-0.00492206 -0.0122788 0)
(-0.00123708 -0.00515885 0)
(-0.00141838 0.00648349 0)
(-0.00561651 0.0152738 0)
(-0.0106149 0.0204272 0)
(-0.0158996 0.0225409 0)
(-0.0210273 0.0223153 0)
(-0.025679 0.0204102 0)
(-0.0296506 0.017368 0)
(-0.0328262 0.0135924 0)
(-0.0351483 0.0093637 0)
(-0.0365915 0.00486922 0)
(-0.0371434 0.000237174 0)
(-0.0367943 -0.00443083 0)
(-0.0355334 -0.00902916 0)
(-0.0333537 -0.0134171 0)
(-0.0302639 -0.0173857 0)
(-0.0263103 -0.0206237 0)
(-0.0216063 -0.022689 0)
(-0.0163662 -0.0230005 0)
(-0.0109322 -0.0208696 0)
(-0.00578045 -0.015591 0)
(-0.00145656 -0.00659843 0)
(-0.00167 0.00812006 0)
(-0.00659813 0.0189938 0)
(-0.0124116 0.0252532 0)
(-0.0184895 0.0277102 0)
(-0.0243137 0.0272873 0)
(-0.0295305 0.0248372 0)
(-0.0339318 0.0210488 0)
(-0.0374167 0.0164244 0)
(-0.0399499 0.0113015 0)
(-0.0415264 0.00589442 0)
(-0.0421477 0.000338984 0)
(-0.0418072 -0.0052646 0)
(-0.040486 -0.0108116 0)
(-0.0381574 -0.0161517 0)
(-0.0348031 -0.0210441 0)
(-0.0304403 -0.0251113 0)
(-0.0251624 -0.0277987 0)
(-0.0191866 -0.0283602 0)
(-0.0128954 -0.0258961 0)
(-0.00685337 -0.0194679 0)
(-0.00173055 -0.00829891 0)
(-0.00197911 0.0100575 0)
(-0.00780445 0.0233488 0)
(-0.0145963 0.0308348 0)
(-0.0215936 0.0336082 0)
(-0.0281899 0.0328795 0)
(-0.034 0.0297468 0)
(-0.038825 0.0250799 0)
(-0.0425951 0.0194964 0)
(-0.0453123 0.0133949 0)
(-0.0470045 0.00701164 0)
(-0.0476943 0.000479659 0)
(-0.0473814 -0.00611529 0)
(-0.046036 -0.0126829 0)
(-0.0436046 -0.0190747 0)
(-0.0400281 -0.0250244 0)
(-0.0352767 -0.0300836 0)
(-0.0294032 -0.0335649 0)
(-0.0226106 -0.0345156 0)
(-0.0153172 -0.0317612 0)
(-0.00819254 -0.0240535 0)
(-0.00207261 -0.0103345 0)
(-0.00235029 0.0123727 0)
(-0.00925396 0.028479 0)
(-0.0171841 0.0373037 0)
(-0.0251992 0.0403211 0)
(-0.0325944 0.0391244 0)
(-0.038966 0.0351277 0)
(-0.0441468 0.0294236 0)
(-0.0481226 0.0227633 0)
(-0.0509533 0.0156073 0)
(-0.0527146 0.00820378 0)
(-0.0534599 0.000667675 0)
(-0.0531988 -0.00694823 0)
(-0.0518895 -0.0145874 0)
(-0.0494433 -0.0221211 0)
(-0.0457449 -0.0292699 0)
(-0.0406935 -0.0355156 0)
(-0.0342714 -0.040017 0)
(-0.0266373 -0.0415638 0)
(-0.0182273 -0.0386207 0)
(-0.00982776 -0.0295161 0)
(-0.00249056 -0.0127975 0)
(-0.00277449 0.0151533 0)
(-0.0109145 0.0345279 0)
(-0.0200881 0.0447672 0)
(-0.0291308 0.0478814 0)
(-0.0372415 0.0459813 0)
(-0.0440269 0.0408887 0)
(-0.0493885 0.0339679 0)
(-0.0534007 0.0261185 0)
(-0.0562062 0.0178575 0)
(-0.0579453 0.00942889 0)
(-0.058712 0.000907632 0)
(-0.058531 -0.00771053 0)
(-0.0573483 -0.0164284 0)
(-0.0550339 -0.0251625 0)
(-0.0514011 -0.0336425 0)
(-0.0462516 -0.0412904 0)
(-0.0394566 -0.0470968 0)
(-0.0310827 -0.0495365 0)
(-0.0215431 -0.0466005 0)
(-0.0117345 -0.036029 0)
(-0.00297807 -0.0157944 0)
(-0.00321435 0.0184865 0)
(-0.0126488 0.0416068 0)
(-0.0230197 0.0532502 0)
(-0.0329065 0.0561994 0)
(-0.0414417 0.0532696 0)
(-0.0482979 0.0468028 0)
(-0.0534991 0.0384824 0)
(-0.0572478 0.0293622 0)
(-0.0597949 0.0199991 0)
(-0.0613587 0.0106075 0)
(-0.0620817 0.00119473 0)
(-0.0620082 -0.00832907 0)
(-0.0610752 -0.0180565 0)
(-0.0591112 -0.0279828 0)
(-0.0558499 -0.0378804 0)
(-0.0509713 -0.0471386 0)
(-0.0441906 -0.0545813 0)
(-0.0354133 -0.0583165 0)
(-0.0249531 -0.0557252 0)
(-0.0137719 -0.0437272 0)
(-0.0034985 -0.0194338 0)
(-0.00357889 0.0224348 0)
(-0.0141222 0.049726 0)
(-0.0253241 0.0625942 0)
(-0.0355132 0.0649538 0)
(-0.0438373 0.0605714 0)
(-0.0501269 0.0524311 0)
(-0.0545968 0.0425664 0)
(-0.0576154 0.0321683 0)
(-0.0595563 0.0217997 0)
(-0.0607191 0.01161 0)
(-0.0612939 0.00150741 0)
(-0.0613475 -0.00871259 0)
(-0.060815 -0.0192633 0)
(-0.0594945 -0.0302563 0)
(-0.0570482 -0.0415538 0)
(-0.0530284 -0.0525628 0)
(-0.0469563 -0.0619744 0)
(-0.0384941 -0.0675072 0)
(-0.0277322 -0.0657918 0)
(-0.0155795 -0.0526206 0)
(-0.00395747 -0.0237968 0)
(-0.00368104 0.0269891 0)
(-0.0146511 0.0586722 0)
(-0.0257305 0.0722929 0)
(-0.0350913 0.073432 0)
(-0.0420624 0.067107 0)
(-0.0467614 0.0570409 0)
(-0.0496598 0.0456017 0)
(-0.0513072 0.0340613 0)
(-0.0521868 0.0229306 0)
(-0.0526579 0.0122504 0)
(-0.0529427 0.00180036 0)
(-0.0531263 -0.00876021 0)
(-0.0531544 -0.0197878 0)
(-0.0528227 -0.0315441 0)
(-0.0517595 -0.0440355 0)
(-0.0494215 -0.0567648 0)
(-0.0451356 -0.0683782 0)
(-0.0382504 -0.0762514 0)
(-0.0284674 -0.0761719 0)
(-0.0164121 -0.0624425 0)
(-0.00415776 -0.0288824 0)
(-0.00316138 0.0319877 0)
(-0.0129472 0.0678122 0)
(-0.0219726 0.0812558 0)
(-0.0285191 0.0803334 0)
(-0.0323629 0.0716106 0)
(-0.0340418 0.0595504 0)
(-0.0343017 0.0467446 0)
(-0.0338274 0.0344304 0)
(-0.0331457 0.0229856 0)
(-0.0326164 0.0122982 0)
(-0.0324536 0.00200275 0)
(-0.0327472 -0.00837906 0)
(-0.0334693 -0.0193474 0)
(-0.0344595 -0.031329 0)
(-0.0353897 -0.0445221 0)
(-0.0357167 -0.0586239 0)
(-0.0346566 -0.0723913 0)
(-0.0312515 -0.0830307 0)
(-0.0246605 -0.0855414 0)
(-0.0148682 -0.0724112 0)
(-0.00372063 -0.0345115 0)
(-0.00132031 0.0369641 0)
(-0.00661837 0.0757772 0)
(-0.0101692 0.0874983 0)
(-0.0108703 0.0835847 0)
(-0.00923759 0.0722838 0)
(-0.00624449 0.0585732 0)
(-0.00278776 0.0450104 0)
(0.000472396 0.0326189 0)
(0.00310715 0.0215531 0)
(0.0048608 0.0115222 0)
(0.00559154 0.00202874 0)
(0.00523052 -0.00751102 0)
(0.00376583 -0.0177044 0)
(0.00125486 -0.0291188 0)
(-0.00213032 -0.0421578 0)
(-0.00602087 -0.0568029 0)
(-0.00974167 -0.0721329 0)
(-0.0122273 -0.0855312 0)
(-0.0121166 -0.0915697 0)
(-0.00838085 -0.0808712 0)
(-0.00191593 -0.0401563 0)
(0.00335243 0.0408835 0)
(0.00897659 0.0800148 0)
(0.0163223 0.0878533 0)
(0.025329 0.0803318 0)
(0.0348218 0.066984 0)
(0.043775 0.0526823 0)
(0.051539 0.0395283 0)
(0.0577875 0.0281301 0)
(0.0623994 0.0183624 0)
(0.0653531 0.00977808 0)
(0.0666517 0.00180687 0)
(0.0662793 -0.0061649 0)
(0.0641804 -0.0147691 0)
(0.0602621 -0.0246342 0)
(0.054426 -0.0363143 0)
(0.0466464 -0.0500964 0)
(0.0371197 -0.0655731 0)
(0.0264944 -0.0807935 0)
(0.0161153 -0.0907286 0)
(0.00791345 -0.0848286 0)
(0.00281432 -0.0446424 0)
(0.0150508 0.0412958 0)
(0.0436753 0.0757588 0)
(0.0691139 0.077743 0)
(0.0910779 0.0673504 0)
(0.109321 0.0538664 0)
(0.123951 0.0410164 0)
(0.13529 0.0300133 0)
(0.14373 0.0209566 0)
(0.149649 0.013496 0)
(0.153341 0.00713057 0)
(0.154994 0.00132874 0)
(0.154663 -0.00444065 0)
(0.152263 -0.010716 0)
(0.147553 -0.018055 0)
(0.140128 -0.0270185 0)
(0.129422 -0.0380766 0)
(0.114765 -0.051344 0)
(0.095554 -0.0659266 0)
(0.0716528 -0.0783868 0)
(0.0440006 -0.0790658 0)
(0.0147358 -0.0452963 0)
(0.0491129 0.0340682 0)
(0.120548 0.056632 0)
(0.169009 0.0529838 0)
(0.20189 0.0430926 0)
(0.22507 0.0330321 0)
(0.241632 0.024401 0)
(0.253464 0.0174576 0)
(0.261777 0.0119819 0)
(0.267379 0.00761203 0)
(0.270793 0.00396994 0)
(0.272321 0.000699277 0)
(0.272068 -0.00253572 0)
(0.269953 -0.00606794 0)
(0.26568 -0.010247 0)
(0.258683 -0.0154482 0)
(0.248021 -0.0220553 0)
(0.232194 -0.0303846 0)
(0.20882 -0.0404486 0)
(0.174226 -0.0512113 0)
(0.122511 -0.0572503 0)
(0.0491828 -0.037522 0)
(0.182774 0.00451166 0)
(0.296222 0.00768315 0)
(0.349344 0.0107609 0)
(0.375565 0.0102002 0)
(0.390954 0.00825872 0)
(0.400711 0.00622137 0)
(0.40718 0.00447358 0)
(0.411501 0.00306516 0)
(0.414312 0.00193401 0)
(0.415983 0.000990602 0)
(0.416713 0.000144512 0)
(0.416577 -0.000689941 0)
(0.415536 -0.0015949 0)
(0.413423 -0.00264928 0)
(0.409894 -0.00392068 0)
(0.4043 -0.00543608 0)
(0.395395 -0.00710326 0)
(0.380505 -0.00853666 0)
(0.353636 -0.00871162 0)
(0.297667 -0.00646084 0)
(0.181049 -0.00714873 0)
)
;

boundaryField
{
    movingWall
    {
        type            fixedValue;
        value           uniform (0.5 0 0);
    }
    fixedWalls
    {
        type            noSlip;
    }
    frontAndBack
    {
        type            empty;
    }
}


// ************************************************************************* //
