/*--------------------------------*- C++ -*----------------------------------*\
| =========                 |                                                 |
| \\      /  F ield         | OpenFOAM: The Open Source CFD Toolbox           |
|  \\    /   O peration     | Version:  4.1                                   |
|   \\  /    A nd           | Web:      www.OpenFOAM.org                      |
|    \\/     M anipulation  |                                                 |
\*---------------------------------------------------------------------------*/
FoamFile
{
    version     2.0;
    format      ascii;
    class       volVectorField;
    location    "0.0027";
    object      U;
}
// * * * * * * * * * * * * * * * * * * * * * * * * * * * * * * * * * * * * * //

dimensions      [0 1 -1 0 0 0 0];

internalField   nonuniform List<vector> 
441
(
(-9.60797e-05 9.61172e-05 0)
(-0.000354778 0.000141344 0)
(-0.000609051 0.000151099 0)
(-0.00084814 0.000144635 0)
(-0.00106606 0.000131323 0)
(-0.00125863 0.000114198 0)
(-0.00142192 9.44062e-05 0)
(-0.0015526 7.25995e-05 0)
(-0.00164799 4.93085e-05 0)
(-0.00170619 2.50304e-05 0)
(-0.00172603 2.47735e-07 0)
(-0.0017071 -2.45628e-05 0)
(-0.00164974 -4.89222e-05 0)
(-0.00155503 -7.23415e-05 0)
(-0.00142482 -9.43135e-05 0)
(-0.00126173 -0.000114293 0)
(-0.00106908 -0.000131611 0)
(-0.000850798 -0.000145099 0)
(-0.000611098 -0.000151693 0)
(-0.000356023 -0.000141968 0)
(-9.64276e-05 -9.6569e-05 0)
(-0.000148443 0.000357923 0)
(-0.000586667 0.000564443 0)
(-0.00101425 0.000595446 0)
(-0.00141369 0.000566043 0)
(-0.00177604 0.00051251 0)
(-0.0020954 0.000445206 0)
(-0.00236581 0.000367882 0)
(-0.00258197 0.000282838 0)
(-0.00273964 0.000192069 0)
(-0.00283576 9.74865e-05 0)
(-0.00286848 9.56302e-07 0)
(-0.00283714 -9.56774e-05 0)
(-0.00274228 -0.000190562 0)
(-0.00258565 -0.000281809 0)
(-0.00237019 -0.00036747 0)
(-0.0021001 -0.000445494 0)
(-0.00178062 -0.00051352 0)
(-0.00141773 -0.000567718 0)
(-0.00101736 -0.00059762 0)
(-0.000588538 -0.000566754 0)
(-0.000148911 -0.000359518 0)
(-0.000172928 0.000633047 0)
(-0.000674777 0.00100557 0)
(-0.00116429 0.00105872 0)
(-0.00162166 0.0010049 0)
(-0.0020361 0.000908953 0)
(-0.00240087 0.00078904 0)
(-0.00270931 0.000651652 0)
(-0.00295558 0.000500798 0)
(-0.00313504 0.000339978 0)
(-0.00324439 0.000172535 0)
(-0.00328163 1.71068e-06 0)
(-0.00324607 -0.000169297 0)
(-0.00313826 -0.00033728 0)
(-0.00296006 -0.000498952 0)
(-0.00271467 -0.000650906 0)
(-0.00240662 -0.00078955 0)
(-0.00204172 -0.000910761 0)
(-0.00162663 -0.00100791 0)
(-0.00116812 -0.00106263 0)
(-0.000677088 -0.00100974 0)
(-0.000173511 -0.000635904 0)
(-0.00018947 0.000922912 0)
(-0.000734788 0.00146726 0)
(-0.00126596 0.0015436 0)
(-0.00176185 0.00146392 0)
(-0.00221046 0.00132306 0)
(-0.00260455 0.00114761 0)
(-0.00293709 0.000947107 0)
(-0.00320212 0.000727423 0)
(-0.00339499 0.000493628 0)
(-0.00351244 0.000250493 0)
(-0.00355253 2.59887e-06 0)
(-0.00351456 -0.000245573 0)
(-0.00339905 -0.00048952 0)
(-0.00320778 -0.000724603 0)
(-0.00294387 -0.000945956 0)
(-0.00261184 -0.00114837 0)
(-0.00221762 -0.0013258 0)
(-0.00176819 -0.00146851 0)
(-0.00127086 -0.00154959 0)
(-0.000737756 -0.00147364 0)
(-0.000190227 -0.000927292 0)
(-0.000207387 0.00123416 0)
(-0.000802482 0.00196081 0)
(-0.00138112 0.00206119 0)
(-0.00192027 0.001953 0)
(-0.00240674 0.00176324 0)
(-0.0028328 0.00152778 0)
(-0.00319125 0.00125959 0)
(-0.00347616 0.000966609 0)
(-0.00368308 0.000655567 0)
(-0.00380897 0.000332654 0)
(-0.00385207 3.70321e-06 0)
(-0.00381172 -0.000325637 0)
(-0.00368837 -0.000649692 0)
(-0.00348355 -0.000962555 0)
(-0.00320013 -0.00125791 0)
(-0.0028424 -0.00152883 0)
(-0.00241619 -0.00176715 0)
(-0.00192868 -0.00195957 0)
(-0.00138764 -0.0020698 0)
(-0.000806447 -0.00197 0)
(-0.000208405 -0.00124048 0)
(-0.000229838 0.00157536 0)
(-0.000888603 0.00250044 0)
(-0.00152777 0.00262586 0)
(-0.00212151 0.00248498 0)
(-0.00265516 0.00224036 0)
(-0.00312053 0.00193831 0)
(-0.00351039 0.00159582 0)
(-0.00381908 0.00122319 0)
(-0.00404262 0.00082893 0)
(-0.00417844 0.000420592 0)
(-0.0042251 5.1177e-06 0)
(-0.00418207 -0.000410884 0)
(-0.00404962 -0.000820772 0)
(-0.0038289 -0.00121752 0)
(-0.00352224 -0.00159339 0)
(-0.00313341 -0.00193967 0)
(-0.0026679 -0.00224571 0)
(-0.0021329 -0.0024941 0)
(-0.00153665 -0.00263789 0)
(-0.000894017 -0.00251334 0)
(-0.000231239 -0.00158424 0)
(-0.000258363 0.00195585 0)
(-0.000998333 0.00310086 0)
(-0.00171425 0.00325221 0)
(-0.00237645 0.00307258 0)
(-0.00296837 0.00276472 0)
(-0.00348147 0.00238713 0)
(-0.00390877 0.00196157 0)
(-0.00424532 0.00150114 0)
(-0.00448804 0.00101618 0)
(-0.00463522 0.000515528 0)
(-0.004686 6.95392e-06 0)
(-0.00464004 -0.000502316 0)
(-0.00449735 -0.00100502 0)
(-0.00425844 -0.00149329 0)
(-0.00392469 -0.0019581 0)
(-0.00349888 -0.00238881 0)
(-0.0029857 -0.00277191 0)
(-0.00239204 -0.00308503 0)
(-0.00172647 -0.00326877 0)
(-0.00100582 -0.00311872 0)
(-0.000260312 -0.00196819 0)
(-0.000294376 0.0023865 0)
(-0.0011368 0.00377856 0)
(-0.00194869 0.00395618 0)
(-0.00269519 0.00372914 0)
(-0.00335746 0.00334658 0)
(-0.00392684 0.00288156 0)
(-0.00439714 0.00236176 0)
(-0.00476488 0.00180349 0)
(-0.0050286 0.00121905 0)
(-0.00518804 0.000618287 0)
(-0.00524332 9.34821e-06 0)
(-0.00519442 -0.000600489 0)
(-0.00504096 -0.00120392 0)
(-0.00478239 -0.00179269 0)
(-0.00441853 -0.00235676 0)
(-0.00395041 -0.00288351 0)
(-0.00338115 -0.00335607 0)
(-0.00271669 -0.00374595 0)
(-0.00196565 -0.00397884 0)
(-0.00114726 -0.00380317 0)
(-0.000297111 -0.00240357 0)
(-0.000339731 0.00288045 0)
(-0.00131089 0.00455302 0)
(-0.00224184 0.004756 0)
(-0.00309081 0.00446908 0)
(-0.0038362 0.00399614 0)
(-0.00446984 0.00342809 0)
(-0.00498743 0.00279998 0)
(-0.00538814 0.00213197 0)
(-0.00567329 0.00143823 0)
(-0.00584496 0.000729133 0)
(-0.00590482 1.24659e-05 0)
(-0.00585335 -0.000705336 0)
(-0.00568961 -0.00141782 0)
(-0.00541141 -0.00211713 0)
(-0.0050161 -0.00279274 0)
(-0.00450177 -0.0034301 0)
(-0.00386866 -0.00400844 0)
(-0.00312058 -0.00449159 0)
(-0.00226557 -0.00478687 0)
(-0.00132563 -0.00458692 0)
(-0.000343604 -0.0029041 0)
(-0.000397096 0.00345433 0)
(-0.00153054 0.00544822 0)
(-0.00260895 0.00567303 0)
(-0.00358126 0.00530804 0)
(-0.00442282 0.00472312 0)
(-0.00512722 0.00403153 0)
(-0.00569391 0.00327772 0)
(-0.00612671 0.00248622 0)
(-0.00643143 0.00167279 0)
(-0.00661378 0.000847474 0)
(-0.00667777 1.65017e-05 0)
(-0.00662469 -0.000815867 0)
(-0.00645275 -0.00164538 0)
(-0.00615739 -0.00246583 0)
(-0.00573216 -0.00326709 0)
(-0.0051704 -0.00403313 0)
(-0.00446737 -0.00473869 0)
(-0.00362273 -0.00533795 0)
(-0.00264246 -0.00571504 0)
(-0.00155156 -0.00549503 0)
(-0.000402649 -0.00348726 0)
(-0.000470473 0.00412993 0)
(-0.00181059 0.00649457 0)
(-0.00307227 0.0067328 0)
(-0.00419183 0.00626271 0)
(-0.00514185 0.00553565 0)
(-0.00592023 0.00469363 0)
(-0.00653348 0.00379284 0)
(-0.00699312 0.00286257 0)
(-0.00731198 0.00191934 0)
(-0.00750118 0.000971419 0)
(-0.00756809 2.16742e-05 0)
(-0.00751516 -0.000929727 0)
(-0.00733951 -0.00188269 0)
(-0.00703316 -0.0028345 0)
(-0.00658415 -0.00377707 0)
(-0.00597846 -0.00469379 0)
(-0.0052031 -0.00555474 0)
(-0.00424999 -0.00630201 0)
(-0.0031201 -0.00678991 0)
(-0.00184103 -0.00655953 0)
(-0.000478561 -0.00417618 0)
(-0.000566013 0.00493706 0)
(-0.00217378 0.00773202 0)
(-0.00366485 0.0079661 0)
(-0.00495855 0.00734987 0)
(-0.00602637 0.00643825 0)
(-0.00687567 0.00541053 0)
(-0.00752552 0.00433729 0)
(-0.00799993 0.00325222 0)
(-0.00832217 0.00217082 0)
(-0.00851103 0.00109717 0)
(-0.00857849 2.82091e-05 0)
(-0.00852862 -0.00104262 0)
(-0.00835711 -0.00212203 0)
(-0.00805147 -0.00321352 0)
(-0.007592 -0.00431362 0)
(-0.00695383 -0.00540724 0)
(-0.0061107 -0.00646042 0)
(-0.00504077 -0.00740069 0)
(-0.00373415 -0.00804362 0)
(-0.00221874 -0.00782285 0)
(-0.00057805 -0.00500285 0)
(-0.000693272 0.00591849 0)
(-0.0026556 0.00921511 0)
(-0.00443646 0.00941025 0)
(-0.00593263 0.00858431 0)
(-0.00712007 0.00742789 0)
(-0.00802561 0.00616876 0)
(-0.0086901 0.00489373 0)
(-0.0091569 0.0036388 0)
(-0.00946418 0.00241494 0)
(-0.00964091 0.00121828 0)
(-0.00970498 3.63072e-05 0)
(-0.0096625 -0.0011476 0)
(-0.00950752 -0.00235039 0)
(-0.00922199 -0.00358542 0)
(-0.0087761 -0.00485787 0)
(-0.00812974 -0.0061582 0)
(-0.0072362 -0.00745111 0)
(-0.00604987 -0.00864826 0)
(-0.00453864 -0.00951506 0)
(-0.00272374 -0.00934338 0)
(-0.000711687 -0.00601382 0)
(-0.000866381 0.00713913 0)
(-0.00331004 0.0110222 0)
(-0.00545901 0.0111105 0)
(-0.00718176 0.00997413 0)
(-0.00847367 0.00848724 0)
(-0.00940006 0.00693888 0)
(-0.0100383 0.00543078 0)
(-0.0104602 0.0039953 0)
(-0.010724 0.00263242 0)
(-0.0108709 0.00132484 0)
(-0.0109255 4.6095e-05 0)
(-0.0108964 -0.0012344 0)
(-0.0107759 -0.0025477 0)
(-0.0105401 -0.00392172 0)
(-0.010147 -0.00537614 0)
(-0.00953675 -0.0069141 0)
(-0.0086328 -0.0085061 0)
(-0.00734998 -0.0100507 0)
(-0.00561247 -0.0112508 0)
(-0.00341637 -0.0112056 0)
(-0.000895461 -0.0072808 0)
(-0.00110048 0.00870323 0)
(-0.00420337 0.0132728 0)
(-0.00681115 0.0131208 0)
(-0.00876161 0.0115112 0)
(-0.0101056 0.00957294 0)
(-0.010981 0.00766611 0)
(-0.011523 0.00589687 0)
(-0.0118427 0.0042806 0)
(-0.0120214 0.00279538 0)
(-0.0121137 0.00140287 0)
(-0.0121503 5.75639e-05 0)
(-0.012142 -0.00128885 0)
(-0.0120802 -0.00268536 0)
(-0.0119356 -0.00417951 0)
(-0.0116546 -0.00581344 0)
(-0.0111544 -0.00761474 0)
(-0.010319 -0.0095751 0)
(-0.00900132 -0.0115937 0)
(-0.00704364 -0.0133045 0)
(-0.00437324 -0.0135384 0)
(-0.00114764 -0.00892105 0)
(-0.00137864 0.0107848 0)
(-0.0053205 0.0161581 0)
(-0.008431 0.0155003 0)
(-0.0105265 0.013151 0)
(-0.0117874 0.0105958 0)
(-0.0124762 0.00825697 0)
(-0.0128094 0.00621331 0)
(-0.0129432 0.00443669 0)
(-0.0129811 0.00286654 0)
(-0.0129864 0.00143418 0)
(-0.0129933 7.04951e-05 0)
(-0.0130137 -0.00129302 0)
(-0.0130392 -0.00272558 0)
(-0.0130389 -0.0042988 0)
(-0.0129523 -0.00608638 0)
(-0.0126771 -0.00815789 0)
(-0.0120537 -0.0105556 0)
(-0.010851 -0.0132177 0)
(-0.0087732 -0.0157277 0)
(-0.00558987 -0.0165461 0)
(-0.00145484 -0.0111336 0)
(-0.00147824 0.0136494 0)
(-0.00605557 0.0199513 0)
(-0.00937837 0.0182708 0)
(-0.0112629 0.0147609 0)
(-0.01212 0.0113849 0)
(-0.0123755 0.0085611 0)
(-0.0123272 0.00626775 0)
(-0.012162 0.00438796 0)
(-0.0119891 0.00280035 0)
(-0.0118686 0.00139732 0)
(-0.0118303 8.42411e-05 0)
(-0.0118845 -0.00122655 0)
(-0.012025 -0.00262328 0)
(-0.0122269 -0.00420271 0)
(-0.0124354 -0.00607763 0)
(-0.0125477 -0.00838111 0)
(-0.0123803 -0.0112537 0)
(-0.011626 -0.0147572 0)
(-0.00981567 -0.018514 0)
(-0.00644299 -0.0205099 0)
(-0.00159039 -0.0142298 0)
(-0.000250953 0.017563 0)
(-0.00317358 0.0248473 0)
(-0.00505533 0.0212259 0)
(-0.0055995 0.0159887 0)
(-0.00534531 0.0116235 0)
(-0.00474677 0.00834941 0)
(-0.00407467 0.00591188 0)
(-0.00347382 0.00404511 0)
(-0.00301427 0.00254718 0)
(-0.00272674 0.00126952 0)
(-0.00262311 9.6774e-05 0)
(-0.0027069 -0.00107085 0)
(-0.00297679 -0.00233305 0)
(-0.00342424 -0.00380547 0)
(-0.00402464 -0.00563924 0)
(-0.00471908 -0.00804672 0)
(-0.00538047 -0.0113249 0)
(-0.00575544 -0.015802 0)
(-0.00537108 -0.0213772 0)
(-0.00356293 -0.0255833 0)
(-0.000363394 -0.018537 0)
(0.00713274 0.021787 0)
(0.0154079 0.0295718 0)
(0.0204534 0.0230369 0)
(0.0239979 0.0158571 0)
(0.0266551 0.0107117 0)
(0.0286915 0.00728569 0)
(0.0302453 0.00496659 0)
(0.0313932 0.00331574 0)
(0.0321881 0.00206079 0)
(0.0326676 0.00102939 0)
(0.0328554 0.000102213 0)
(0.0327614 -0.000817045 0)
(0.0323812 -0.00182352 0)
(0.031696 -0.00303326 0)
(0.0306703 -0.00461424 0)
(0.0292442 -0.00683914 0)
(0.0273095 -0.010171 0)
(0.0246531 -0.0153201 0)
(0.0209082 -0.0228368 0)
(0.015478 -0.0302965 0)
(0.00718511 -0.0233607 0)
(0.039147 0.0228474 0)
(0.0842625 0.0291845 0)
(0.107345 0.0202363 0)
(0.118681 0.0125426 0)
(0.124848 0.00781827 0)
(0.12854 0.00502014 0)
(0.130927 0.00329394 0)
(0.132518 0.00214861 0)
(0.133557 0.00132138 0)
(0.134173 0.000664921 0)
(0.134431 8.67655e-05 0)
(0.134357 -0.000482872 0)
(0.133942 -0.00111173 0)
(0.13314 -0.00188547 0)
(0.131848 -0.00293828 0)
(0.129835 -0.00451366 0)
(0.126571 -0.0070909 0)
(0.120752 -0.0115836 0)
(0.109346 -0.0193242 0)
(0.0853686 -0.029265 0)
(0.0396063 -0.0249227 0)
(0.177577 0.00274765 0)
(0.27761 0.00245939 0)
(0.317875 0.00347147 0)
(0.333225 0.00291038 0)
(0.340188 0.00203976 0)
(0.343745 0.00136815 0)
(0.345801 0.000908846 0)
(0.347075 0.000594952 0)
(0.347874 0.000368574 0)
(0.348343 0.00019125 0)
(0.348547 3.74359e-05 0)
(0.348514 -0.000112019 0)
(0.348236 -0.00027483 0)
(0.34767 -0.000471325 0)
(0.346704 -0.000727642 0)
(0.345066 -0.00107521 0)
(0.342049 -0.00153196 0)
(0.335641 -0.00202986 0)
(0.320354 -0.00217333 0)
(0.278644 -0.00157549 0)
(0.176282 -0.00516072 0)
)
;

boundaryField
{
    movingWall
    {
        type            fixedValue;
        value           uniform (0.5 0 0);
    }
    fixedWalls
    {
        type            noSlip;
    }
    frontAndBack
    {
        type            empty;
    }
}


// ************************************************************************* //
