/*--------------------------------*- C++ -*----------------------------------*\
| =========                 |                                                 |
| \\      /  F ield         | OpenFOAM: The Open Source CFD Toolbox           |
|  \\    /   O peration     | Version:  4.1                                   |
|   \\  /    A nd           | Web:      www.OpenFOAM.org                      |
|    \\/     M anipulation  |                                                 |
\*---------------------------------------------------------------------------*/
FoamFile
{
    version     2.0;
    format      ascii;
    class       volVectorField;
    location    "0.0441";
    object      U;
}
// * * * * * * * * * * * * * * * * * * * * * * * * * * * * * * * * * * * * * //

dimensions      [0 1 -1 0 0 0 0];

internalField   nonuniform List<vector> 
441
(
(-9.55397e-05 7.34161e-05 0)
(-0.000490791 0.000290654 0)
(-0.00112327 0.00052349 0)
(-0.00194783 0.000696142 0)
(-0.00288726 0.000787494 0)
(-0.00385514 0.000796837 0)
(-0.00476955 0.000732499 0)
(-0.00555971 0.000606951 0)
(-0.00616904 0.000434376 0)
(-0.00655616 0.000229546 0)
(-0.00669519 7.46573e-06 0)
(-0.00657593 -0.00021656 0)
(-0.00620426 -0.000426725 0)
(-0.00560284 -0.000606633 0)
(-0.0048118 -0.000739569 0)
(-0.00388883 -0.000809358 0)
(-0.0029079 -0.000802068 0)
(-0.00195527 -0.000708962 0)
(-0.00112148 -0.000531684 0)
(-0.000486033 -0.000293508 0)
(-9.35392e-05 -7.27344e-05 0)
(-0.000363883 0.000439245 0)
(-0.00162283 0.0014166 0)
(-0.00343144 0.00233122 0)
(-0.00566741 0.00298916 0)
(-0.00814562 0.0033228 0)
(-0.0106607 0.00333041 0)
(-0.0130161 0.0030444 0)
(-0.0150408 0.00251392 0)
(-0.0165969 0.00179537 0)
(-0.0175832 0.000947736 0)
(-0.0179365 3.10683e-05 0)
(-0.0176319 -0.000893372 0)
(-0.0166843 -0.00176233 0)
(-0.0151495 -0.00251025 0)
(-0.0131254 -0.00307042 0)
(-0.0107521 -0.00337853 0)
(-0.0082074 -0.00337953 0)
(-0.00569755 -0.0030393 0)
(-0.00343743 -0.00236316 0)
(-0.00161798 -0.0014273 0)
(-0.000361135 -0.000436888 0)
(-0.000671249 0.00108315 0)
(-0.00281874 0.00318011 0)
(-0.00573299 0.00498552 0)
(-0.00921465 0.00623626 0)
(-0.012995 0.00683774 0)
(-0.0167832 0.00679781 0)
(-0.0203026 0.00618272 0)
(-0.0233124 0.00508912 0)
(-0.0256184 0.00362732 0)
(-0.027078 0.00191276 0)
(-0.0276021 6.29593e-05 0)
(-0.0271554 -0.0018022 0)
(-0.0257584 -0.00355901 0)
(-0.0234893 -0.00507928 0)
(-0.0204852 -0.00623259 0)
(-0.0169425 -0.00689301 0)
(-0.0131113 -0.00695207 0)
(-0.00928168 -0.00633946 0)
(-0.00575895 -0.00505365 0)
(-0.00282151 -0.0032055 0)
(-0.000669851 -0.00108054 0)
(-0.000973957 0.00201143 0)
(-0.00399106 0.00559496 0)
(-0.00796007 0.00849673 0)
(-0.0125966 0.0104317 0)
(-0.0175507 0.0113069 0)
(-0.0224589 0.0111581 0)
(-0.0269826 0.0100995 0)
(-0.0308303 0.0082871 0)
(-0.0337689 0.00589589 0)
(-0.0356281 0.00310763 0)
(-0.036301 0.000106586 0)
(-0.0357448 -0.00291958 0)
(-0.0339821 -0.00577719 0)
(-0.0311039 -0.00826512 0)
(-0.0272723 -0.0101777 0)
(-0.0227216 -0.0113145 0)
(-0.0177545 -0.0114997 0)
(-0.0127276 -0.0106109 0)
(-0.00802484 -0.0086207 0)
(-0.00401148 -0.00564702 0)
(-0.000976398 -0.00201166 0)
(-0.00126872 0.00322248 0)
(-0.0051387 0.00866527 0)
(-0.0101366 0.0128737 0)
(-0.0158851 0.0155787 0)
(-0.0219494 0.0167212 0)
(-0.0278969 0.01639 0)
(-0.0333358 0.014766 0)
(-0.0379367 0.0120791 0)
(-0.0414401 0.00857982 0)
(-0.0436579 0.0045242 0)
(-0.044472 0.000169582 0)
(-0.0438336 -0.00422306 0)
(-0.0417639 -0.00838407 0)
(-0.0383584 -0.0120318 0)
(-0.0337921 -0.0148752 0)
(-0.0283241 -0.0166258 0)
(-0.0222969 -0.0170223 0)
(-0.0161256 -0.0158689 0)
(-0.0102714 -0.0130852 0)
(-0.00519327 -0.00876485 0)
(-0.00127908 -0.00323193 0)
(-0.00156293 0.00471843 0)
(-0.00628966 0.0124005 0)
(-0.0123169 0.01813 0)
(-0.0191663 0.0216864 0)
(-0.0263126 0.0230792 0)
(-0.0332546 0.0224805 0)
(-0.0395544 0.0201619 0)
(-0.0448539 0.0164442 0)
(-0.0488777 0.0116645 0)
(-0.0514292 0.00615958 0)
(-0.0523849 0.0002632 0)
(-0.0516908 -0.00568847 0)
(-0.0493631 -0.0113474 0)
(-0.0454938 -0.0163467 0)
(-0.0402598 -0.0203006 0)
(-0.0339326 -0.0228176 0)
(-0.0268843 -0.0235296 0)
(-0.0195828 -0.0221385 0)
(-0.0125685 -0.0184779 0)
(-0.00640363 -0.0125821 0)
(-0.00158754 -0.00474914 0)
(-0.00186501 0.00650993 0)
(-0.00747423 0.0168228 0)
(-0.0145511 0.0242878 0)
(-0.022505 0.0287675 0)
(-0.0307152 0.0303791 0)
(-0.0386134 0.0294141 0)
(-0.0457225 0.0262633 0)
(-0.0516671 0.0213579 0)
(-0.0561675 0.015133 0)
(-0.0590286 0.00801096 0)
(-0.0601276 0.00040152 0)
(-0.059407 -0.00728617 0)
(-0.0568743 -0.0146276 0)
(-0.0526091 -0.0211687 0)
(-0.0467775 -0.0264219 0)
(-0.0396494 -0.0298765 0)
(-0.0316142 -0.0310318 0)
(-0.0231851 -0.029452 0)
(-0.0149828 -0.0248433 0)
(-0.00768269 -0.0171397 0)
(-0.00191277 -0.00658236 0)
(-0.00218056 0.00861531 0)
(-0.00871149 0.021963 0)
(-0.0168636 0.0313709 0)
(-0.02592 0.0368262 0)
(-0.035159 0.0386021 0)
(-0.0439504 0.037153 0)
(-0.0517898 0.0330225 0)
(-0.0582993 0.0267747 0)
(-0.0632104 0.0189534 0)
(-0.0663422 0.010068 0)
(-0.0675811 0.000600081 0)
(-0.0668686 -0.00897569 0)
(-0.0641995 -0.0181654 0)
(-0.059631 -0.0264313 0)
(-0.0533029 -0.0331789 0)
(-0.045465 -0.0377628 0)
(-0.0365053 -0.0395199 0)
(-0.0269694 -0.0378342 0)
(-0.0175545 -0.0322318 0)
(-0.00905953 -0.0224927 0)
(-0.0022631 -0.00876139 0)
(-0.00251016 0.0110575 0)
(-0.0100009 0.0278525 0)
(-0.0192386 0.0393895 0)
(-0.0293619 0.045838 0)
(-0.0395461 0.0476883 0)
(-0.0491097 0.0456118 0)
(-0.0575397 0.0403448 0)
(-0.0644781 0.0326076 0)
(-0.0696887 0.0230623 0)
(-0.0730218 0.0123031 0)
(-0.0743842 0.000873621 0)
(-0.0737208 -0.0107004 0)
(-0.07101 -0.0218696 0)
(-0.0662751 -0.0320224 0)
(-0.0596105 -0.0404579 0)
(-0.0512204 -0.0463823 0)
(-0.0414644 -0.0489385 0)
(-0.0308969 -0.0472787 0)
(-0.0202798 -0.0406814 0)
(-0.0105424 -0.0287006 0)
(-0.00264167 -0.0113235 0)
(-0.00284741 0.0138592 0)
(-0.0113149 0.0345091 0)
(-0.0216048 0.0483193 0)
(-0.0326916 0.0557219 0)
(-0.0436498 0.0575059 0)
(-0.0537671 0.0546266 0)
(-0.0625517 0.0480589 0)
(-0.0696967 0.0387038 0)
(-0.0750261 0.0273473 0)
(-0.0784437 0.0146609 0)
(-0.0798914 0.00123256 0)
(-0.0793237 -0.0123827 0)
(-0.0767006 -0.0256033 0)
(-0.0719989 -0.0377624 0)
(-0.0652444 -0.0480618 0)
(-0.0565635 -0.0555515 0)
(-0.0462484 -0.0591487 0)
(-0.0348242 -0.057714 0)
(-0.0230916 -0.0501921 0)
(-0.0121096 -0.0358106 0)
(-0.00304407 -0.0143083 0)
(-0.0031765 0.0170374 0)
(-0.0125899 0.0419198 0)
(-0.0238182 0.0580725 0)
(-0.0356522 0.0663046 0)
(-0.0470787 0.0678124 0)
(-0.0573899 0.0639177 0)
(-0.0661585 0.055885 0)
(-0.0731705 0.0448183 0)
(-0.0783457 0.0316276 0)
(-0.0816675 0.0170452 0)
(-0.0831307 0.00167804 0)
(-0.0827086 -0.0139213 0)
(-0.0803418 -0.0291719 0)
(-0.0759494 -0.0433823 0)
(-0.0694643 -0.0556782 0)
(-0.0608959 -0.0649561 0)
(-0.0504169 -0.0698816 0)
(-0.038466 -0.0689583 0)
(-0.0258351 -0.0606889 0)
(-0.0136967 -0.0438357 0)
(-0.00345523 -0.0177507 0)
(-0.00346809 0.0205962 0)
(-0.0137116 0.0500183 0)
(-0.0256342 0.0684615 0)
(-0.0378295 0.0772761 0)
(-0.0492284 0.0782093 0)
(-0.0591841 0.0730489 0)
(-0.0673944 0.0634015 0)
(-0.0737908 0.0505895 0)
(-0.0784284 0.0356357 0)
(-0.0813988 0.0193077 0)
(-0.0827679 0.00219548 0)
(-0.0825384 -0.0151913 0)
(-0.0806346 -0.032316 0)
(-0.0769105 -0.0485059 0)
(-0.0711842 -0.0628482 0)
(-0.0633069 -0.0741069 0)
(-0.053269 -0.0806839 0)
(-0.0413425 -0.0806619 0)
(-0.0282318 -0.0719728 0)
(-0.015178 -0.0527236 0)
(-0.00384427 -0.0216715 0)
(-0.00367183 0.0245179 0)
(-0.0144889 0.0586552 0)
(-0.0266609 0.0791508 0)
(-0.0385878 0.0881337 0)
(-0.0492088 0.0880901 0)
(-0.058024 0.0813863 0)
(-0.0649349 0.0700166 0)
(-0.0700768 0.0555203 0)
(-0.0736791 0.0390069 0)
(-0.075965 0.0212397 0)
(-0.0770865 0.00274768 0)
(-0.0770859 -0.0160502 0)
(-0.0758787 -0.0347133 0)
(-0.073255 -0.0526435 0)
(-0.0689074 -0.068946 0)
(-0.0624944 -0.0822993 0)
(-0.0537572 -0.0908578 0)
(-0.0427002 -0.0922371 0)
(-0.0298204 -0.0836554 0)
(-0.0163338 -0.0623146 0)
(-0.00415565 -0.0260645 0)
(-0.00370129 0.0287497 0)
(-0.0146018 0.0675555 0)
(-0.0262716 0.0895923 0)
(-0.0369602 0.0981147 0)
(-0.0457311 0.0965866 0)
(-0.0523531 0.0880657 0)
(-0.0570217 0.074954 0)
(-0.0601302 0.0589774 0)
(-0.0621067 0.0412817 0)
(-0.0633148 0.022573 0)
(-0.0639964 0.003269 0)
(-0.0642402 -0.0163511 0)
(-0.0639652 -0.0359962 0)
(-0.0629135 -0.055206 0)
(-0.0606622 -0.0731792 0)
(-0.0566667 -0.0885894 0)
(-0.0503671 -0.0994063 0)
(-0.0413889 -0.102776 0)
(-0.0298559 -0.0950733 0)
(-0.0167904 -0.072281 0)
(-0.00429249 -0.0308768 0)
(-0.00340245 0.0331811 0)
(-0.0134944 0.0762513 0)
(-0.0234373 0.0989323 0)
(-0.0314546 0.106115 0)
(-0.0369263 0.102522 0)
(-0.0400416 0.0919829 0)
(-0.0413732 0.0772716 0)
(-0.0415964 0.0602219 0)
(-0.0413294 0.0419358 0)
(-0.0410547 0.0229975 0)
(-0.0410877 0.00366448 0)
(-0.0415612 -0.0159647 0)
(-0.0424139 -0.0357921 0)
(-0.0433748 -0.0555551 0)
(-0.0439502 -0.0746325 0)
(-0.0434291 -0.0918096 0)
(-0.0409461 -0.105 0)
(-0.0356617 -0.110967 0)
(-0.0271296 -0.105173 0)
(-0.0159048 -0.0820352 0)
(-0.0040835 -0.0359775 0)
(-0.00248379 0.0375968 0)
(-0.0101441 0.0839648 0)
(-0.0163953 0.105876 0)
(-0.0197087 0.110599 0)
(-0.0200564 0.104393 0)
(-0.0181902 0.091837 0)
(-0.0150833 0.0759383 0)
(-0.0116482 0.0584935 0)
(-0.00862214 0.0404513 0)
(-0.00654105 0.022206 0)
(-0.00574713 0.00381919 0)
(-0.00640019 -0.014809 0)
(-0.00847585 -0.0337922 0)
(-0.0117441 -0.0531028 0)
(-0.015729 -0.0723793 0)
(-0.0196625 -0.0906591 0)
(-0.0224679 -0.106006 0)
(-0.0228513 -0.115024 0)
(-0.0196345 -0.112367 0)
(-0.0125269 -0.0905854 0)
(-0.00321244 -0.0410995 0)
(-0.000342585 0.0415643 0)
(-0.00254081 0.089379 0)
(-0.00199058 0.108488 0)
(0.00210862 0.109535 0)
(0.008917 0.100437 0)
(0.0171149 0.0862784 0)
(0.0254615 0.0700094 0)
(0.032978 0.0531742 0)
(0.0389636 0.0364448 0)
(0.0429489 0.0199743 0)
(0.0446421 0.00362462 0)
(0.0438907 -0.0128827 0)
(0.0406705 -0.0298476 0)
(0.0351064 -0.0474704 0)
(0.0275296 -0.0656892 0)
(0.0185701 -0.0839224 0)
(0.0092691 -0.100644 0)
(0.00114703 -0.112703 0)
(-0.0039337 -0.114358 0)
(-0.0044799 -0.0962827 0)
(-0.00104572 -0.045713 0)
(0.0044303 0.0441938 0)
(0.0135526 0.0902454 0)
(0.0256413 0.103972 0)
(0.0402859 0.100457 0)
(0.0559046 0.0888978 0)
(0.0710265 0.0742476 0)
(0.084569 0.0589476 0)
(0.0958244 0.0440489 0)
(0.104364 0.029856 0)
(0.109939 0.0162794 0)
(0.1124 0.00302598 0)
(0.111646 -0.0102914 0)
(0.107607 -0.0240809 0)
(0.100251 -0.0386997 0)
(0.089637 -0.054348 0)
(0.076008 -0.0708755 0)
(0.059958 -0.0873986 0)
(0.0426543 -0.101546 0)
(0.0260427 -0.108051 0)
(0.0126463 -0.0964409 0)
(0.00386321 -0.0487644 0)
(0.0159676 0.0432778 0)
(0.0477155 0.0823319 0)
(0.0775816 0.0884253 0)
(0.104968 0.080876 0)
(0.129206 0.068671 0)
(0.149916 0.055591 0)
(0.166954 0.0431066 0)
(0.18032 0.0316459 0)
(0.190087 0.0211705 0)
(0.196345 0.0114312 0)
(0.199144 0.00208473 0)
(0.198475 -0.00725243 0)
(0.194239 -0.0169753 0)
(0.186251 -0.027465 0)
(0.174241 -0.0390465 0)
(0.157889 -0.0518927 0)
(0.136901 -0.0657921 0)
(0.111176 -0.0795671 0)
(0.0811824 -0.0896379 0)
(0.0484711 -0.0864553 0)
(0.0156918 -0.0478295 0)
(0.0496442 0.0349512 0)
(0.123105 0.0598868 0)
(0.174692 0.0584968 0)
(0.211607 0.0501908 0)
(0.23937 0.0408457 0)
(0.260633 0.0320941 0)
(0.27688 0.0243475 0)
(0.288994 0.0175757 0)
(0.297549 0.0115935 0)
(0.302917 0.00616148 0)
(0.305309 0.00102418 0)
(0.304792 -0.0040775 0)
(0.301281 -0.00940293 0)
(0.294522 -0.01521 0)
(0.28405 -0.0217495 0)
(0.269107 -0.029246 0)
(0.248478 -0.037841 0)
(0.220172 -0.0473981 0)
(0.180999 -0.0568199 0)
(0.125554 -0.0607893 0)
(0.0497687 -0.0386447 0)
(0.182901 0.00470434 0)
(0.296958 0.0084647 0)
(0.351196 0.012141 0)
(0.378995 0.0119996 0)
(0.396251 0.0102444 0)
(0.407953 0.00817271 0)
(0.416248 0.00621316 0)
(0.422133 0.00446719 0)
(0.426145 0.00291947 0)
(0.428596 0.0015168 0)
(0.429655 0.000194938 0)
(0.429385 -0.00111197 0)
(0.427753 -0.00246689 0)
(0.424613 -0.00392475 0)
(0.419663 -0.00552064 0)
(0.412334 -0.00724049 0)
(0.401495 -0.00894776 0)
(0.384642 -0.0102207 0)
(0.355982 -0.0100239 0)
(0.298611 -0.00723103 0)
(0.181176 -0.00734763 0)
)
;

boundaryField
{
    movingWall
    {
        type            fixedValue;
        value           uniform (0.5 0 0);
    }
    fixedWalls
    {
        type            noSlip;
    }
    frontAndBack
    {
        type            empty;
    }
}


// ************************************************************************* //
