/*--------------------------------*- C++ -*----------------------------------*\
| =========                 |                                                 |
| \\      /  F ield         | OpenFOAM: The Open Source CFD Toolbox           |
|  \\    /   O peration     | Version:  4.1                                   |
|   \\  /    A nd           | Web:      www.OpenFOAM.org                      |
|    \\/     M anipulation  |                                                 |
\*---------------------------------------------------------------------------*/
FoamFile
{
    version     2.0;
    format      ascii;
    class       volVectorField;
    location    "0.0387";
    object      U;
}
// * * * * * * * * * * * * * * * * * * * * * * * * * * * * * * * * * * * * * //

dimensions      [0 1 -1 0 0 0 0];

internalField   nonuniform List<vector> 
441
(
(-9.60775e-05 7.48552e-05 0)
(-0.000488613 0.00028674 0)
(-0.00110852 0.00051035 0)
(-0.00190962 0.000673611 0)
(-0.00281629 0.00075767 0)
(-0.00374548 0.000763111 0)
(-0.00461955 0.000698847 0)
(-0.00537225 0.000577349 0)
(-0.00595119 0.000412318 0)
(-0.00631842 0.000217654 0)
(-0.00645033 7.20105e-06 0)
(-0.0063376 -0.000205072 0)
(-0.0059855 -0.000404737 0)
(-0.00541457 -0.00057668 0)
(-0.00466153 -0.00070521 0)
(-0.00377972 -0.00077477 0)
(-0.00283828 -0.000771493 0)
(-0.0019189 -0.000686014 0)
(-0.00110853 -0.000518533 0)
(-0.000485066 -0.00028985 0)
(-9.44144e-05 -7.44163e-05 0)
(-0.000357176 0.000439211 0)
(-0.00159004 0.00139154 0)
(-0.00334803 0.00226814 0)
(-0.00550761 0.00288841 0)
(-0.00788814 0.00319334 0)
(-0.0102928 0.00318624 0)
(-0.012536 0.00290182 0)
(-0.014458 0.00238919 0)
(-0.0159316 0.00170276 0)
(-0.0168642 0.000897934 0)
(-0.0171983 3.00181e-05 0)
(-0.0169113 -0.000845176 0)
(-0.0160165 -0.00167002 0)
(-0.0145642 -0.00238416 0)
(-0.0126439 -0.00292508 0)
(-0.0103845 -0.00323098 0)
(-0.00795207 -0.00324714 0)
(-0.00554112 -0.00293699 0)
(-0.00335751 -0.00230018 0)
(-0.00158763 -0.00140349 0)
(-0.000355101 -0.000437895 0)
(-0.000652833 0.00107057 0)
(-0.00273862 0.00310662 0)
(-0.00555466 0.00483365 0)
(-0.00890245 0.00601045 0)
(-0.0125209 0.00655746 0)
(-0.0161321 0.00649167 0)
(-0.0194751 0.00588348 0)
(-0.0223256 0.00482924 0)
(-0.0245046 0.00343525 0)
(-0.0258819 0.00180975 0)
(-0.0263765 6.08069e-05 0)
(-0.0259565 -0.00170253 0)
(-0.0246399 -0.00336771 0)
(-0.0224973 -0.00481691 0)
(-0.0196537 -0.00592801 0)
(-0.0162897 -0.0065802 0)
(-0.0126381 -0.00666582 0)
(-0.00897251 -0.00611022 0)
(-0.00558435 -0.00490161 0)
(-0.00274421 -0.00313421 0)
(-0.000652251 -0.00106991 0)
(-0.000942035 0.0019726 0)
(-0.00385689 0.00544004 0)
(-0.0076762 0.00821096 0)
(-0.01212 0.0100289 0)
(-0.0168498 0.0108214 0)
(-0.0215188 0.0106372 0)
(-0.025808 0.00959593 0)
(-0.0294462 0.00785288 0)
(-0.0322191 0.00557635 0)
(-0.0339711 0.00293659 0)
(-0.0346055 0.000102803 0)
(-0.0340832 -0.00275456 0)
(-0.0324242 -0.00545952 0)
(-0.0297102 -0.00782737 0)
(-0.0260888 -0.00966576 0)
(-0.0217752 -0.0107827 0)
(-0.0170509 -0.011004 0)
(-0.0122517 -0.0102016 0)
(-0.00774347 -0.00833361 0)
(-0.00387971 -0.00549486 0)
(-0.00094523 -0.00197569 0)
(-0.00122344 0.00314298 0)
(-0.00495116 0.00839433 0)
(-0.00974946 0.0124073 0)
(-0.0152497 0.0149462 0)
(-0.0210323 0.0159766 0)
(-0.0266848 0.0156029 0)
(-0.0318385 0.0140126 0)
(-0.0361869 0.0114337 0)
(-0.0394914 0.00810661 0)
(-0.0415808 0.00427113 0)
(-0.0423482 0.000163227 0)
(-0.0417491 -0.0039804 0)
(-0.0398018 -0.00791507 0)
(-0.0365918 -0.0113824 0)
(-0.0322779 -0.0141102 0)
(-0.027098 -0.0158225 0)
(-0.0213705 -0.0162617 0)
(-0.015486 -0.015225 0)
(-0.00988376 -0.0126148 0)
(-0.00500673 -0.00849629 0)
(-0.00123424 -0.003156 0)
(-0.00150606 0.00458489 0)
(-0.0060559 0.0119815 0)
(-0.0118409 0.0174401 0)
(-0.0183952 0.0207764 0)
(-0.0252124 0.0220273 0)
(-0.0318146 0.0213822 0)
(-0.0377889 0.0191194 0)
(-0.0428022 0.0155559 0)
(-0.0466013 0.0110151 0)
(-0.0490077 0.00581217 0)
(-0.0499096 0.000252812 0)
(-0.0492579 -0.00535858 0)
(-0.0470659 -0.0107067 0)
(-0.0434154 -0.0154551 0)
(-0.0384661 -0.0192433 0)
(-0.0324672 -0.0216968 0)
(-0.0257647 -0.0224539 0)
(-0.0187995 -0.0212099 0)
(-0.0120867 -0.0177789 0)
(-0.00616818 -0.0121636 0)
(-0.00153045 -0.0046194 0)
(-0.00179989 0.00631159 0)
(-0.00720758 0.01623 0)
(-0.0140123 0.0233406 0)
(-0.0216394 0.027543 0)
(-0.0294892 0.0289833 0)
(-0.0370186 0.027971 0)
(-0.0437771 0.0249026 0)
(-0.0494148 0.0202034 0)
(-0.0536748 0.0142909 0)
(-0.0563801 0.00755976 0)
(-0.0574201 0.000385093 0)
(-0.0567423 -0.00686337 0)
(-0.0543516 -0.0138016 0)
(-0.0503176 -0.0200137 0)
(-0.0447894 -0.0250438 0)
(-0.0380143 -0.0284037 0)
(-0.0303549 -0.0296022 0)
(-0.0222959 -0.0281987 0)
(-0.0144303 -0.0238791 0)
(-0.00741009 -0.0165433 0)
(-0.00184634 -0.00638722 0)
(-0.00211197 0.00834561 0)
(-0.00843116 0.0211814 0)
(-0.0162998 0.0301471 0)
(-0.0250184 0.0352672 0)
(-0.0338879 0.0368437 0)
(-0.0423036 0.0353486 0)
(-0.0497873 0.0313302 0)
(-0.0559862 0.0253436 0)
(-0.0606542 0.0179107 0)
(-0.0636278 0.00950784 0)
(-0.0648051 0.000575163 0)
(-0.0641327 -0.00845952 0)
(-0.0616032 -0.0171504 0)
(-0.0572646 -0.0250052 0)
(-0.0512408 -0.031468 0)
(-0.0437598 -0.0359213 0)
(-0.0351836 -0.0377158 0)
(-0.0260296 -0.0362331 0)
(-0.0169663 -0.0309795 0)
(-0.00876721 -0.0217005 0)
(-0.0021916 -0.00849305 0)
(-0.00244412 0.0107155 0)
(-0.00973107 0.026881 0)
(-0.0186969 0.0378896 0)
(-0.028498 0.0439471 0)
(-0.0383311 0.045572 0)
(-0.0475387 0.0434524 0)
(-0.0556327 0.0383275 0)
(-0.062278 0.0309057 0)
(-0.0672589 0.0218228 0)
(-0.0704415 0.0116349 0)
(-0.0717433 0.000837527 0)
(-0.0711138 -0.0100968 0)
(-0.0685301 -0.020674 0)
(-0.0640075 -0.0303348 0)
(-0.0576263 -0.0384233 0)
(-0.0495715 -0.0441793 0)
(-0.0401792 -0.0467638 0)
(-0.0299773 -0.0453298 0)
(-0.0197005 -0.0391379 0)
(-0.0102529 -0.0277079 0)
(-0.0025706 -0.0109794 0)
(-0.00279073 0.013451 0)
(-0.011083 0.0333637 0)
(-0.021139 0.0465673 0)
(-0.0319487 0.0535288 0)
(-0.0426051 0.0550646 0)
(-0.0524167 0.0521455 0)
(-0.0609129 0.0457473 0)
(-0.067806 0.0367564 0)
(-0.0729373 0.0259287 0)
(-0.0762238 0.0138925 0)
(-0.0776161 0.00118272 0)
(-0.0770731 -0.0117049 0)
(-0.0745535 -0.0242497 0)
(-0.0700282 -0.0358433 0)
(-0.0635122 -0.045738 0)
(-0.0551164 -0.0530225 0)
(-0.0451137 -0.0566366 0)
(-0.034007 -0.0554453 0)
(-0.0225733 -0.0483781 0)
(-0.0118489 -0.0346298 0)
(-0.00297981 -0.0138923 0)
(-0.00313608 0.0165763 0)
(-0.0124238 0.0406349 0)
(-0.0234828 0.0561178 0)
(-0.0351149 0.0638684 0)
(-0.0463205 0.0651095 0)
(-0.0564072 0.0611775 0)
(-0.0649633 0.0533362 0)
(-0.0717891 0.0426724 0)
(-0.0768167 0.0300627 0)
(-0.0800391 0.016193 0)
(-0.0814572 0.00161246 0)
(-0.0810474 -0.0131896 0)
(-0.07875 -0.0276979 0)
(-0.0744803 -0.0412834 0)
(-0.0681644 -0.0531269 0)
(-0.0598015 -0.0621676 0)
(-0.0495513 -0.0670979 0)
(-0.0378368 -0.0664289 0)
(-0.0254323 -0.0586517 0)
(-0.0134922 -0.0424977 0)
(-0.00340444 -0.017274 0)
(-0.00344996 0.0201027 0)
(-0.0136357 0.0486459 0)
(-0.0254771 0.0663781 0)
(-0.0375724 0.074684 0)
(-0.0488593 0.0753375 0)
(-0.0586993 0.0701406 0)
(-0.0667988 0.060698 0)
(-0.0730968 0.048313 0)
(-0.0776549 0.0339731 0)
(-0.0805691 0.0183965 0)
(-0.0819085 0.00211335 0)
(-0.0816771 -0.0144327 0)
(-0.0797996 -0.0307729 0)
(-0.0761288 -0.0462996 0)
(-0.070481 -0.0601574 0)
(-0.0627035 -0.0711557 0)
(-0.0527816 -0.0777259 0)
(-0.0409803 -0.0779617 0)
(-0.0279948 -0.069786 0)
(-0.0150551 -0.0512782 0)
(-0.0038131 -0.0211525 0)
(-0.00368 0.0240184 0)
(-0.0145196 0.0572617 0)
(-0.0267146 0.0770326 0)
(-0.0386621 0.0854963 0)
(-0.0493 0.0851667 0)
(-0.0581286 0.0784249 0)
(-0.0650493 0.0672627 0)
(-0.0701974 0.0531996 0)
(-0.0738016 0.0373085 0)
(-0.076084 0.0203025 0)
(-0.0771956 0.00265002 0)
(-0.0771784 -0.0152961 0)
(-0.0759486 -0.0331635 0)
(-0.0732984 -0.0504188 0)
(-0.0689232 -0.0662251 0)
(-0.0624854 -0.0793069 0)
(-0.0537303 -0.0878498 0)
(-0.042665 -0.0894821 0)
(-0.0297874 -0.0814157 0)
(-0.0163117 -0.060828 0)
(-0.00414874 -0.0255281 0)
(-0.00373664 0.0282737 0)
(-0.0147431 0.0662154 0)
(-0.0265449 0.0875447 0)
(-0.0373809 0.0955562 0)
(-0.0463051 0.0937441 0)
(-0.0530775 0.0851817 0)
(-0.0578851 0.0722688 0)
(-0.0611124 0.0567114 0)
(-0.0631792 0.0396192 0)
(-0.0644418 0.0216489 0)
(-0.0651368 0.00315931 0)
(-0.0653507 -0.0156346 0)
(-0.0650033 -0.0345074 0)
(-0.0638418 -0.0530611 0)
(-0.0614514 -0.0705502 0)
(-0.0572992 -0.0856928 0)
(-0.0508386 -0.0964891 0)
(-0.0417086 -0.100099 0)
(-0.030045 -0.0928921 0)
(-0.0168783 -0.0708301 0)
(-0.00431197 -0.0303524 0)
(-0.00346185 0.0327571 0)
(-0.0137345 0.0750382 0)
(-0.0239086 0.0970605 0)
(-0.0321905 0.103761 0)
(-0.0379433 0.099895 0)
(-0.0413393 0.0893099 0)
(-0.0429335 0.0747778 0)
(-0.0433845 0.0581137 0)
(-0.0432942 0.040385 0)
(-0.043132 0.0221293 0)
(-0.0432033 0.00354915 0)
(-0.0436367 -0.0153167 0)
(-0.0443719 -0.0344308 0)
(-0.0451456 -0.0535879 0)
(-0.0454774 -0.0722179 0)
(-0.0446748 -0.089147 0)
(-0.0418948 -0.102317 0)
(-0.0363217 -0.108503 0)
(-0.0275317 -0.103166 0)
(-0.016098 -0.0807001 0)
(-0.0041281 -0.0354956 0)
(-0.00255989 0.0372484 0)
(-0.0104543 0.0829409 0)
(-0.0170106 0.104272 0)
(-0.0206791 0.108561 0)
(-0.0214098 0.102104 0)
(-0.0199303 0.0894977 0)
(-0.0171891 0.07375 0)
(-0.0140738 0.0566399 0)
(-0.011299 0.0390844 0)
(-0.00938118 0.021436 0)
(-0.00864925 0.00370732 0)
(-0.00925651 -0.0142544 0)
(-0.0111801 -0.0326157 0)
(-0.0141996 -0.0513992 0)
(-0.0178566 -0.0702876 0)
(-0.0214075 -0.0883536 0)
(-0.0238051 -0.103684 0)
(-0.0237878 -0.112895 0)
(-0.020209 -0.110636 0)
(-0.0128047 -0.0894385 0)
(-0.00327697 -0.0406879 0)
(-0.000424395 0.0413054 0)
(-0.00287783 0.0885852 0)
(-0.00266766 0.107215 0)
(0.00102791 0.107894 0)
(0.00739386 0.0985783 0)
(0.015139 0.0843692 0)
(0.0230531 0.0682181 0)
(0.030188 0.051654 0)
(0.0358713 0.0353218 0)
(0.039657 0.0193393 0)
(0.0412696 0.0035268 0)
(0.0405644 -0.0124376 0)
(0.0375156 -0.0288973 0)
(0.032237 -0.0460937 0)
(0.0250393 -0.0640008 0)
(0.0165244 -0.0820651 0)
(0.00769911 -0.0987793 0)
(4.63761e-05 -0.111 0)
(-0.00460889 -0.112981 0)
(-0.00480572 -0.0953778 0)
(-0.00112104 -0.0453923 0)
(0.00435572 0.0440255 0)
(0.0132401 0.0896935 0)
(0.0250012 0.103056 0)
(0.0392462 0.0992546 0)
(0.0544172 0.0875212 0)
(0.0690735 0.0728255 0)
(0.0821662 0.0576096 0)
(0.0930215 0.0429121 0)
(0.101242 0.0290162 0)
(0.106604 0.0158043 0)
(0.108974 0.00295187 0)
(0.108262 -0.00996156 0)
(0.104395 -0.023377 0)
(0.0973301 -0.0376822 0)
(0.0871029 -0.053104 0)
(0.0739285 -0.0695128 0)
(0.0583653 -0.086038 0)
(0.0415414 -0.100313 0)
(0.025364 -0.107065 0)
(0.012322 -0.0958027 0)
(0.00378942 -0.0485439 0)
(0.0159123 0.0431876 0)
(0.0474761 0.0820025 0)
(0.0770746 0.0878527 0)
(0.104121 0.080106 0)
(0.127965 0.0677788 0)
(0.148259 0.0546642 0)
(0.16489 0.0422327 0)
(0.17789 0.0309037 0)
(0.187364 0.0206235 0)
(0.193424 0.0111236 0)
(0.196139 0.00203956 0)
(0.195505 -0.00703455 0)
(0.191421 -0.0165154 0)
(0.183692 -0.0268042 0)
(0.172027 -0.0382432 0)
(0.15608 -0.0510184 0)
(0.135524 -0.0649267 0)
(0.110223 -0.0787921 0)
(0.080609 -0.0890291 0)
(0.0482033 -0.0860729 0)
(0.0156332 -0.0477038 0)
(0.0496154 0.0349162 0)
(0.12297 0.0597343 0)
(0.174387 0.058215 0)
(0.211071 0.0498017 0)
(0.238555 0.0403895 0)
(0.259516 0.0316181 0)
(0.275464 0.0238985 0)
(0.287308 0.0171955 0)
(0.295647 0.011315 0)
(0.300869 0.00600734 0)
(0.303199 0.00100556 0)
(0.302708 -0.00396114 0)
(0.299308 -0.00916344 0)
(0.292737 -0.0148696 0)
(0.282515 -0.0213392 0)
(0.267863 -0.0288036 0)
(0.247543 -0.0374084 0)
(0.219537 -0.0470173 0)
(0.180629 -0.0565291 0)
(0.12539 -0.060616 0)
(0.0497365 -0.0385936 0)
(0.182895 0.00469767 0)
(0.296924 0.00842977 0)
(0.351107 0.0120724 0)
(0.378821 0.0119031 0)
(0.395969 0.0101306 0)
(0.407551 0.00805401 0)
(0.415726 0.00610163 0)
(0.421503 0.00437336 0)
(0.425429 0.00285158 0)
(0.427822 0.00148036 0)
(0.428857 0.000192467 0)
(0.4286 -0.0010809 0)
(0.427014 -0.00240559 0)
(0.423949 -0.0038391 0)
(0.419099 -0.0054187 0)
(0.411884 -0.00713198 0)
(0.401166 -0.00884328 0)
(0.384426 -0.0101308 0)
(0.355865 -0.00995805 0)
(0.298566 -0.00719506 0)
(0.181171 -0.00733981 0)
)
;

boundaryField
{
    movingWall
    {
        type            fixedValue;
        value           uniform (0.5 0 0);
    }
    fixedWalls
    {
        type            noSlip;
    }
    frontAndBack
    {
        type            empty;
    }
}


// ************************************************************************* //
