/*--------------------------------*- C++ -*----------------------------------*\
| =========                 |                                                 |
| \\      /  F ield         | OpenFOAM: The Open Source CFD Toolbox           |
|  \\    /   O peration     | Version:  4.1                                   |
|   \\  /    A nd           | Web:      www.OpenFOAM.org                      |
|    \\/     M anipulation  |                                                 |
\*---------------------------------------------------------------------------*/
FoamFile
{
    version     2.0;
    format      ascii;
    class       volVectorField;
    location    "4590";
    object      U;
}
// * * * * * * * * * * * * * * * * * * * * * * * * * * * * * * * * * * * * * //

dimensions      [0 1 -1 0 0 0 0];

internalField   nonuniform List<vector> 
1275
(
(0.0117159 -1.44932e-05 0)
(0.0119928 1.87595e-06 0)
(0.0122088 1.6527e-05 0)
(0.0123668 2.94015e-05 0)
(0.0124709 4.04083e-05 0)
(0.0125246 4.96503e-05 0)
(0.0125321 5.70943e-05 0)
(0.0124974 6.29105e-05 0)
(0.0124244 6.71354e-05 0)
(0.0123171 6.99668e-05 0)
(0.0121792 7.14932e-05 0)
(0.0120146 7.19174e-05 0)
(0.0118263 7.13557e-05 0)
(0.0116179 6.99991e-05 0)
(0.0113922 6.797e-05 0)
(0.0111521 6.54361e-05 0)
(0.0108999 6.25092e-05 0)
(0.010638 5.93261e-05 0)
(0.0103685 5.59782e-05 0)
(0.0100932 5.25685e-05 0)
(0.00981376 4.9163e-05 0)
(0.00953161 4.5832e-05 0)
(0.00924801 4.26167e-05 0)
(0.00896413 3.95586e-05 0)
(0.00868093 3.6677e-05 0)
(0.0083993 3.39904e-05 0)
(0.00811996 3.15014e-05 0)
(0.0078436 2.92117e-05 0)
(0.00757078 2.71122e-05 0)
(0.00730201 2.51941e-05 0)
(0.00703773 2.34416e-05 0)
(0.00677832 2.18402e-05 0)
(0.00652413 2.03716e-05 0)
(0.00627544 1.90196e-05 0)
(0.00603252 1.77663e-05 0)
(0.0057956 1.65965e-05 0)
(0.00556485 1.54949e-05 0)
(0.00534046 1.44492e-05 0)
(0.00512255 1.34478e-05 0)
(0.00491125 1.24819e-05 0)
(0.00470665 1.15439e-05 0)
(0.00450881 1.06291e-05 0)
(0.00431778 9.73387e-06 0)
(0.0041336 8.8567e-06 0)
(0.00395628 7.99734e-06 0)
(0.00378579 7.157e-06 0)
(0.00362213 6.33769e-06 0)
(0.00346525 5.54229e-06 0)
(0.00331509 4.77396e-06 0)
(0.00317159 4.03617e-06 0)
(0.00303466 3.33216e-06 0)
(0.00290421 2.66497e-06 0)
(0.00278015 2.03706e-06 0)
(0.00266236 1.45034e-06 0)
(0.00255072 9.05925e-07 0)
(0.00244511 4.04199e-07 0)
(0.0023454 -5.52569e-08 0)
(0.00225145 -4.73567e-07 0)
(0.00216315 -8.52552e-07 0)
(0.00208033 -1.19457e-06 0)
(0.00200288 -1.50247e-06 0)
(0.00193063 -1.77938e-06 0)
(0.00186347 -2.02868e-06 0)
(0.00180125 -2.2538e-06 0)
(0.00174383 -2.45818e-06 0)
(0.00169109 -2.6451e-06 0)
(0.00164288 -2.8177e-06 0)
(0.00159908 -2.97882e-06 0)
(0.00155957 -3.13108e-06 0)
(0.00152423 -3.27674e-06 0)
(0.00149293 -3.41779e-06 0)
(0.00146557 -3.55591e-06 0)
(0.00144203 -3.69249e-06 0)
(0.00142221 -3.82867e-06 0)
(0.00140601 -3.96536e-06 0)
(0.00139333 -4.10324e-06 0)
(0.00138407 -4.24283e-06 0)
(0.00137814 -4.38448e-06 0)
(0.00137546 -4.52843e-06 0)
(0.00137593 -4.67477e-06 0)
(0.00137948 -4.82351e-06 0)
(0.00138602 -4.97459e-06 0)
(0.00139547 -5.12785e-06 0)
(0.00140775 -5.28307e-06 0)
(0.00142279 -5.43997e-06 0)
(0.0014405 -5.59821e-06 0)
(0.00146081 -5.7574e-06 0)
(0.00148364 -5.91711e-06 0)
(0.00150892 -6.07684e-06 0)
(0.00153656 -6.2361e-06 0)
(0.00156649 -6.39428e-06 0)
(0.00159863 -6.55086e-06 0)
(0.00163289 -6.70516e-06 0)
(0.00166921 -6.85662e-06 0)
(0.00170749 -7.00453e-06 0)
(0.00174766 -7.14832e-06 0)
(0.00178962 -7.28728e-06 0)
(0.0018333 -7.42083e-06 0)
(0.0018786 -7.54835e-06 0)
(0.00192545 -7.6692e-06 0)
(0.00197374 -7.78299e-06 0)
(0.00202341 -7.88886e-06 0)
(0.00207433 -7.98697e-06 0)
(0.00212647 -8.07581e-06 0)
(0.00217966 -8.1568e-06 0)
(0.00223393 -8.22683e-06 0)
(0.00228901 -8.28992e-06 0)
(0.00234508 -8.33956e-06 0)
(0.00240165 -8.38486e-06 0)
(0.00245925 -8.41258e-06 0)
(0.00251687 -8.44145e-06 0)
(0.0025758 -8.44556e-06 0)
(0.00263394 -8.46096e-06 0)
(0.00269416 -8.4395e-06 0)
(0.00275214 -8.44659e-06 0)
(0.00281384 -8.39786e-06 0)
(0.00287067 -8.40445e-06 0)
(0.00293454 -8.33067e-06 0)
(0.0029887 -8.34689e-06 0)
(0.00305616 -8.27007e-06 0)
(0.00310532 -8.3051e-06 0)
(0.00317896 -8.33135e-06 0)
(0.00321975 -8.38785e-06 0)
(0.00330372 -8.95923e-06 0)
(0.00333215 -9.09318e-06 0)
(0.00343253 -1.19771e-05 0)
(0.00344739 -1.30399e-05 0)
(0.00357273 -2.654e-05 0)
(0.0301782 -0.000608708 0)
(0.0308686 -0.000499014 0)
(0.0314647 -0.000394106 0)
(0.0319687 -0.00029433 0)
(0.0323839 -0.000200447 0)
(0.0327136 -0.000112467 0)
(0.0329613 -3.08953e-05 0)
(0.0331311 4.44245e-05 0)
(0.0332266 0.000113258 0)
(0.0332523 0.000175866 0)
(0.0332118 0.000232235 0)
(0.0331097 0.000282693 0)
(0.0329498 0.000327386 0)
(0.0327363 0.000366683 0)
(0.0324731 0.000400828 0)
(0.0321642 0.000430207 0)
(0.0318134 0.000455112 0)
(0.0314243 0.000475921 0)
(0.0310004 0.00049294 0)
(0.0305452 0.00050652 0)
(0.0300619 0.000516957 0)
(0.0295537 0.000524564 0)
(0.0290235 0.000529607 0)
(0.0284741 0.000532357 0)
(0.0279082 0.000533045 0)
(0.0273284 0.000531898 0)
(0.0267369 0.000529111 0)
(0.0261362 0.000524871 0)
(0.0255283 0.000519339 0)
(0.0249153 0.000512666 0)
(0.024299 0.000504983 0)
(0.0236812 0.000496415 0)
(0.0230636 0.000487067 0)
(0.0224478 0.000477042 0)
(0.0218352 0.000466428 0)
(0.0212273 0.000455306 0)
(0.0206253 0.000443753 0)
(0.0200303 0.000431835 0)
(0.0194436 0.000419617 0)
(0.0188661 0.000407155 0)
(0.0182988 0.000394503 0)
(0.0177425 0.000381711 0)
(0.0171981 0.000368821 0)
(0.0166662 0.000355877 0)
(0.0161474 0.000342914 0)
(0.0156424 0.000329967 0)
(0.0151516 0.000317067 0)
(0.0146754 0.000304241 0)
(0.0142143 0.000291515 0)
(0.0137684 0.00027891 0)
(0.0133381 0.000266446 0)
(0.0129235 0.000254141 0)
(0.0125247 0.00024201 0)
(0.0121418 0.000230068 0)
(0.0117749 0.000218327 0)
(0.0114238 0.000206796 0)
(0.0110886 0.000195486 0)
(0.0107691 0.000184405 0)
(0.0104651 0.00017356 0)
(0.0101766 0.000162956 0)
(0.00990337 0.000152598 0)
(0.00964509 0.000142488 0)
(0.00940157 0.00013263 0)
(0.00917254 0.000123024 0)
(0.00895773 0.000113668 0)
(0.00875684 0.000104563 0)
(0.00856959 9.57048e-05 0)
(0.00839565 8.70903e-05 0)
(0.00823472 7.87151e-05 0)
(0.00808648 7.05741e-05 0)
(0.00795062 6.26614e-05 0)
(0.00782679 5.4971e-05 0)
(0.0077147 4.74963e-05 0)
(0.00761402 4.0231e-05 0)
(0.00752443 3.31683e-05 0)
(0.00744563 2.63021e-05 0)
(0.00737729 1.96261e-05 0)
(0.00731912 1.31345e-05 0)
(0.00727081 6.82219e-06 0)
(0.00723207 6.84219e-07 0)
(0.00720259 -5.28364e-06 0)
(0.0071821 -1.10851e-05 0)
(0.0071703 -1.67231e-05 0)
(0.00716692 -2.22003e-05 0)
(0.00717166 -2.75186e-05 0)
(0.00718427 -3.26792e-05 0)
(0.00720446 -3.76832e-05 0)
(0.00723197 -4.25307e-05 0)
(0.00726653 -4.72217e-05 0)
(0.00730787 -5.17558e-05 0)
(0.00735573 -5.61321e-05 0)
(0.00740986 -6.03495e-05 0)
(0.00746998 -6.4407e-05 0)
(0.00753585 -6.83027e-05 0)
(0.0076072 -7.20358e-05 0)
(0.00768379 -7.56037e-05 0)
(0.00776535 -7.90066e-05 0)
(0.00785164 -8.22402e-05 0)
(0.00794241 -8.53078e-05 0)
(0.00803741 -8.82013e-05 0)
(0.00813638 -9.09307e-05 0)
(0.00823911 -9.3479e-05 0)
(0.00834532 -9.58706e-05 0)
(0.00845481 -9.80693e-05 0)
(0.00856728 -0.000100129 0)
(0.00868263 -0.000101973 0)
(0.00880041 -0.000103714 0)
(0.00892074 -0.000105195 0)
(0.00904288 -0.000106645 0)
(0.0091674 -0.000107745 0)
(0.00929291 -0.00010895 0)
(0.00942098 -0.000109635 0)
(0.00954879 -0.000110673 0)
(0.00967997 -0.000110878 0)
(0.00980884 -0.000111873 0)
(0.00994308 -0.000111487 0)
(0.0100714 -0.000112623 0)
(0.0102093 -0.000111489 0)
(0.0103346 -0.000113008 0)
(0.0104779 -0.000110965 0)
(0.0105968 -0.000113104 0)
(0.0107487 -0.000110195 0)
(0.010856 -0.000112985 0)
(0.011022 -0.000110122 0)
(0.0111105 -0.000112991 0)
(0.0112984 -0.00011406 0)
(0.0113589 -0.000115381 0)
(0.0115771 -0.000134765 0)
(0.0475661 -0.00148812 0)
(0.0483613 -0.00128054 0)
(0.0490634 -0.00107987 0)
(0.0496743 -0.000886396 0)
(0.0501973 -0.000701515 0)
(0.050635 -0.000525171 0)
(0.0509905 -0.000358293 0)
(0.0512672 -0.000200682 0)
(0.0514679 -5.28275e-05 0)
(0.0515962 8.55549e-05 0)
(0.051655 0.000214316 0)
(0.0516478 0.000333802 0)
(0.0515774 0.000444098 0)
(0.0514472 0.000545597 0)
(0.0512599 0.000638527 0)
(0.0510188 0.000723304 0)
(0.0507266 0.000800239 0)
(0.0503863 0.000869749 0)
(0.0500004 0.000932178 0)
(0.0495719 0.000987927 0)
(0.0491031 0.00103734 0)
(0.0485968 0.00108079 0)
(0.0480553 0.00111861 0)
(0.0474812 0.00115112 0)
(0.0468767 0.00117864 0)
(0.0462442 0.00120145 0)
(0.045586 0.00121982 0)
(0.0449043 0.00123403 0)
(0.0442012 0.00124429 0)
(0.043479 0.00125085 0)
(0.0427396 0.0012539 0)
(0.0419853 0.00125367 0)
(0.041218 0.00125033 0)
(0.0404397 0.00124407 0)
(0.0396525 0.00123507 0)
(0.0388583 0.00122349 0)
(0.0380591 0.0012095 0)
(0.0372567 0.00119326 0)
(0.036453 0.00117493 0)
(0.0356498 0.00115466 0)
(0.0348489 0.00113261 0)
(0.034052 0.00110893 0)
(0.0332609 0.00108377 0)
(0.0324771 0.00105728 0)
(0.0317022 0.0010296 0)
(0.0309377 0.00100088 0)
(0.030185 0.000971269 0)
(0.0294455 0.000940893 0)
(0.0287204 0.000909887 0)
(0.0280109 0.000878381 0)
(0.027318 0.000846496 0)
(0.0266428 0.00081435 0)
(0.025986 0.000782051 0)
(0.0253486 0.000749703 0)
(0.024731 0.000717401 0)
(0.024134 0.000685231 0)
(0.0235581 0.000653274 0)
(0.0230035 0.000621601 0)
(0.0224707 0.000590276 0)
(0.0219598 0.000559356 0)
(0.021471 0.00052889 0)
(0.0210043 0.000498921 0)
(0.0205597 0.000469484 0)
(0.0201372 0.00044061 0)
(0.0197365 0.000412323 0)
(0.0193576 0.000384642 0)
(0.0190001 0.000357582 0)
(0.0186638 0.000331154 0)
(0.0183483 0.000305364 0)
(0.0180533 0.000280216 0)
(0.0177784 0.000255711 0)
(0.0175232 0.000231848 0)
(0.0172872 0.000208624 0)
(0.0170701 0.000186033 0)
(0.0168713 0.00016407 0)
(0.0166903 0.000142728 0)
(0.0165267 0.000121999 0)
(0.01638 0.000101874 0)
(0.0162497 8.23463e-05 0)
(0.0161352 6.34066e-05 0)
(0.0160362 4.50469e-05 0)
(0.015952 2.72594e-05 0)
(0.0158822 1.00366e-05 0)
(0.0158264 -6.62842e-06 0)
(0.0157839 -2.27422e-05 0)
(0.0157544 -3.83106e-05 0)
(0.0157373 -5.33389e-05 0)
(0.0157322 -6.7832e-05 0)
(0.0157385 -8.17939e-05 0)
(0.0157559 -9.52285e-05 0)
(0.0157838 -0.000108139 0)
(0.0158218 -0.000120529 0)
(0.0158694 -0.0001324 0)
(0.0159263 -0.000143755 0)
(0.0159919 -0.000154597 0)
(0.0160658 -0.000164927 0)
(0.0161477 -0.000174749 0)
(0.016237 -0.000184065 0)
(0.0163334 -0.00019288 0)
(0.0164364 -0.00020119 0)
(0.0165457 -0.000209013 0)
(0.0166609 -0.000216333 0)
(0.0167816 -0.000223183 0)
(0.0169075 -0.000229527 0)
(0.0170381 -0.000235435 0)
(0.0171731 -0.000240817 0)
(0.0173121 -0.000245825 0)
(0.017455 -0.000250258 0)
(0.017601 -0.000254428 0)
(0.0177505 -0.000257912 0)
(0.0179022 -0.000261336 0)
(0.0180572 -0.000263846 0)
(0.0182132 -0.000266666 0)
(0.0183729 -0.000268132 0)
(0.0185317 -0.000270563 0)
(0.0186956 -0.000270841 0)
(0.0188553 -0.000273205 0)
(0.0190237 -0.000272058 0)
(0.0191817 -0.000274808 0)
(0.0193561 -0.000271929 0)
(0.0195086 -0.000275607 0)
(0.0196921 -0.000270834 0)
(0.0198333 -0.000275828 0)
(0.0200322 -0.00026989 0)
(0.0201526 -0.000275653 0)
(0.020377 -0.000272123 0)
(0.0204612 -0.000275785 0)
(0.0207266 -0.000283056 0)
(0.0654372 -0.00229878 0)
(0.0661677 -0.00199931 0)
(0.0668092 -0.0017099 0)
(0.0673646 -0.00143052 0)
(0.0678371 -0.00116307 0)
(0.0682303 -0.000907271 0)
(0.0685473 -0.000664283 0)
(0.0687917 -0.000433745 0)
(0.0689665 -0.000216214 0)
(0.0690752 -1.12626e-05 0)
(0.0691205 0.000180991 0)
(0.0691058 0.000361029 0)
(0.0690337 0.000529019 0)
(0.068907 0.000685483 0)
(0.0687284 0.000830757 0)
(0.0685003 0.000965378 0)
(0.0682251 0.00108977 0)
(0.0679051 0.00120445 0)
(0.0675424 0.00130986 0)
(0.0671391 0.00140651 0)
(0.066697 0.00149482 0)
(0.0662181 0.00157524 0)
(0.0657041 0.00164815 0)
(0.0651567 0.00171395 0)
(0.0645776 0.00177298 0)
(0.0639685 0.00182557 0)
(0.0633308 0.00187201 0)
(0.0626661 0.00191257 0)
(0.0619759 0.00194751 0)
(0.0612617 0.00197704 0)
(0.060525 0.00200136 0)
(0.0597673 0.00202067 0)
(0.0589901 0.00203514 0)
(0.0581949 0.00204491 0)
(0.0573832 0.00205015 0)
(0.0565566 0.002051 0)
(0.0557167 0.00204759 0)
(0.0548651 0.00204005 0)
(0.0540033 0.00202854 0)
(0.0531331 0.00201318 0)
(0.0522562 0.00199412 0)
(0.0513742 0.00197151 0)
(0.0504889 0.0019455 0)
(0.049602 0.00191626 0)
(0.0487153 0.00188394 0)
(0.0478305 0.00184873 0)
(0.0469494 0.00181082 0)
(0.0460737 0.00177039 0)
(0.0452052 0.00172765 0)
(0.0443454 0.00168279 0)
(0.0434961 0.00163603 0)
(0.0426589 0.00158757 0)
(0.0418352 0.00153763 0)
(0.0410265 0.00148642 0)
(0.0402342 0.00143414 0)
(0.0394596 0.001381 0)
(0.0387039 0.0013272 0)
(0.0379683 0.00127293 0)
(0.0372536 0.00121838 0)
(0.0365609 0.00116371 0)
(0.0358909 0.0011091 0)
(0.0352443 0.00105469 0)
(0.0346217 0.00100062 0)
(0.0340236 0.000947029 0)
(0.0334503 0.000894019 0)
(0.0329021 0.000841697 0)
(0.0323791 0.000790154 0)
(0.0318815 0.000739469 0)
(0.0314092 0.000689709 0)
(0.0309621 0.000640934 0)
(0.0305401 0.000593191 0)
(0.0301429 0.000546519 0)
(0.0297703 0.00050095 0)
(0.0294219 0.000456509 0)
(0.0290972 0.000413215 0)
(0.0287959 0.00037108 0)
(0.0285174 0.000330112 0)
(0.0282612 0.000290318 0)
(0.0280268 0.000251696 0)
(0.0278136 0.000214247 0)
(0.0276209 0.000177965 0)
(0.0274482 0.000142847 0)
(0.0272949 0.000108885 0)
(0.0271603 7.60698e-05 0)
(0.0270438 4.43944e-05 0)
(0.0269447 1.38488e-05 0)
(0.0268624 -1.55766e-05 0)
(0.0267962 -4.38918e-05 0)
(0.0267456 -7.1107e-05 0)
(0.0267097 -9.72327e-05 0)
(0.0266881 -0.000122279 0)
(0.02668 -0.000146257 0)
(0.0266849 -0.000169178 0)
(0.0267022 -0.000191051 0)
(0.0267311 -0.00021189 0)
(0.0267712 -0.000231704 0)
(0.0268219 -0.000250508 0)
(0.0268825 -0.000268311 0)
(0.0269526 -0.000285132 0)
(0.0270315 -0.000300974 0)
(0.0271187 -0.000315869 0)
(0.0272138 -0.000329806 0)
(0.0273161 -0.000342841 0)
(0.0274253 -0.00035493 0)
(0.0275408 -0.000366185 0)
(0.0276621 -0.000376485 0)
(0.0277888 -0.000386054 0)
(0.0279206 -0.000394617 0)
(0.0280568 -0.000402625 0)
(0.0281973 -0.000409486 0)
(0.0283413 -0.000416099 0)
(0.0284892 -0.000421254 0)
(0.0286394 -0.00042671 0)
(0.0287933 -0.000430083 0)
(0.028948 -0.000434729 0)
(0.0291071 -0.000436129 0)
(0.0292644 -0.000440476 0)
(0.0294285 -0.000439554 0)
(0.029586 -0.000444308 0)
(0.029756 -0.000440585 0)
(0.02991 -0.000446574 0)
(0.0300885 -0.000439709 0)
(0.030233 -0.000447509 0)
(0.0304262 -0.000438053 0)
(0.0305503 -0.000447218 0)
(0.0307702 -0.000437689 0)
(0.0308546 -0.000445754 0)
(0.0311215 -0.000442262 0)
(0.0827216 -0.00304 0)
(0.0833344 -0.00265068 0)
(0.0838643 -0.00227518 0)
(0.0843149 -0.00191284 0)
(0.0846895 -0.00156612 0)
(0.0849921 -0.00123439 0)
(0.0852256 -0.000919006 0)
(0.085394 -0.000619384 0)
(0.0855001 -0.000336064 0)
(0.0855474 -6.84646e-05 0)
(0.0855384 0.000183403 0)
(0.0854766 0.000420161 0)
(0.085364 0.000642117 0)
(0.0852037 0.000849925 0)
(0.0849977 0.00104407 0)
(0.0847485 0.0012252 0)
(0.084458 0.00139389 0)
(0.0841283 0.00155076 0)
(0.0837611 0.0016964 0)
(0.0833583 0.00183138 0)
(0.0829214 0.00195625 0)
(0.082452 0.00207153 0)
(0.0819514 0.00217771 0)
(0.0814211 0.00227524 0)
(0.0808622 0.00236452 0)
(0.0802761 0.00244596 0)
(0.0796638 0.00251987 0)
(0.0790266 0.00258658 0)
(0.0783654 0.00264635 0)
(0.0776814 0.00269944 0)
(0.0769756 0.00274606 0)
(0.0762491 0.00278639 0)
(0.0755028 0.00282062 0)
(0.0747379 0.00284888 0)
(0.0739555 0.00287131 0)
(0.0731565 0.00288804 0)
(0.0723421 0.00289917 0)
(0.0715135 0.00290482 0)
(0.0706719 0.00290507 0)
(0.0698184 0.00290005 0)
(0.0689544 0.00288984 0)
(0.0680811 0.00287456 0)
(0.0671998 0.00285433 0)
(0.066312 0.00282928 0)
(0.0654191 0.00279953 0)
(0.0645226 0.00276524 0)
(0.063624 0.00272656 0)
(0.0627247 0.00268368 0)
(0.0618264 0.00263678 0)
(0.0609306 0.00258605 0)
(0.0600388 0.00253173 0)
(0.0591528 0.00247403 0)
(0.0582741 0.00241319 0)
(0.0574041 0.00234947 0)
(0.0565446 0.00228311 0)
(0.0556969 0.00221438 0)
(0.0548626 0.00214355 0)
(0.054043 0.00207089 0)
(0.0532396 0.00199667 0)
(0.0524535 0.00192116 0)
(0.0516861 0.00184462 0)
(0.0509384 0.00176731 0)
(0.0502114 0.00168948 0)
(0.0495062 0.00161138 0)
(0.0488236 0.00153323 0)
(0.0481642 0.00145524 0)
(0.0475288 0.00137763 0)
(0.0469179 0.00130058 0)
(0.046332 0.00122427 0)
(0.0457713 0.00114886 0)
(0.0452361 0.00107449 0)
(0.0447265 0.00100129 0)
(0.0442426 0.000929379 0)
(0.0437844 0.000858863 0)
(0.0433517 0.000789828 0)
(0.0429444 0.000722351 0)
(0.0425621 0.000656498 0)
(0.0422045 0.000592323 0)
(0.0418712 0.000529871 0)
(0.0415619 0.00046918 0)
(0.0412759 0.000410277 0)
(0.0410127 0.000353184 0)
(0.0407718 0.000297915 0)
(0.0405525 0.000244481 0)
(0.0403542 0.000192885 0)
(0.0401762 0.000143128 0)
(0.0400179 9.52065e-05 0)
(0.0398785 4.91133e-05 0)
(0.0397574 4.83881e-06 0)
(0.0396538 -3.76294e-05 0)
(0.039567 -7.83056e-05 0)
(0.0394964 -0.000117207 0)
(0.0394411 -0.000154351 0)
(0.0394005 -0.000189759 0)
(0.0393738 -0.000223453 0)
(0.0393604 -0.000255455 0)
(0.0393596 -0.00028579 0)
(0.0393707 -0.000314485 0)
(0.039393 -0.000341568 0)
(0.0394259 -0.000367063 0)
(0.0394688 -0.000391011 0)
(0.039521 -0.000413427 0)
(0.0395819 -0.000434369 0)
(0.0396509 -0.00045383 0)
(0.0397276 -0.000471912 0)
(0.0398112 -0.00048855 0)
(0.0399014 -0.000503934 0)
(0.0399975 -0.000517878 0)
(0.0400992 -0.000530752 0)
(0.0402058 -0.000542121 0)
(0.0403171 -0.000552713 0)
(0.0404324 -0.000561592 0)
(0.0405516 -0.000570192 0)
(0.0406741 -0.000576607 0)
(0.0407994 -0.000583602 0)
(0.0409277 -0.000587473 0)
(0.0410574 -0.000593405 0)
(0.0411909 -0.000594485 0)
(0.0413228 -0.000600118 0)
(0.0414616 -0.000597938 0)
(0.0415924 -0.000604312 0)
(0.0417388 -0.000598198 0)
(0.0418628 -0.000606546 0)
(0.042022 -0.000595957 0)
(0.0421294 -0.000606988 0)
(0.0423124 -0.000593127 0)
(0.0423844 -0.000604146 0)
(0.0426124 -0.000592355 0)
(0.0978493 -0.00361425 0)
(0.098297 -0.00314457 0)
(0.0986738 -0.00269285 0)
(0.0989848 -0.00225785 0)
(0.0992321 -0.00184222 0)
(0.0994204 -0.00144509 0)
(0.0995519 -0.00106773 0)
(0.0996306 -0.000709431 0)
(0.0996585 -0.000370542 0)
(0.099639 -5.036e-05 0)
(0.0995741 0.000251309 0)
(0.0994666 0.000535216 0)
(0.0993182 0.000801866 0)
(0.0991312 0.00105205 0)
(0.0989072 0.00128642 0)
(0.0986482 0.00150578 0)
(0.0983555 0.00171083 0)
(0.0980307 0.00190235 0)
(0.0976751 0.00208103 0)
(0.09729 0.00224758 0)
(0.0968765 0.00240264 0)
(0.0964357 0.00254684 0)
(0.0959685 0.00268075 0)
(0.095476 0.00280491 0)
(0.0949591 0.00291978 0)
(0.0944185 0.00302582 0)
(0.0938551 0.0031234 0)
(0.0932696 0.00321288 0)
(0.0926628 0.00329456 0)
(0.0920355 0.00336871 0)
(0.0913883 0.00343556 0)
(0.090722 0.00349529 0)
(0.0900373 0.00354807 0)
(0.089335 0.00359404 0)
(0.0886158 0.00363332 0)
(0.0878804 0.00366599 0)
(0.0871298 0.00369215 0)
(0.0863647 0.00371186 0)
(0.085586 0.00372519 0)
(0.0847946 0.00373219 0)
(0.0839914 0.00373293 0)
(0.0831775 0.00372747 0)
(0.0823539 0.00371588 0)
(0.0815217 0.00369824 0)
(0.080682 0.00367463 0)
(0.0798359 0.00364517 0)
(0.0789847 0.00360998 0)
(0.0781297 0.00356918 0)
(0.0772721 0.00352294 0)
(0.0764132 0.00347144 0)
(0.0755544 0.00341486 0)
(0.0746972 0.00335342 0)
(0.0738428 0.00328735 0)
(0.0729927 0.0032169 0)
(0.0721482 0.00314233 0)
(0.0713109 0.00306393 0)
(0.070482 0.00298199 0)
(0.069663 0.00289681 0)
(0.0688552 0.0028087 0)
(0.0680599 0.00271798 0)
(0.0672783 0.00262498 0)
(0.0665118 0.00253002 0)
(0.0657614 0.00243342 0)
(0.0650282 0.00233551 0)
(0.0643132 0.00223658 0)
(0.0636175 0.00213696 0)
(0.0629418 0.00203694 0)
(0.062287 0.0019368 0)
(0.0616537 0.00183681 0)
(0.0610426 0.00173723 0)
(0.0604542 0.00163831 0)
(0.0598888 0.00154028 0)
(0.0593468 0.00144334 0)
(0.0588285 0.00134769 0)
(0.058334 0.00125351 0)
(0.0578634 0.00116096 0)
(0.0574166 0.00107018 0)
(0.0569936 0.000981317 0)
(0.0565942 0.000894475 0)
(0.0562182 0.000809757 0)
(0.0558652 0.000727253 0)
(0.055535 0.000647035 0)
(0.055227 0.000569169 0)
(0.0549409 0.000493704 0)
(0.0546761 0.000420682 0)
(0.054432 0.000350136 0)
(0.0542082 0.000282088 0)
(0.0540039 0.000216552 0)
(0.0538185 0.000153537 0)
(0.0536515 9.30425e-05 0)
(0.053502 3.50631e-05 0)
(0.0533694 -2.04127e-05 0)
(0.053253 -7.3401e-05 0)
(0.0531522 -0.000123923 0)
(0.0530661 -0.000172005 0)
(0.0529942 -0.000217676 0)
(0.0529357 -0.000260969 0)
(0.0528899 -0.00030192 0)
(0.0528561 -0.000340573 0)
(0.0528337 -0.000376963 0)
(0.052822 -0.000411147 0)
(0.0528203 -0.000443156 0)
(0.0528281 -0.000473067 0)
(0.0528447 -0.00050089 0)
(0.0528695 -0.000526748 0)
(0.0529019 -0.00055059 0)
(0.0529414 -0.000572639 0)
(0.0529874 -0.00059271 0)
(0.0530396 -0.000611224 0)
(0.0530971 -0.000627718 0)
(0.0531598 -0.000643021 0)
(0.0532269 -0.000656094 0)
(0.0532985 -0.000668585 0)
(0.0533734 -0.00067831 0)
(0.0534522 -0.000688516 0)
(0.0535334 -0.000694817 0)
(0.0536177 -0.000703474 0)
(0.0537041 -0.000706031 0)
(0.0537923 -0.000714176 0)
(0.0538832 -0.000712363 0)
(0.053973 -0.000721317 0)
(0.0540691 -0.00071441 0)
(0.0541565 -0.00072524 0)
(0.0542612 -0.000713407 0)
(0.0543379 -0.000725749 0)
(0.0544607 -0.000709844 0)
(0.0545107 -0.000722218 0)
(0.0546706 -0.000706798 0)
(0.109213 -0.00400868 0)
(0.109442 -0.00347435 0)
(0.10962 -0.00296234 0)
(0.109754 -0.0024704 0)
(0.109844 -0.00200128 0)
(0.109895 -0.00155383 0)
(0.109908 -0.00112899 0)
(0.109887 -0.000725937 0)
(0.109833 -0.000344666 0)
(0.109748 1.56223e-05 0)
(0.109634 0.000355416 0)
(0.109492 0.000675569 0)
(0.109324 0.000976815 0)
(0.10913 0.00126004 0)
(0.108912 0.00152609 0)
(0.108671 0.00177583 0)
(0.108406 0.00201013 0)
(0.10812 0.00222981 0)
(0.107812 0.00243567 0)
(0.107483 0.00262849 0)
(0.107133 0.00280897 0)
(0.106763 0.0029778 0)
(0.106373 0.00313559 0)
(0.105964 0.00328292 0)
(0.105535 0.00342029 0)
(0.105088 0.00354817 0)
(0.104622 0.00366696 0)
(0.104138 0.00377704 0)
(0.103635 0.0038787 0)
(0.103115 0.00397223 0)
(0.102578 0.00405783 0)
(0.102023 0.00413571 0)
(0.101452 0.00420601 0)
(0.100864 0.00426886 0)
(0.10026 0.00432435 0)
(0.0996408 0.00437254 0)
(0.0990065 0.0044135 0)
(0.0983578 0.00444727 0)
(0.0976951 0.00447387 0)
(0.097019 0.00449332 0)
(0.0963304 0.00450565 0)
(0.0956298 0.00451088 0)
(0.094918 0.00450903 0)
(0.0941959 0.00450014 0)
(0.0934644 0.00448425 0)
(0.0927243 0.00446144 0)
(0.0919767 0.00443178 0)
(0.0912225 0.00439536 0)
(0.0904629 0.0043523 0)
(0.0896989 0.00430275 0)
(0.0889317 0.00424686 0)
(0.0881624 0.00418484 0)
(0.0873924 0.00411688 0)
(0.0866227 0.00404322 0)
(0.0858547 0.00396412 0)
(0.0850897 0.00387986 0)
(0.0843288 0.00379074 0)
(0.0835733 0.00369707 0)
(0.0828246 0.00359919 0)
(0.0820837 0.00349744 0)
(0.081352 0.00339218 0)
(0.0806306 0.00328379 0)
(0.0799206 0.00317262 0)
(0.0792231 0.00305906 0)
(0.0785392 0.00294349 0)
(0.0778699 0.00282626 0)
(0.077216 0.00270777 0)
(0.0765784 0.00258836 0)
(0.075958 0.00246839 0)
(0.0753553 0.0023482 0)
(0.0747711 0.00222811 0)
(0.0742059 0.00210844 0)
(0.0736602 0.00198949 0)
(0.0731344 0.00187153 0)
(0.0726287 0.00175483 0)
(0.0721435 0.00163963 0)
(0.0716788 0.00152617 0)
(0.0712348 0.00141463 0)
(0.0708115 0.00130523 0)
(0.0704088 0.00119811 0)
(0.0700266 0.00109345 0)
(0.0696647 0.000991375 0)
(0.0693229 0.000892003 0)
(0.0690008 0.00079544 0)
(0.0686981 0.000701775 0)
(0.0684144 0.000611081 0)
(0.0681492 0.00052342 0)
(0.0679021 0.000438838 0)
(0.0676726 0.000357372 0)
(0.0674602 0.000279047 0)
(0.0672641 0.000203875 0)
(0.067084 0.000131862 0)
(0.0669192 6.30025e-05 0)
(0.066769 -2.71704e-06 0)
(0.0666329 -6.53171e-05 0)
(0.0665102 -0.000124826 0)
(0.0664003 -0.00018128 0)
(0.0663026 -0.000234718 0)
(0.0662164 -0.000285188 0)
(0.0661412 -0.000332741 0)
(0.0660763 -0.000377436 0)
(0.0660211 -0.000419328 0)
(0.0659751 -0.000458493 0)
(0.0659376 -0.000494981 0)
(0.0659082 -0.000528895 0)
(0.0658861 -0.000560259 0)
(0.0658711 -0.00058923 0)
(0.0658624 -0.000615766 0)
(0.0658598 -0.000640132 0)
(0.0658624 -0.000662139 0)
(0.0658703 -0.000682272 0)
(0.0658824 -0.000700039 0)
(0.0658993 -0.000716359 0)
(0.0659191 -0.000730132 0)
(0.0659434 -0.000743131 0)
(0.0659693 -0.000753079 0)
(0.0659999 -0.000763364 0)
(0.0660305 -0.00076951 0)
(0.0660659 -0.000777876 0)
(0.0661004 -0.000780001 0)
(0.0661389 -0.000787524 0)
(0.0661773 -0.000784999 0)
(0.0662157 -0.000793218 0)
(0.0662603 -0.000784559 0)
(0.0662945 -0.000795881 0)
(0.0663484 -0.000780721 0)
(0.0663685 -0.000792681 0)
(0.0664458 -0.000775942 0)
(0.115059 -0.00412653 0)
(0.115028 -0.00355393 0)
(0.114974 -0.00300681 0)
(0.114904 -0.00248321 0)
(0.114818 -0.00198482 0)
(0.11472 -0.00151077 0)
(0.114609 -0.00106118 0)
(0.114489 -0.00063533 0)
(0.114358 -0.000232659 0)
(0.11422 0.000147651 0)
(0.114072 0.000506476 0)
(0.113917 0.00084473 0)
(0.113753 0.00116341 0)
(0.113582 0.00146348 0)
(0.113402 0.00174595 0)
(0.113213 0.00201178 0)
(0.113016 0.00226192 0)
(0.11281 0.00249727 0)
(0.112593 0.00271872 0)
(0.112367 0.00292705 0)
(0.112131 0.00312304 0)
(0.111883 0.00330739 0)
(0.111624 0.00348073 0)
(0.111354 0.00364366 0)
(0.111071 0.00379669 0)
(0.110776 0.00394028 0)
(0.110468 0.00407483 0)
(0.110146 0.0042007 0)
(0.109811 0.00431818 0)
(0.109463 0.0044275 0)
(0.1091 0.00452888 0)
(0.108723 0.00462245 0)
(0.108331 0.00470835 0)
(0.107925 0.00478664 0)
(0.107505 0.00485738 0)
(0.10707 0.00492058 0)
(0.106621 0.00497626 0)
(0.106157 0.00502439 0)
(0.105679 0.00506495 0)
(0.105187 0.0050979 0)
(0.104682 0.0051232 0)
(0.104163 0.00514081 0)
(0.103631 0.00515069 0)
(0.103087 0.00515283 0)
(0.102532 0.00514721 0)
(0.101965 0.00513383 0)
(0.101388 0.00511271 0)
(0.100801 0.00508391 0)
(0.100205 0.00504749 0)
(0.0996015 0.00500354 0)
(0.0989907 0.00495219 0)
(0.0983738 0.00489358 0)
(0.0977518 0.00482791 0)
(0.0971258 0.00475537 0)
(0.0964967 0.00467621 0)
(0.0958658 0.00459069 0)
(0.0952341 0.00449911 0)
(0.0946028 0.00440178 0)
(0.0939731 0.00429904 0)
(0.0933459 0.00419126 0)
(0.0927226 0.00407882 0)
(0.0921041 0.0039621 0)
(0.0914917 0.00384151 0)
(0.0908862 0.00371748 0)
(0.0902888 0.00359042 0)
(0.0897005 0.00346076 0)
(0.0891221 0.00332892 0)
(0.0885546 0.00319533 0)
(0.0879987 0.0030604 0)
(0.0874553 0.00292454 0)
(0.086925 0.00278815 0)
(0.0864085 0.00265161 0)
(0.0859064 0.0025153 0)
(0.0854191 0.00237957 0)
(0.084947 0.00224475 0)
(0.0844906 0.00211117 0)
(0.08405 0.00197913 0)
(0.0836256 0.00184891 0)
(0.0832175 0.00172075 0)
(0.0828257 0.00159491 0)
(0.0824503 0.00147159 0)
(0.0820912 0.00135101 0)
(0.0817484 0.00123332 0)
(0.0814216 0.00111869 0)
(0.0811108 0.00100726 0)
(0.0808156 0.000899143 0)
(0.0805357 0.000794445 0)
(0.0802709 0.000693247 0)
(0.0800208 0.00059562 0)
(0.0797849 0.000501615 0)
(0.0795628 0.000411271 0)
(0.0793542 0.000324612 0)
(0.0791585 0.00024165 0)
(0.0789753 0.000162385 0)
(0.0788041 8.68051e-05 0)
(0.0786444 1.48886e-05 0)
(0.0784956 -5.33967e-05 0)
(0.0783573 -0.00011809 0)
(0.0782289 -0.000179243 0)
(0.07811 -0.000236908 0)
(0.078 -0.000291154 0)
(0.0778985 -0.000342041 0)
(0.0778049 -0.000389663 0)
(0.0777188 -0.000434069 0)
(0.0776397 -0.000475394 0)
(0.0775671 -0.000513652 0)
(0.0775006 -0.000549052 0)
(0.0774398 -0.000581514 0)
(0.0773842 -0.000611401 0)
(0.0773334 -0.000638425 0)
(0.0772872 -0.000663263 0)
(0.077245 -0.00068518 0)
(0.0772067 -0.000705506 0)
(0.0771715 -0.000722579 0)
(0.0771399 -0.000739049 0)
(0.0771105 -0.00075139 0)
(0.0770845 -0.000764878 0)
(0.0770594 -0.000772303 0)
(0.0770383 -0.000784075 0)
(0.0770163 -0.000785872 0)
(0.0769994 -0.000797794 0)
(0.0769791 -0.000792689 0)
(0.0769667 -0.000806376 0)
(0.0769472 -0.000796045 0)
(0.0769365 -0.000807621 0)
(0.0769194 -0.000793829 0)
(0.0769063 -0.00080484 0)
(0.0768965 -0.000789192 0)
(0.113884 -0.00396699 0)
(0.113581 -0.00338809 0)
(0.113289 -0.00283809 0)
(0.113016 -0.00231408 0)
(0.11276 -0.0018165 0)
(0.112523 -0.00134472 0)
(0.112303 -0.000897814 0)
(0.112102 -0.000475186 0)
(0.111918 -7.56303e-05 0)
(0.111751 0.000301665 0)
(0.111599 0.000657954 0)
(0.111462 0.000994183 0)
(0.111337 0.00131157 0)
(0.111223 0.00161109 0)
(0.11112 0.00189389 0)
(0.111025 0.00216092 0)
(0.110937 0.0024132 0)
(0.110855 0.00265161 0)
(0.110777 0.00287704 0)
(0.110701 0.00309026 0)
(0.110627 0.00329205 0)
(0.110552 0.00348304 0)
(0.110476 0.00366386 0)
(0.110398 0.00383505 0)
(0.110316 0.00399709 0)
(0.110229 0.00415039 0)
(0.110136 0.00429532 0)
(0.110036 0.00443217 0)
(0.109928 0.00456119 0)
(0.109812 0.00468258 0)
(0.109686 0.00479647 0)
(0.10955 0.00490298 0)
(0.109402 0.00500215 0)
(0.109243 0.00509402 0)
(0.109072 0.00517858 0)
(0.108888 0.00525578 0)
(0.108692 0.00532557 0)
(0.108481 0.00538787 0)
(0.108257 0.00544258 0)
(0.108019 0.0054896 0)
(0.107767 0.00552883 0)
(0.1075 0.00556015 0)
(0.107219 0.00558347 0)
(0.106925 0.00559868 0)
(0.106616 0.0056057 0)
(0.106294 0.00560447 0)
(0.105958 0.00559495 0)
(0.105609 0.0055771 0)
(0.105248 0.00555093 0)
(0.104875 0.00551648 0)
(0.10449 0.00547382 0)
(0.104095 0.00542304 0)
(0.103689 0.00536427 0)
(0.103275 0.00529767 0)
(0.102852 0.00522346 0)
(0.102422 0.00514186 0)
(0.101985 0.00505315 0)
(0.101542 0.00495761 0)
(0.101095 0.0048556 0)
(0.100644 0.00474745 0)
(0.100191 0.00463356 0)
(0.0997353 0.00451433 0)
(0.0992794 0.00439018 0)
(0.0988239 0.00426156 0)
(0.0983697 0.00412892 0)
(0.0979177 0.00399272 0)
(0.0974689 0.00385343 0)
(0.0970241 0.00371152 0)
(0.0965843 0.00356745 0)
(0.0961501 0.0034217 0)
(0.0957225 0.00327472 0)
(0.095302 0.00312696 0)
(0.0948893 0.00297885 0)
(0.0944849 0.00283081 0)
(0.0940896 0.00268324 0)
(0.0937036 0.00253654 0)
(0.0933274 0.00239106 0)
(0.0929614 0.00224715 0)
(0.0926058 0.00210513 0)
(0.0922609 0.0019653 0)
(0.0919269 0.00182794 0)
(0.0916038 0.0016933 0)
(0.0912918 0.00156161 0)
(0.0909908 0.00143307 0)
(0.0907009 0.00130788 0)
(0.0904219 0.0011862 0)
(0.0901538 0.00106816 0)
(0.0898964 0.000953893 0)
(0.0896495 0.000843496 0)
(0.0894129 0.000737052 0)
(0.0891863 0.000634624 0)
(0.0889695 0.00053626 0)
(0.0887623 0.000441989 0)
(0.0885642 0.000351828 0)
(0.0883749 0.000265776 0)
(0.0881942 0.000183822 0)
(0.0880217 0.000105939 0)
(0.0878569 3.20909e-05 0)
(0.0876997 -3.77704e-05 0)
(0.0875496 -0.0001037 0)
(0.0874062 -0.00016577 0)
(0.0872693 -0.000224046 0)
(0.0871384 -0.000278625 0)
(0.0870132 -0.000329574 0)
(0.0868934 -0.00037702 0)
(0.0867785 -0.000421018 0)