/*--------------------------------*- C++ -*----------------------------------*\
| =========                 |                                                 |
| \\      /  F ield         | OpenFOAM: The Open Source CFD Toolbox           |
|  \\    /   O peration     | Version:  4.1                                   |
|   \\  /    A nd           | Web:      www.OpenFOAM.org                      |
|    \\/     M anipulation  |                                                 |
\*---------------------------------------------------------------------------*/
FoamFile
{
    version     2.0;
    format      ascii;
    class       volVectorField;
    location    "279";
    object      U;
}
// * * * * * * * * * * * * * * * * * * * * * * * * * * * * * * * * * * * * * //

dimensions      [0 1 -1 0 0 0 0];

internalField   nonuniform List<vector> 
3264
(
(-2.5355e-06 -3.05149e-07 0)
(-0.000129878 3.00953e-05 0)
(-0.000381395 4.78821e-05 0)
(-0.000663747 4.99654e-05 0)
(-0.000961063 5.13957e-05 0)
(-0.00126301 5.03824e-05 0)
(-0.00156423 5.12217e-05 0)
(-0.00186655 5.14031e-05 0)
(-0.00216595 5.21088e-05 0)
(-0.00246407 5.24523e-05 0)
(-0.00275946 5.29187e-05 0)
(-0.00305371 5.33522e-05 0)
(-0.00334742 5.40237e-05 0)
(-0.00364257 5.50188e-05 0)
(-0.00394093 5.65462e-05 0)
(-0.00424483 5.87599e-05 0)
(-0.00455653 6.18382e-05 0)
(-0.00487834 6.59277e-05 0)
(-0.00521231 7.11528e-05 0)
(-0.00556013 7.75885e-05 0)
(-0.00592288 8.52481e-05 0)
(-0.00630091 9.40613e-05 0)
(-0.00669358 0.00010386 0)
(-0.00709913 0.000114364 0)
(-0.00751461 0.000125185 0)
(-0.00793574 0.000135828 0)
(-0.00835696 0.000145718 0)
(-0.00877152 0.000154232 0)
(-0.00917157 0.000160736 0)
(-0.00954843 0.000164633 0)
(-0.00989282 0.000165397 0)
(-0.0101952 0.000162612 0)
(-0.010446 0.000155995 0)
(-0.0106361 0.000145405 0)
(-0.0107569 0.000130849 0)
(-0.0108005 0.000112475 0)
(-0.0107605 9.05548e-05 0)
(-0.0106314 6.54712e-05 0)
(-0.010409 3.76976e-05 0)
(-0.0100909 7.77879e-06 0)
(-0.00967587 -2.36865e-05 0)
(-0.00916424 -5.60629e-05 0)
(-0.00855789 -8.8693e-05 0)
(-0.00786015 -0.000120912 0)
(-0.00707575 -0.000152058 0)
(-0.00621078 -0.000181489 0)
(-0.00527263 -0.000208586 0)
(-0.00426986 -0.000232775 0)
(-0.00321213 -0.000253528 0)
(-0.00211008 -0.000270384 0)
(-0.000975176 -0.000282956 0)
(0.000180421 -0.000290948 0)
(0.00134406 -0.000294161 0)
(0.00250276 -0.000292511 0)
(0.00364347 -0.000286031 0)
(0.00475325 -0.000274883 0)
(0.00581953 -0.000259355 0)
(0.00683038 -0.000239858 0)
(0.00777471 -0.000216924 0)
(0.00864254 -0.000191187 0)
(0.00942521 -0.000163365 0)
(0.0101155 -0.000134241 0)
(0.010708 -0.000104635 0)
(0.0111988 -7.53734e-05 0)
(0.0115862 -4.72629e-05 0)
(0.0118699 -2.10561e-05 0)
(0.0120519 2.5765e-06 0)
(0.0121356 2.30774e-05 0)
(0.0121263 4.00304e-05 0)
(0.0120308 5.3187e-05 0)
(0.0118569 6.24896e-05 0)
(0.0116137 6.80856e-05 0)
(0.0113112 7.03305e-05 0)
(0.0109595 6.97705e-05 0)
(0.0105694 6.71015e-05 0)
(0.010151 6.30997e-05 0)
(0.00971439 5.85273e-05 0)
(0.00926897 5.40263e-05 0)
(0.00882324 5.00236e-05 0)
(0.00838475 4.66751e-05 0)
(0.00795993 4.3874e-05 0)
(0.00755395 4.13273e-05 0)
(0.00717068 3.86811e-05 0)
(0.00681266 3.56511e-05 0)
(0.00648124 3.2116e-05 0)
(0.0061768 2.81479e-05 0)
(0.00589903 2.39823e-05 0)
(0.00564713 1.99464e-05 0)
(0.00541998 1.63724e-05 0)
(0.00521617 1.35192e-05 0)
(0.00503404 1.15217e-05 0)
(0.00487169 1.03779e-05 0)
(0.00472704 9.97649e-06 0)
(0.00459795 1.01488e-05 0)
(0.00448234 1.0725e-05 0)
(0.00437828 1.15723e-05 0)
(0.00428405 1.26061e-05 0)
(0.00419828 1.37776e-05 0)
(0.00411997 1.50501e-05 0)
(0.00404857 1.63753e-05 0)
(0.00398402 1.76789e-05 0)
(0.00392672 1.88568e-05 0)
(0.00387756 1.97809e-05 0)
(0.00383782 2.03102e-05 0)
(0.00380915 2.03049e-05 0)
(0.00379345 1.96395e-05 0)
(0.00379276 1.82134e-05 0)
(0.00380919 1.59599e-05 0)
(0.00384477 1.28509e-05 0)
(0.00390135 8.89911e-06 0)
(0.00398053 4.15785e-06 0)
(0.00408352 -1.28174e-06 0)
(0.00421109 -7.29494e-06 0)
(0.00436352 -1.37292e-05 0)
(0.00454054 -2.04108e-05 0)
(0.00474131 -2.71525e-05 0)
(0.0049644 -3.37608e-05 0)
(0.00520786 -4.00446e-05 0)
(0.00546919 -4.58224e-05 0)
(0.00574542 -5.093e-05 0)
(0.0060332 -5.52274e-05 0)
(0.00632884 -5.86043e-05 0)
(0.00662845 -6.09846e-05 0)
(0.00692802 -6.23291e-05 0)
(0.00722357 -6.26368e-05 0)
(0.00751123 -6.1943e-05 0)
(0.00778737 -6.03167e-05 0)
(0.00804876 -5.78555e-05 0)
(0.00829257 -5.46787e-05 0)
(0.00851655 -5.09206e-05 0)
(0.00871901 -4.67224e-05 0)
(0.00889889 -4.22257e-05 0)
(0.00905574 -3.7566e-05 0)
(0.00918969 -3.28684e-05 0)
(0.00930143 -2.82445e-05 0)
(0.00939212 -2.37903e-05 0)
(0.0094633 -1.95855e-05 0)
(0.0095168 -1.56937e-05 0)
(0.00955467 -1.21628e-05 0)
(0.00957906 -9.02576e-06 0)
(0.00959218 -6.30151e-06 0)
(0.00959617 -3.9965e-06 0)
(0.00959312 -2.10602e-06 0)
(0.00958495 -6.15925e-07 0)
(0.00957342 4.95603e-07 0)
(0.00956011 1.25632e-06 0)
(0.00954638 1.69841e-06 0)
(0.00953337 1.85719e-06 0)
(0.00952203 1.77018e-06 0)
(0.00951307 1.4763e-06 0)
(0.00950703 1.01527e-06 0)
(0.00950423 4.27034e-07 0)
(0.00950483 -2.48864e-07 0)
(0.00950883 -9.74012e-07 0)
(0.00951607 -1.71194e-06 0)
(0.00952629 -2.42896e-06 0)
(0.00953914 -3.09505e-06 0)
(0.00955417 -3.68464e-06 0)
(0.0095709 -4.1772e-06 0)
(0.00958882 -4.55772e-06 0)
(0.0096074 -4.81691e-06 0)
(0.00962616 -4.95114e-06 0)
(0.00964462 -4.96219e-06 0)
(0.00966236 -4.8567e-06 0)
(0.00967903 -4.64558e-06 0)
(0.00969432 -4.34308e-06 0)
(0.00970802 -3.96595e-06 0)
(0.00971999 -3.53248e-06 0)
(0.00973013 -3.06154e-06 0)
(0.00973845 -2.57172e-06 0)
(0.00974498 -2.08054e-06 0)
(0.00974983 -1.60378e-06 0)
(0.00975314 -1.15497e-06 0)
(0.00975506 -7.45078e-07 0)
(0.0097558 -3.82254e-07 0)
(0.00975555 -7.18482e-08 0)
(0.00975451 1.83504e-07 0)
(0.00975287 3.83655e-07 0)
(0.00975082 5.30625e-07 0)
(0.00974852 6.28222e-07 0)
(0.00974611 6.81621e-07 0)
(0.00974371 6.96935e-07 0)
(0.00974142 6.80804e-07 0)
(0.0097393 6.40012e-07 0)
(0.0097374 5.8116e-07 0)
(0.00973577 5.10401e-07 0)
(0.0097344 4.33238e-07 0)
(0.0097333 3.54383e-07 0)
(0.00973246 2.7769e-07 0)
(0.00973185 2.06136e-07 0)
(0.00973144 1.41833e-07 0)
(0.00973121 8.61543e-08 0)
(0.00973113 3.96281e-08 0)
(0.00973115 2.5946e-09 0)
(0.00973127 -2.62332e-08 0)
(0.00973144 -4.58053e-08 0)
(0.00973164 -6.13066e-08 0)
(0.0097319 -6.90526e-08 0)
(0.00973207 -6.89497e-08 0)
(0.00973245 -1.16442e-07 0)
(-8.22536e-05 0.000132614 0)
(-0.000574531 0.000370745 0)
(-0.00129344 0.000508694 0)
(-0.00206054 0.000553498 0)
(-0.00283583 0.00057585 0)
(-0.00360363 0.00057922 0)
(-0.00435114 0.000581451 0)
(-0.00508255 0.000578141 0)
(-0.00579215 0.000574183 0)
(-0.00648407 0.000569036 0)
(-0.0071578 0.000564965 0)
(-0.0078172 0.00056262 0)
(-0.00846443 0.000563141 0)
(-0.00910308 0.000567097 0)
(-0.00973591 0.000574963 0)
(-0.0103656 0.000586876 0)
(-0.010994 0.000602709 0)
(-0.011622 0.000621997 0)
(-0.0122492 0.000643942 0)
(-0.0128738 0.00066739 0)
(-0.0134923 0.000690852 0)
(-0.0140994 0.000712535 0)
(-0.0146883 0.000730407 0)
(-0.0152505 0.000742282 0)
(-0.015776 0.000745926 0)
(-0.0162537 0.000739182 0)
(-0.0166719 0.000720086 0)
(-0.0170182 0.000686979 0)
(-0.0172803 0.000638603 0)
(-0.0174463 0.000574161 0)
(-0.0175051 0.000493351 0)
(-0.0174463 0.000396371 0)
(-0.017261 0.000283893 0)
(-0.0169416 0.000157021 0)
(-0.0164821 1.72285e-05 0)
(-0.0158781 -0.000133701 0)
(-0.015127 -0.000293741 0)
(-0.0142275 -0.000460682 0)
(-0.0131805 -0.000632186 0)
(-0.0119882 -0.000805837 0)
(-0.0106544 -0.000979178 0)
(-0.00918455 -0.00114975 0)
(-0.00758556 -0.0013151 0)
(-0.00586575 -0.00147286 0)
(-0.00403479 -0.00162071 0)
(-0.00210367 -0.00175643 0)
(-8.45729e-05 -0.00187791 0)
(0.00200918 -0.00198322 0)
(0.00416323 -0.00207055 0)
(0.0063623 -0.00213835 0)
(0.00859028 -0.00218526 0)
(0.0108304 -0.00221022 0)
(0.0130655 -0.00221248 0)
(0.0152779 -0.00219161 0)
(0.01745 -0.00214759 0)
(0.0195642 -0.00208078 0)
(0.0216032 -0.00199194 0)
(0.0235506 -0.00188227 0)
(0.0253903 -0.00175335 0)
(0.0271077 -0.00160717 0)
(0.0286892 -0.00144604 0)
(0.0301228 -0.00127257 0)
(0.031398 -0.00108959 0)
(0.0325059 -0.000900111 0)
(0.0334396 -0.000707245 0)
(0.034194 -0.000514133 0)
(0.0347658 -0.000323886 0)
(0.0351537 -0.000139528 0)
(0.0353581 3.60586e-05 0)
(0.0353817 0.000200185 0)
(0.0352289 0.000350408 0)
(0.034906 0.000484576 0)
(0.0344217 0.000600889 0)
(0.0337865 0.000697948 0)
(0.0330133 0.000774818 0)
(0.032117 0.000831086 0)
(0.0311146 0.000866918 0)
(0.0300252 0.000883112 0)
(0.0288693 0.00088113 0)
(0.0276685 0.000863105 0)
(0.0264445 0.000831774 0)
(0.0252188 0.00079032 0)
(0.024011 0.000742089 0)
(0.022839 0.000690221 0)
(0.0217175 0.000637288 0)
(0.0206583 0.000585058 0)
(0.0196698 0.000534497 0)
(0.0187575 0.00048598 0)
(0.0179234 0.000439626 0)
(0.0171675 0.000395578 0)
(0.0164874 0.000354129 0)
(0.0158796 0.000315689 0)
(0.0153396 0.000280674 0)
(0.0148625 0.000249367 0)
(0.0144434 0.000221838 0)
(0.0140777 0.000197898 0)
(0.0137611 0.000177101 0)
(0.0134899 0.000158778 0)
(0.013261 0.000142091 0)
(0.0130724 0.000126103 0)
(0.0129225 0.000109855 0)
(0.012811 9.24345e-05 0)
(0.0127382 7.30327e-05 0)
(0.012705 5.0982e-05 0)
(0.0127129 2.57848e-05 0)
(0.0127637 -2.87056e-06 0)
(0.0128593 -3.51027e-05 0)
(0.0130013 -7.08355e-05 0)
(0.0131914 -0.000109804 0)
(0.0134306 -0.000151567 0)
(0.0137196 -0.000195522 0)
(0.0140584 -0.000240929 0)
(0.014446 -0.000286938 0)
(0.0148809 -0.000332613 0)
(0.0153608 -0.000376969 0)
(0.0158825 -0.000418998 0)
(0.016442 -0.000457706 0)
(0.0170346 -0.00049214 0)
(0.0176547 -0.000521424 0)
(0.0182964 -0.000544786 0)
(0.0189532 -0.000561588 0)
(0.0196179 -0.000571354 0)
(0.0202834 -0.000573789 0)
(0.0209423 -0.000568804 0)
(0.0215872 -0.000556519 0)
(0.0222111 -0.000537273 0)
(0.0228073 -0.000511616 0)
(0.0233696 -0.000480292 0)
(0.0238926 -0.000444217 0)
(0.0243718 -0.000404434 0)
(0.0248039 -0.000362077 0)
(0.0251864 -0.000318315 0)
(0.0255182 -0.0002743 0)
(0.0257993 -0.000231118 0)
(0.0260309 -0.000189743 0)
(0.0262154 -0.000151004 0)
(0.0263558 -0.000115559 0)
(0.0264562 -8.38868e-05 0)
(0.026521 -5.62877e-05 0)
(0.0265554 -3.28959e-05 0)
(0.0265643 -1.36989e-05 0)
(0.026553 1.4387e-06 0)
(0.0265265 1.27498e-05 0)
(0.0264894 2.05406e-05 0)
(0.0264461 2.51689e-05 0)
(0.0264002 2.70252e-05 0)
(0.0263551 2.65179e-05 0)
(0.0263134 2.40603e-05 0)
(0.0262771 2.00609e-05 0)
(0.0262479 1.49152e-05 0)
(0.0262267 8.99816e-06 0)
(0.026214 2.65872e-06 0)
(0.02621 -3.786e-06 0)
(0.0262144 -1.00551e-05 0)
(0.0262267 -1.59075e-05 0)
(0.0262459 -2.11451e-05 0)
(0.0262711 -2.5614e-05 0)
(0.0263012 -2.92054e-05 0)
(0.0263348 -3.18548e-05 0)
(0.0263709 -3.35397e-05 0)
(0.0264082 -3.42765e-05 0)
(0.0264455 -3.41163e-05 0)
(0.0264819 -3.31392e-05 0)
(0.0265164 -3.14484e-05 0)
(0.0265485 -2.91642e-05 0)
(0.0265774 -2.64169e-05 0)
(0.0266029 -2.33409e-05 0)
(0.0266247 -2.00685e-05 0)
(0.0266428 -1.67248e-05 0)
(0.0266571 -1.34236e-05 0)
(0.0266679 -1.02636e-05 0)
(0.0266755 -7.32631e-06 0)
(0.0266801 -4.67475e-06 0)
(0.0266823 -2.35304e-06 0)
(0.0266823 -3.8705e-07 0)
(0.0266806 1.21429e-06 0)
(0.0266776 2.45702e-06 0)
(0.0266738 3.35981e-06 0)
(0.0266693 3.95135e-06 0)
(0.0266646 4.26761e-06 0)
(0.0266599 4.34922e-06 0)
(0.0266553 4.23899e-06 0)
(0.0266511 3.97971e-06 0)
(0.0266473 3.61232e-06 0)
(0.0266439 3.17446e-06 0)
(0.0266412 2.69939e-06 0)
(0.0266389 2.21535e-06 0)
(0.0266372 1.74525e-06 0)
(0.0266359 1.30662e-06 0)
(0.026635 9.11937e-07 0)
(0.0266345 5.69007e-07 0)
(0.0266343 2.8164e-07 0)
(0.0266343 5.00006e-08 0)
(0.0266344 -1.27665e-07 0)
(0.0266347 -2.57868e-07 0)
(0.0266351 -3.40952e-07 0)
(0.0266356 -3.98023e-07 0)
(0.026636 -4.108e-07 0)
(0.0266364 -4.13173e-07 0)
(0.0266369 -4.63657e-07 0)
(-0.000178244 0.000636899 0)
(-0.00103753 0.00123749 0)
(-0.00215666 0.00151614 0)
(-0.00329197 0.00156208 0)
(-0.00438329 0.00156413 0)
(-0.00542116 0.00152915 0)
(-0.00639006 0.00149573 0)
(-0.00730185 0.00145626 0)
(-0.00815386 0.0014194 0)
(-0.0089552 0.00138418 0)
(-0.00970816 0.00135369 0)
(-0.0104186 0.0013285 0)
(-0.0110896 0.00130959 0)
(-0.0117244 0.00129696 0)
(-0.0123248 0.00129028 0)
(-0.0128915 0.00128855 0)
(-0.0134239 0.00129025 0)
(-0.0139202 0.00129334 0)
(-0.014377 0.00129528 0)
(-0.0147894 0.00129312 0)
(-0.0151512 0.00128365 0)
(-0.0154552 0.0012635 0)
(-0.015693 0.0012293 0)
(-0.0158555 0.00117788 0)
(-0.0159332 0.0011064 0)
(-0.0159166 0.00101248 0)
(-0.0157962 0.00089433 0)
(-0.0155632 0.000750833 0)
(-0.0152095 0.000581554 0)
(-0.0147278 0.000386754 0)
(-0.0141119 0.000167363 0)
(-0.013357 -7.50846e-05 0)
(-0.0124594 -0.000338515 0)
(-0.0114165 -0.000620399 0)
(-0.0102274 -0.000917834 0)
(-0.00889218 -0.00122762 0)
(-0.00741228 -0.00154635 0)
(-0.00579038 -0.00187043 0)
(-0.00403038 -0.00219617 0)
(-0.00213738 -0.00251983 0)
(-0.000117644 -0.00283762 0)
(0.00202139 -0.00314579 0)
(0.00427115 -0.00344059 0)
(0.00662198 -0.00371836 0)
(0.00906312 -0.00397553 0)
(0.0115828 -0.00420866 0)
(0.0141681 -0.00441446 0)
(0.0168054 -0.00458985 0)
(0.0194801 -0.00473198 0)
(0.0221768 -0.00483831 0)
(0.0248794 -0.00490665 0)
(0.0275713 -0.00493524 0)
(0.0302357 -0.0049228 0)
(0.0328553 -0.00486858 0)
(0.0354132 -0.00477247 0)
(0.0378925 -0.00463495 0)
(0.040277 -0.00445721 0)
(0.0425513 -0.00424107 0)
(0.0447007 -0.00398904 0)
(0.0467119 -0.00370419 0)
(0.0485729 -0.00339013 0)
(0.0502731 -0.0030509 0)
(0.0518034 -0.00269089 0)
(0.0531562 -0.0023147 0)
(0.0543255 -0.00192703 0)
(0.0553067 -0.00153262 0)
(0.0560963 -0.00113613 0)
(0.0566922 -0.000742078 0)
(0.0570933 -0.000354826 0)
(0.0572995 2.1463e-05 0)
(0.0573117 0.000382823 0)
(0.0571316 0.00072547 0)
(0.0567619 0.00104578 0)
(0.0562062 0.00134029 0)
(0.0554695 0.00160565 0)
(0.0545581 0.00183867 0)
(0.0534799 0.00203637 0)
(0.0522451 0.00219607 0)
(0.050866 0.00231558 0)
(0.049358 0.00239346 0)
(0.0477392 0.00242928 0)
(0.0460308 0.00242395 0)
(0.0442569 0.00237988 0)
(0.042444 0.00230107 0)
(0.0406201 0.00219289 0)
(0.0388134 0.00206179 0)
(0.0370512 0.00191476 0)
(0.0353579 0.00175877 0)
(0.0337542 0.00160021 0)
(0.0322561 0.00144441 0)
(0.0308745 0.00129528 0)
(0.0296158 0.00115528 0)
(0.0284821 0.00102555 0)
(0.0274717 0.000906218 0)
(0.0265808 0.000796807 0)
(0.0258037 0.000696451 0)
(0.0251338 0.000604067 0)
(0.0245644 0.000518391 0)
(0.0240891 0.000437978 0)
(0.0237023 0.000361227 0)
(0.0233988 0.000286446 0)
(0.0231748 0.000211955 0)
(0.023027 0.000136199 0)
(0.022953 5.78584e-05 0)
(0.022951 -2.40743e-05 0)
(0.0230195 -0.000110236 0)
(0.0231574 -0.000200868 0)
(0.0233636 -0.00029582 0)
(0.0236371 -0.000394565 0)
(0.0239765 -0.000496241 0)
(0.0243801 -0.000599688 0)
(0.0248457 -0.000703511 0)
(0.0253705 -0.000806123 0)
(0.0259512 -0.00090581 0)
(0.0265838 -0.00100078 0)
(0.0272637 -0.00108922 0)
(0.0279856 -0.00116935 0)
(0.0287435 -0.00123946 0)
(0.029531 -0.00129798 0)
(0.0303411 -0.00134353 0)
(0.0311664 -0.00137493 0)
(0.031999 -0.00139131 0)
(0.0328311 -0.00139209 0)
(0.0336545 -0.00137703 0)
(0.0344611 -0.00134631 0)
(0.0352432 -0.00130046 0)
(0.0359932 -0.00124044 0)
(0.0367041 -0.0011676 0)
(0.0373697 -0.00108364 0)
(0.0379845 -0.000990566 0)
(0.0385441 -0.000890654 0)
(0.039045 -0.000786339 0)
(0.0394852 -0.000680134 0)
(0.0398635 -0.000574536 0)
(0.0401804 -0.000471923 0)
(0.0404375 -0.000374464 0)
(0.0406374 -0.000284036 0)
(0.040784 -0.000202162 0)
(0.040882 -0.000129969 0)
(0.0409368 -6.81719e-05 0)
(0.0409544 -1.70765e-05 0)
(0.0409412 2.3389e-05 0)
(0.0409035 5.363e-05 0)
(0.0408477 7.43281e-05 0)
(0.0407798 8.63771e-05 0)
(0.0407052 9.08197e-05 0)
(0.0406289 8.8788e-05 0)
(0.0405552 8.14506e-05 0)
(0.0404875 6.99698e-05 0)
(0.0404286 5.54658e-05 0)
(0.0403803 3.89906e-05 0)
(0.0403441 2.15071e-05 0)
(0.0403203 3.87503e-06 0)
(0.040309 -1.31596e-05 0)
(0.0403097 -2.89714e-05 0)
(0.0403214 -4.30588e-05 0)
(0.0403428 -5.50452e-05 0)
(0.0403725 -6.46767e-05 0)
(0.0404087 -7.18164e-05 0)
(0.0404498 -7.64374e-05 0)
(0.040494 -7.86115e-05 0)
(0.0405397 -7.84962e-05 0)
(0.0405853 -7.63199e-05 0)
(0.0406296 -7.23653e-05 0)
(0.0406713 -6.69525e-05 0)
(0.0407095 -6.0422e-05 0)
(0.0407437 -5.3118e-05 0)
(0.0407732 -4.53745e-05 0)
(0.040798 -3.75017e-05 0)
(0.0408179 -2.97765e-05 0)
(0.0408332 -2.24344e-05 0)
(0.0408441 -1.5665e-05 0)
(0.0408511 -9.61003e-06 0)
(0.0408546 -4.36365e-06 0)
(0.0408551 2.48707e-08 0)
(0.0408534 3.54677e-06 0)
(0.0408498 6.22824e-06 0)
(0.0408449 8.12394e-06 0)
(0.0408392 9.31021e-06 0)
(0.040833 9.87833e-06 0)
(0.0408268 9.92808e-06 0)
(0.0408208 9.562e-06 0)
(0.0408153 8.88045e-06 0)
(0.0408103 7.97757e-06 0)
(0.0408059 6.93833e-06 0)
(0.0408023 5.83641e-06 0)
(0.0407993 4.73314e-06 0)
(0.040797 3.67707e-06 0)
(0.0407954 2.70437e-06 0)
(0.0407942 1.8397e-06 0)
(0.0407936 1.0974e-06 0)
(0.0407933 4.83034e-07 0)
(0.0407933 -5.01401e-09 0)
(0.0407936 -3.73861e-07 0)
(0.040794 -6.35486e-07 0)
(0.0407945 -8.01017e-07 0)
(0.0407951 -8.96325e-07 0)
(0.0407956 -9.12514e-07 0)
(0.0407962 -9.09178e-07 0)
(0.0407968 -8.95751e-07 0)
(-0.000306956 0.00125138 0)
(-0.00152153 0.00229547 0)
(-0.00287887 0.00270573 0)
(-0.00415112 0.00272477 0)
(-0.00525708 0.00266494 0)
(-0.00624637 0.00254931 0)
(-0.00710448 0.0024357 0)
(-0.00786459 0.00231854 0)
(-0.00852749 0.00220959 0)
(-0.00910914 0.00210799 0)
(-0.00961375 0.00201633 0)
(-0.0100489 0.00193423 0)
(-0.0104178 0.00186143 0)
(-0.0107233 0.00179669 0)
(-0.0109664 0.00173835 0)
(-0.0111468 0.00168413 0)
(-0.011263 0.00163129 0)
(-0.0113125 0.00157659 0)
(-0.0112916 0.00151645 0)
(-0.0111958 0.00144704 0)
(-0.01102 0.0013644 0)
(-0.0107585 0.00126465 0)
(-0.0104055 0.00114411 0)
(-0.00995485 0.000999503 0)
(-0.00940074 0.000828078 0)
(-0.00873756 0.000627728 0)
(-0.0079602 0.000397077 0)
(-0.00706412 0.000135524 0)
(-0.00604552 -0.000156748 0)
(-0.00490135 -0.000478798 0)
(-0.0036294 -0.000828972 0)
(-0.0022283 -0.00120497 0)
(-0.000697579 -0.00160394 0)
(0.000962383 -0.00202254 0)
(0.0027503 -0.00245703 0)
(0.004664 -0.00290334 0)
(0.00670038 -0.00335715 0)
(0.00885545 -0.00381394 0)
(0.0111242 -0.00426904 0)
(0.0135009 -0.00471765 0)
(0.0159784 -0.00515493 0)
(0.0185489 -0.005576 0)
(0.0212035 -0.00597596 0)
(0.0239322 -0.00634999 0)
(0.026724 -0.00669331 0)
(0.0295669 -0.00700131 0)
(0.032448 -0.00726951 0)
(0.0353533 -0.00749371 0)
(0.0382683 -0.00766999 0)
(0.0411775 -0.00779484 0)
(0.0440648 -0.00786521 0)
(0.046914 -0.00787867 0)
(0.0497084 -0.00783344 0)
(0.0524314 -0.00772856 0)
(0.055067 -0.0075639 0)
(0.0575995 -0.00734032 0)
(0.0600143 -0.00705958 0)
(0.0622979 -0.00672447 0)
(0.0644384 -0.00633866 0)
(0.0664253 -0.00590666 0)
(0.0682501 -0.00543371 0)
(0.0699058 -0.00492558 0)
(0.0713874 -0.00438844 0)
(0.0726915 -0.00382864 0)
(0.0738162 -0.00325257 0)
(0.0747609 -0.00266648 0)
(0.0755261 -0.00207638 0)
(0.0761131 -0.00148793 0)
(0.0765236 -0.000906412 0)
(0.0767599 -0.00033668 0)
(0.0768242 0.000216779 0)
(0.0767189 0.000749817 0)
(0.0764464 0.00125856 0)
(0.0760087 0.00173934 0)
(0.075408 0.0021886 0)
(0.0746463 0.00260282 0)
(0.073726 0.00297852 0)
(0.0726495 0.00331218 0)
(0.0714202 0.00360031 0)
(0.0700423 0.00383954 0)
(0.0685217 0.00402676 0)
(0.066866 0.00415931 0)
(0.0650857 0.00423529 0)
(0.0631941 0.00425383 0)
(0.0612082 0.00421536 0)
(0.0591486 0.00412197 0)
(0.0570396 0.00397757 0)
(0.0549086 0.00378802 0)
(0.0527849 0.00356103 0)
(0.0506987 0.00330568 0)
(0.0486795 0.00303185 0)
(0.0467542 0.00274928 0)
(0.044946 0.0024668 0)
(0.043273 0.00219163 0)
(0.041748 0.00192897 0)
(0.0403785 0.00168189 0)
(0.0391671 0.00145147 0)
(0.0381123 0.00123718 0)
(0.0372099 0.0010373 0)
(0.0364536 0.000849388 0)
(0.0358358 0.000670661 0)
(0.0353486 0.000498345 0)
(0.0349844 0.000329896 0)
(0.0347355 0.000163157 0)
(0.0345951 -3.54474e-06 0)
(0.0345571 -0.000171353 0)
(0.0346156 -0.00034086 0)
(0.0347654 -0.000512113 0)
(0.0350015 -0.000684646 0)
(0.035319 -0.000857518 0)
(0.0357131 -0.00102938 0)
(0.036179 -0.00119852 0)
(0.0367116 -0.00136296 0)
(0.0373054 -0.00152053 0)
(0.0379548 -0.00166892 0)
(0.0386537 -0.00180576 0)
(0.0393957 -0.00192872 0)
(0.040174 -0.00203555 0)
(0.0409812 -0.00212416 0)
(0.04181 -0.00219268 0)
(0.0426526 -0.00223955 0)
(0.0435009 -0.00226356 0)
(0.0443469 -0.00226392 0)
(0.0451826 -0.00224031 0)
(0.046 -0.00219294 0)
(0.0467915 -0.00212256 0)
(0.04755 -0.00203045 0)
(0.0482688 -0.00191848 0)
(0.0489419 -0.001789 0)
(0.0495643 -0.00164482 0)
(0.0501318 -0.00148915 0)
(0.0506412 -0.00132546 0)
(0.0510907 -0.00115736 0)
(0.0514791 -0.000988535 0)
(0.0518068 -0.00082254 0)
(0.052075 -0.00066273 0)
(0.0522861 -0.000512126 0)
(0.0524431 -0.000373327 0)
(0.0525501 -0.000248437 0)
(0.0526119 -0.000139011 0)
(0.0526338 -4.60427e-05 0)
(0.0526213 3.00436e-05 0)
(0.0525804 8.93597e-05 0)
(0.052517 0.000132509 0)
(0.0524371 0.000160523 0)
(0.0523462 0.000174783 0)
(0.0522497 0.000176934 0)
(0.0521524 0.000168802 0)
(0.0520585 0.000152308 0)
(0.0519715 0.00012939 0)
(0.0518942 0.000101934 0)
(0.0518288 7.17209e-05 0)
(0.0517767 4.03787e-05 0)
(0.0517385 9.35077e-06 0)
(0.0517144 -2.01275e-05 0)
(0.0517039 -4.70415e-05 0)
(0.0517061 -7.06034e-05 0)
(0.0517197 -9.02497e-05 0)
(0.0517432 -0.000105634 0)
(0.0517747 -0.000116614 0)
(0.0518124 -0.000123231 0)
(0.0518544 -0.000125694 0)
(0.0518989 -0.000124345 0)
(0.0519441 -0.000119639 0)
(0.0519886 -0.00011211 0)
(0.0520309 -0.000102341 0)
(0.0520701 -9.0936e-05 0)
(0.0521052 -7.84904e-05 0)
(0.0521358 -6.55684e-05 0)
(0.0521614 -5.26818e-05 0)
(0.0521821 -4.02737e-05 0)
(0.0521979 -2.87087e-05 0)
(0.0522091 -1.82665e-05 0)
(0.0522161 -9.14142e-06 0)
(0.0522195 -1.44591e-06 0)
(0.0522198 4.7828e-06 0)
(0.0522176 9.57278e-06 0)
(0.0522136 1.3006e-05 0)
(0.0522082 1.52061e-05 0)
(0.052202 1.63257e-05 0)
(0.0521954 1.6535e-05 0)
(0.0521888 1.60106e-05 0)
(0.0521825 1.49266e-05 0)
(0.0521767 1.3447e-05 0)
(0.0521715 1.17205e-05 0)
(0.0521671 9.87584e-06 0)
(0.0521634 8.02057e-06 0)
(0.0521605 6.23981e-06 0)
(0.0521583 4.59697e-06 0)
(0.0521568 3.13531e-06 0)
(0.0521558 1.88011e-06 0)
(0.0521553 8.41365e-07 0)
(0.0521551 1.65826e-08 0)
(0.0521553 -6.06287e-07 0)
(0.0521557 -1.04634e-06 0)
(0.0521562 -1.3265e-06 0)
(0.0521568 -1.47641e-06 0)
(0.0521574 -1.50932e-06 0)
(0.052158 -1.49197e-06 0)
(0.0521586 -1.39205e-06 0)
(-0.00040833 0.0024685 0)
(-0.00173251 0.00378694 0)
(-0.00300932 0.00413284 0)
(-0.00407781 0.00388882 0)
(-0.00485603 0.00362632 0)
(-0.00545472 0.00333553 0)
(-0.00586974 0.00308421 0)
(-0.00615963 0.00285182 0)
(-0.00633204 0.0026439 0)
(-0.00641136 0.00245449 0)
(-0.00640388 0.00228239 0)
(-0.00631908 0.00212477 0)
(-0.00615994 0.00197928 0)
(-0.00592932 0.00184318 0)
(-0.00562738 0.00171346 0)
(-0.00525365 0.00158683 0)
(-0.00480633 0.00145964 0)
(-0.00428308 0.00132797 0)
(-0.00368088 0.00118771 0)
(-0.0029964 0.00103463 0)
(-0.00222605 0.000864544 0)
(-0.00136619 0.000673461 0)
(-0.000413209 0.000457738 0)
(0.000636299 0.000214223 0)
(0.00178549 -5.9618e-05 0)
(0.00303714 -0.000365603 0)
(0.00439366 -0.00070477 0)
(0.00585693 -0.00107735 0)
(0.00742837 -0.00148276 0)
(0.00910885 -0.00191965 0)
(0.0108987 -0.00238594 0)
(0.0127975 -0.00287886 0)
(0.0148045 -0.00339509 0)
(0.0169181 -0.00393074 0)
(0.019136 -0.00448152 0)
(0.0214551 -0.00504272 0)
(0.0238718 -0.00560932 0)
(0.0263813 -0.00617604 0)
(0.0289781 -0.00673733 0)
(0.0316558 -0.00728751 0)
(0.0344068 -0.00782069 0)
(0.0372228 -0.00833091 0)
(0.040094 -0.00881216 0)
(0.0430098 -0.00925838 0)
(0.0459585 -0.00966363 0)
(0.0489272 -0.010022 0)
(0.0519023 -0.0103279 0)
(0.0548689 -0.010576 0)
(0.0578117 -0.0107612 0)
(0.0607146 -0.0108791 0)
(0.0635611 -0.0109258 0)
(0.0663347 -0.0108984 0)
(0.069019 -0.0107947 0)
(0.0715981 -0.0106139 0)
(0.074057 -0.0103561 0)
(0.0763823 -0.010023 0)
(0.0785619 -0.00961751 0)
(0.0805859 -0.00914379 0)
(0.0824466 -0.0086073 0)
(0.0841386 -0.00801453 0)
(0.0856589 -0.00737281 0)
(0.0870068 -0.00669005 0)
(0.0881834 -0.00597449 0)
(0.0891918 -0.00523438 0)
(0.0900363 -0.00447778 0)
(0.0907222 -0.00371231 0)
(0.0912556 -0.00294504 0)
(0.0916424 -0.00218237 0)
(0.0918889 -0.00142999 0)
(0.0920005 -0.000692918 0)
(0.0919823 2.44629e-05 0)
(0.0918385 0.000718279 0)
(0.0915725 0.00138506 0)
(0.0911869 0.00202159 0)
(0.0906832 0.00262481 0)
(0.0900622 0.00319164 0)
(0.089324 0.00371893 0)
(0.0884683 0.00420337 0)
(0.0874942 0.00464148 0)
(0.0864009 0.00502962 0)
(0.0851875 0.00536411 0)
(0.083854 0.0056413 0)
(0.082401 0.00585782 0)
(0.0808308 0.00601074 0)
(0.0791473 0.00609778 0)
(0.0773571 0.00611763 0)
(0.0754696 0.00607013 0)
(0.0734974 0.00595657 0)
(0.071457 0.00577991 0)
(0.0693683 0.00554491 0)
(0.0672547 0.00525809 0)
(0.0651426 0.00492761 0)
(0.0630598 0.00456285 0)
(0.0610349 0.00417393 0)
(0.0590951 0.00377099 0)
(0.0572655 0.00336355 0)
(0.055567 0.0029598 0)
(0.0540165 0.00256615 0)
(0.0526253 0.00218693 0)
(0.0514001 0.00182443 0)
(0.0503432 0.00147911 0)
(0.0494526 0.00115002 0)
(0.0487237 0.000835315 0)
(0.0481496 0.000532705 0)
(0.0477222 0.000239898 0)
(0.0474325 -4.50846e-05 0)
(0.0472712 -0.000323696 0)
(0.0472292 -0.000596753 0)
(0.0472976 -0.000864399 0)
(0.0474675 -0.00112613 0)
(0.0477308 -0.00138086 0)
(0.0480791 -0.001627 0)
(0.0485046 -0.00186254 0)
(0.0489993 -0.00208518 0)
(0.0495553 -0.00229239 0)
(0.0501647 -0.00248155 0)
(0.0508195 -0.00265 0)
(0.0515115 -0.00279515 0)
(0.0522324 -0.00291459 0)
(0.0529739 -0.00300615 0)
(0.0537275 -0.00306803 0)
(0.0544848 -0.00309883 0)
(0.0552373 -0.00309768 0)
(0.0559771 -0.00306431 0)
(0.056696 -0.00299908 0)
(0.0573869 -0.00290305 0)
(0.0580427 -0.00277798 0)
(0.0586574 -0.00262633 0)
(0.0592256 -0.00245123 0)
(0.059743 -0.0022564 0)
(0.0602062 -0.00204603 0)
(0.0606131 -0.00182468 0)
(0.0609626 -0.00159711 0)
(0.0612545 -0.00136811 0)
(0.0614901 -0.00114237 0)
(0.0616713 -0.000924267 0)
(0.0618011 -0.000717781 0)
(0.0618833 -0.00052634 0)
(0.0619222 -0.000352748 0)
(0.0619225 -0.00019913 0)
(0.0618895 -6.69056e-05 0)
(0.0618283 4.3196e-05 0)
(0.0617442 0.000131108 0)
(0.0616426 0.000197369 0)
(0.0615284 0.000243054 0)
(0.0614063 0.000269692 0)
(0.0612807 0.000279184 0)
(0.0611557 0.000273706 0)
(0.0610346 0.000255624 0)
(0.0609207 0.000227402 0)
(0.0608163 0.000191523 0)
(0.0607235 0.000150407 0)
(0.0606438 0.000106346 0)
(0.060578 6.14462e-05 0)
(0.0605265 1.75779e-05 0)
(0.0604894 -2.36557e-05 0)
(0.060466 -6.09437e-05 0)
(0.0604556 -9.32786e-05 0)
(0.0604569 -0.000119957 0)
(0.0604684 -0.000140573 0)
(0.0604886 -0.000154995 0)
(0.0605156 -0.000163346 0)
(0.0605478 -0.000165971 0)
(0.0605835 -0.000163397 0)
(0.0606208 -0.000156296 0)
(0.0606584 -0.00014544 0)
(0.060695 -0.000131661 0)
(0.0607293 -0.000115811 0)
(0.0607606 -9.87178e-05 0)
(0.0607882 -8.11584e-05 0)
(0.0608117 -6.38277e-05 0)
(0.0608308 -4.73191e-05 0)
(0.0608457 -3.21105e-05 0)
(0.0608565 -1.85584e-05 0)
(0.0608636 -6.898e-06 0)
(0.0608672 2.75003e-06 0)
(0.0608681 1.03682e-05 0)
(0.0608666 1.60271e-05 0)
(0.0608632 1.98686e-05 0)
(0.0608586 2.20869e-05 0)
(0.0608532 2.29113e-05 0)
(0.0608474 2.2589e-05 0)
(0.0608415 2.13705e-05 0)
(0.0608359 1.94969e-05 0)
(0.0608306 1.71905e-05 0)
(0.060826 1.46478e-05 0)
(0.060822 1.20353e-05 0)
(0.0608187 9.48728e-06 0)
(0.0608161 7.10602e-06 0)
(0.0608142 4.96369e-06 0)
(0.0608128 3.10508e-06 0)
(0.060812 1.5514e-06 0)
(0.0608115 3.04415e-07 0)
(0.0608115 -6.49252e-07 0)
(0.0608117 -1.33423e-06 0)
(0.060812 -1.78211e-06 0)
(0.0608125 -2.03003e-06 0)
(0.0608131 -2.10933e-06 0)
(0.0608136 -2.08859e-06 0)
(0.0608142 -1.90442e-06 0)
(-0.000698826 0.00309628 0)
(-0.0021091 0.00471835 0)
(-0.00257498 0.00494563 0)
(-0.0028088 0.00450065 0)
(-0.0026301 0.00403238 0)
(-0.0023589 0.00356969 0)
(-0.00193214 0.00316919 0)
(-0.00143316 0.00281436 0)
(-0.000851302 0.00250088 0)
(-0.000209951 0.00222014 0)
(0.000491569 0.00196526 0)
(0.00124686 0.00173084 0)
(0.00205654 0.00151165 0)
(0.00292019 0.00130334 0)
(0.00383976 0.00110152 0)
(0.00481731 0.000902036 0)
(0.00585576 0.000700635 0)
(0.00695818 0.000493064 0)
(0.00812786 0.00027502 0)
(0.00936807 4.22573e-05 0)
(0.010682 -0.00020934 0)
(0.0120725 -0.000483631 0)
(0.0135424 -0.000784094 0)
(0.0150939 -0.00111371 0)
(0.0167291 -0.00147484 0)
(0.0184495 -0.00186916 0)
(0.0202562 -0.00229756 0)
(0.0221501 -0.00276016 0)
(0.0241315 -0.00325625 0)
(0.0262001 -0.00378433 0)
(0.0283554 -0.00434213 0)
(0.0305961 -0.00492666 0)
(0.0329205 -0.00553427 0)
(0.0353261 -0.00616071 0)
(0.0378097 -0.00680117 0)
(0.0403675 -0.00745039 0)
(0.0429947 -0.00810266 0)
(0.0456856 -0.00875188 0)
(0.0484336 -0.00939165 0)
(0.051231 -0.0100152 0)
(0.0540691 -0.0106157 0)
(0.056938 -0.0111858 0)
(0.0598266 -0.0117183 0)
(0.0627226 -0.0122058 0)
(0.0656127 -0.0126411 0)
(0.0684824 -0.0130168 0)
(0.0713163 -0.0133262 0)
(0.0740982 -0.0135627 0)
(0.0768112 -0.0137201 0)
(0.0794382 -0.0137932 0)
(0.0819623 -0.0137777 0)
(0.0843668 -0.0136702 0)
(0.0866362 -0.0134689 0)
(0.0887564 -0.0131735 0)
(0.0907155 -0.0127855 0)
(0.092504 -0.0123081 0)
(0.0941155 -0.0117463 0)
(0.0955466 -0.0111069 0)
(0.0967973 -0.0103982 0)
(0.0978708 -0.00962944 0)
(0.0987732 -0.00881089 0)
(0.0995131 -0.00795314 0)
(0.100101 -0.00706677 0)
(0.100549 -0.00616197 0)
(0.100868 -0.00524824 0)
(0.101073 -0.00433415 0)
(0.101174 -0.0034272 0)
(0.101183 -0.00253374 0)
(0.10111 -0.00165905 0)
(0.100963 -0.000807392 0)
(0.10075 1.78512e-05 0)
(0.100475 0.000813971 0)
(0.100142 0.00157876 0)
(0.0997531 0.00231033 0)
(0.099309 0.00300689 0)
(0.0988091 0.00366663 0)
(0.0982513 0.00428757 0)
(0.0976329 0.00486742 0)
(0.0969502 0.00540358 0)
(0.0961988 0.00589306 0)
(0.0953739 0.00633254 0)
(0.0944706 0.00671843 0)
(0.093484 0.00704696 0)
(0.0924097 0.00731437 0)
(0.0912442 0.00751707 0)
(0.0899851 0.00765191 0)
(0.0886316 0.00771638 0)
(0.0871852 0.00770894 0)
(0.0856497 0.00762922 0)
(0.0840322 0.00747831 0)
(0.0823427 0.00725884 0)
(0.0805947 0.00697508 0)
(0.0788049 0.00663288 0)
(0.0769931 0.00623945 0)
(0.0751813 0.00580311 0)
(0.0733933 0.00533292 0)
(0.0716533 0.0048382 0)
(0.0699849 0.00432807 0)
(0.06841 0.00381092 0)
(0.0669478 0.00329411 0)
(0.065614 0.00278359 0)
(0.0644202 0.00228383 0)
(0.063374 0.00179785 0)
(0.062479 0.00132738 0)
(0.0617352 0.00087317 0)
(0.0611395 0.000435278 0)
(0.0606865 1.34546e-05 0)