/*--------------------------------*- C++ -*----------------------------------*\
| =========                 |                                                 |
| \\      /  F ield         | OpenFOAM: The Open Source CFD Toolbox           |
|  \\    /   O peration     | Version:  4.1                                   |
|   \\  /    A nd           | Web:      www.OpenFOAM.org                      |
|    \\/     M anipulation  |                                                 |
\*---------------------------------------------------------------------------*/
FoamFile
{
    version     2.0;
    format      ascii;
    class       volVectorField;
    location    "0.0261";
    object      U;
}
// * * * * * * * * * * * * * * * * * * * * * * * * * * * * * * * * * * * * * //

dimensions      [0 1 -1 0 0 0 0];

internalField   nonuniform List<vector> 
441
(
(-0.000102294 8.4408e-05 0)
(-0.000501566 0.000285147 0)
(-0.0010989 0.000482008 0)
(-0.00184144 0.000614864 0)
(-0.00265667 0.000673408 0)
(-0.00347175 0.000663583 0)
(-0.00422306 0.000596936 0)
(-0.00485961 0.000486272 0)
(-0.00534325 0.000343771 0)
(-0.00564759 0.000180412 0)
(-0.00575667 6.15561e-06 0)
(-0.00566419 -0.000169478 0)
(-0.00537337 -0.000336659 0)
(-0.00489775 -0.000484569 0)
(-0.00426256 -0.000600972 0)
(-0.00350635 -0.000672311 0)
(-0.00268199 -0.000684625 0)
(-0.00185603 -0.000625783 0)
(-0.00110441 -0.00049012 0)
(-0.000501864 -0.000289152 0)
(-0.000101712 -8.48383e-05 0)
(-0.000345565 0.000460257 0)
(-0.0015284 0.00135748 0)
(-0.00316099 0.00212126 0)
(-0.00510866 0.00261773 0)
(-0.00720118 0.00282097 0)
(-0.00926853 0.00275529 0)
(-0.0111611 0.00246561 0)
(-0.0127579 0.00200206 0)
(-0.0139677 0.00141262 0)
(-0.0147275 0.000740662 0)
(-0.0149988 2.55594e-05 0)
(-0.0147669 -0.000695034 0)
(-0.0140396 -0.00138225 0)
(-0.0128497 -0.00199331 0)
(-0.0112575 -0.00247985 0)
(-0.00935495 -0.00278844 0)
(-0.00726695 -0.00286435 0)
(-0.00514953 -0.00266033 0)
(-0.00317971 -0.00215312 0)
(-0.00153294 -0.00137341 0)
(-0.000345429 -0.000462464 0)
(-0.000605648 0.00107021 0)
(-0.00253133 0.00295615 0)
(-0.0050709 0.00444508 0)
(-0.00802021 0.00537601 0)
(-0.0111389 0.00572858 0)
(-0.0141904 0.00555803 0)
(-0.0169672 0.00495319 0)
(-0.0193011 0.00401146 0)
(-0.0210655 0.00282578 0)
(-0.0221723 0.00148017 0)
(-0.0225683 5.08816e-05 0)
(-0.0222325 -0.00138919 0)
(-0.0211758 -0.00276483 0)
(-0.0194432 -0.00399316 0)
(-0.0171185 -0.00498053 0)
(-0.0143289 -0.00562332 0)
(-0.0112477 -0.00581501 0)
(-0.0080917 -0.00546193 0)
(-0.00510746 -0.0045105 0)
(-0.00254354 -0.00298997 0)
(-0.000607082 -0.00107583 0)
(-0.000848784 0.00190541 0)
(-0.00346362 0.00506108 0)
(-0.00682578 0.0074246 0)
(-0.0106619 0.00884853 0)
(-0.0146678 0.00934362 0)
(-0.018553 0.00901285 0)
(-0.0220663 0.00800153 0)
(-0.0250068 0.00646425 0)
(-0.0272243 0.00454696 0)
(-0.0286151 0.00238077 0)
(-0.0291163 8.41269e-05 0)
(-0.0287026 -0.00223004 0)
(-0.0273856 -0.00444513 0)
(-0.0252166 -0.00643225 0)
(-0.0222931 -0.0080449 0)
(-0.018765 -0.00911991 0)
(-0.0148398 -0.00948756 0)
(-0.0107803 -0.00899397 0)
(-0.00689139 -0.0075378 0)
(-0.0034894 -0.00512183 0)
(-0.000853236 -0.00191698 0)
(-0.00107977 0.00295682 0)
(-0.00435535 0.00765912 0)
(-0.00850409 0.011048 0)
(-0.0131798 0.0130201 0)
(-0.018013 0.0136439 0)
(-0.022662 0.0130912 0)
(-0.0268392 0.0115795 0)
(-0.0303194 0.00933214 0)
(-0.0329374 0.00655586 0)
(-0.0345806 0.00343402 0)
(-0.0351808 0.000130476 0)
(-0.0347094 -0.00319943 0)
(-0.033176 -0.00639507 0)
(-0.0306331 -0.00927746 0)
(-0.0271834 -0.0116408 0)
(-0.0229907 -0.0132526 0)
(-0.0182875 -0.0138662 0)
(-0.013377 -0.0132496 0)
(-0.00862052 -0.0112316 0)
(-0.00440611 -0.00776194 0)
(-0.00109001 -0.00297921 0)
(-0.00131305 0.00422641 0)
(-0.00526228 0.0107596 0)
(-0.0102119 0.0153303 0)
(-0.0157356 0.0179043 0)
(-0.0213926 0.0186364 0)
(-0.0267898 0.0177918 0)
(-0.0316063 0.0156798 0)
(-0.0355992 0.0126059 0)
(-0.0385953 0.00884608 0)
(-0.0404791 0.00464 0)
(-0.0411809 0.000198088 0)
(-0.0406694 -0.00428204 0)
(-0.03895 -0.00859554 0)
(-0.0360701 -0.0125112 0)
(-0.0321306 -0.015758 0)
(-0.0273003 -0.0180231 0)
(-0.0218304 -0.0189663 0)
(-0.0160613 -0.0182548 0)
(-0.010414 -0.0156198 0)
(-0.00535665 -0.0109299 0)
(-0.00133368 -0.00426868 0)
(-0.00156402 0.00573136 0)
(-0.00624243 0.0144012 0)
(-0.0120525 0.0203181 0)
(-0.0184749 0.0235443 0)
(-0.0249897 0.0243529 0)
(-0.0311499 0.0231332 0)
(-0.0366053 0.02031 0)
(-0.0411017 0.0162873 0)
(-0.0444661 0.011419 0)
(-0.0465868 0.00600385 0)
(-0.0473972 0.00029779 0)
(-0.046864 -0.00546241 0)
(-0.0449855 -0.0110305 0)
(-0.0417979 -0.0161229 0)
(-0.0373908 -0.0203987 0)
(-0.0319286 -0.0234526 0)
(-0.025673 -0.02483 0)
(-0.0189986 -0.0240683 0)
(-0.0123897 -0.020767 0)
(-0.00640749 -0.0146791 0)
(-0.00160181 -0.00580912 0)
(-0.00184555 0.00750369 0)
(-0.00734397 0.0186496 0)
(-0.0141071 0.0260847 0)
(-0.0215035 0.0300027 0)
(-0.028924 0.0308369 0)
(-0.0358669 0.0291388 0)
(-0.0419587 0.0254781 0)
(-0.0469444 0.0203761 0)
(-0.0506613 0.0142737 0)
(-0.0530115 0.00753016 0)
(-0.0539366 0.00044243 0)
(-0.0534035 -0.00672038 0)
(-0.0514 -0.0136772 0)
(-0.0479432 -0.0200958 0)
(-0.0431003 -0.0255617 0)
(-0.0370175 -0.0295647 0)
(-0.0299547 -0.0315109 0)
(-0.0223136 -0.0307717 0)
(-0.0146445 -0.0267692 0)
(-0.0076162 -0.0190955 0)
(-0.00190971 -0.00764186 0)
(-0.00216561 0.00958766 0)
(-0.00859613 0.0235899 0)
(-0.0164177 0.0327164 0)
(-0.0248617 0.037344 0)
(-0.0332192 0.0381222 0)
(-0.0409373 0.0358139 0)
(-0.0476308 0.0311702 0)
(-0.0530592 0.0248513 0)
(-0.0570862 0.0173937 0)
(-0.0596398 0.00921514 0)
(-0.0606786 0.000645503 0)
(-0.0601724 -0.0080257 0)
(-0.0580953 -0.0164945 0)
(-0.0544365 -0.0243882 0)
(-0.0492252 -0.0312193 0)
(-0.0425709 -0.0363603 0)
(-0.0347119 -0.0390503 0)
(-0.026062 -0.0384483 0)
(-0.0172349 -0.0337393 0)
(-0.00902157 -0.0242893 0)
(-0.00226797 -0.00982338 0)
(-0.00252459 0.0120352 0)
(-0.00999874 0.0293131 0)
(-0.0189663 0.0402913 0)
(-0.0284921 0.045606 0)
(-0.0377601 0.0462009 0)
(-0.046177 0.0431144 0)
(-0.0533669 0.0373225 0)
(-0.0591273 0.0296478 0)
(-0.0633702 0.0207289 0)
(-0.0660661 0.0110363 0)
(-0.067202 0.000918581 0)
(-0.066755 -0.00933234 0)
(-0.0646834 -0.0194084 0)
(-0.0609379 -0.0289113 0)
(-0.055492 -0.0372872 0)
(-0.0483923 -0.0437829 0)
(-0.0398261 -0.0474405 0)
(-0.0301922 -0.0471509 0)
(-0.0201527 -0.0417818 0)
(-0.0106316 -0.03038 0)
(-0.00267945 -0.0124208 0)
(-0.00291136 0.0148992 0)
(-0.0115074 0.0358957 0)
(-0.0216462 0.0488462 0)
(-0.0321952 0.0547594 0)
(-0.0422331 0.0549806 0)
(-0.0511505 0.0509051 0)
(-0.058615 0.0437846 0)
(-0.0644957 0.0346271 0)
(-0.0687804 0.024175 0)
(-0.0715037 0.0129395 0)
(-0.0726943 0.00126715 0)
(-0.0723432 -0.0105734 0)
(-0.0703922 -0.0222965 0)
(-0.066744 -0.0335028 0)
(-0.0612962 -0.0435878 0)
(-0.0540012 -0.0516722 0)
(-0.0449528 -0.0565739 0)
(-0.0344901 -0.056852 0)
(-0.0232898 -0.0509533 0)
(-0.0124059 -0.0374727 0)
(-0.0031348 -0.0155045 0)
(-0.00329731 0.0182235 0)
(-0.0130111 0.0433699 0)
(-0.0242194 0.0583299 0)
(-0.0355667 0.0646515 0)
(-0.0460469 0.0642265 0)
(-0.0550809 0.0589077 0)
(-0.0624302 0.0502768 0)
(-0.0680796 0.0395444 0)
(-0.0721259 0.0275502 0)
(-0.0746899 0.014825 0)
(-0.0758564 0.00168473 0)
(-0.0756386 -0.0116579 0)
(-0.0739639 -0.0249748 0)
(-0.0706812 -0.0378999 0)
(-0.0655944 -0.0498077 0)
(-0.058527 -0.0597071 0)
(-0.0494263 -0.0661754 0)
(-0.0385038 -0.067375 0)
(-0.0263868 -0.0612042 0)
(-0.0142287 -0.0456211 0)
(-0.0036055 -0.0191364 0)
(-0.00362666 0.0220289 0)
(-0.0142977 0.0516819 0)
(-0.0262536 0.0685391 0)
(-0.0379097 0.0749317 0)
(-0.0482293 0.0734906 0)
(-0.0567403 0.0666421 0)
(-0.063368 0.0563458 0)
(-0.0682644 0.0440182 0)
(-0.0716672 0.030575 0)
(-0.0738024 0.0165344 0)
(-0.074822 0.00214592 0)
(-0.0747694 -0.0124717 0)
(-0.0735641 -0.0271891 0)
(-0.0710036 -0.0417185 0)
(-0.0667894 -0.0554592 0)
(-0.0605873 -0.0673453 0)
(-0.0521395 -0.0757221 0)
(-0.0414394 -0.0783039 0)
(-0.0289578 -0.0722966 0)
(-0.0158684 -0.0547732 0)
(-0.0040329 -0.0233526 0)
(-0.00379995 0.0262924 0)
(-0.0149959 0.0606314 0)
(-0.0270244 0.0790298 0)
(-0.0381085 0.0849589 0)
(-0.0472914 0.0820333 0)
(-0.0543233 0.0733697 0)
(-0.0593781 0.06133 0)
(-0.0628231 0.0475117 0)
(-0.0650575 0.0328629 0)
(-0.0664174 0.0178447 0)
(-0.0671235 0.00259991 0)
(-0.0672545 -0.0128851 0)
(-0.0667332 -0.0286212 0)
(-0.0653215 -0.0444495 0)
(-0.06263 -0.059857 0)
(-0.0581588 -0.0737714 0)
(-0.0513974 -0.0843576 0)
(-0.0420174 -0.0888722 0)
(-0.0301766 -0.0836927 0)
(-0.0169105 -0.0646932 0)
(-0.00430995 -0.0281368 0)
(-0.0036425 0.0309156 0)
(-0.0144682 0.0697847 0)
(-0.0253468 0.0889993 0)
(-0.0344343 0.0936915 0)
(-0.041046 0.0887471 0)
(-0.0453046 0.078057 0)
(-0.0477134 0.0643542 0)
(-0.0488771 0.0493442 0)
(-0.0493457 0.0339358 0)
(-0.0495433 0.0184778 0)
(-0.0497418 0.0029678 0)
(-0.0500524 -0.0127692 0)
(-0.0504173 -0.0289157 0)
(-0.0505962 -0.0454888 0)
(-0.0501527 -0.0621359 0)
(-0.0484567 -0.0778816 0)
(-0.0447405 -0.0908266 0)
(-0.0382688 -0.0978444 0)
(-0.0286926 -0.0944116 0)
(-0.0166401 -0.0748487 0)
(-0.00424762 -0.0333805 0)
(-0.00283685 0.0356705 0)
(-0.0115889 0.0783403 0)
(-0.0192609 0.0971283 0)
(-0.0242254 0.0995749 0)
(-0.0263517 0.0921158 0)
(-0.0262816 0.0793957 0)
(-0.024874 0.0643845 0)
(-0.022928 0.0487568 0)
(-0.0210757 0.0332809 0)
(-0.0197651 0.0181357 0)
(-0.0192752 0.00314878 0)
(-0.0197335 -0.0120229 0)
(-0.0211186 -0.0277399 0)
(-0.0232405 -0.0442208 0)
(-0.0257009 -0.0613403 0)
(-0.0278438 -0.0783476 0)
(-0.028732 -0.0934723 0)
(-0.0272276 -0.103419 0)
(-0.0223069 -0.102855 0)
(-0.0138092 -0.0842441 0)
(-0.0035056 -0.0388165 0)
(-0.000754113 0.0400828 0)
(-0.00424374 0.084891 0)
(-0.00541088 0.101369 0)
(-0.00334254 0.100459 0)
(0.00124856 0.090264 0)
(0.00718611 0.0759346 0)
(0.0133805 0.060389 0)
(0.0190022 0.0450623 0)
(0.0234856 0.0304676 0)
(0.0264722 0.0165728 0)
(0.0277482 0.00304135 0)
(0.027201 -0.0106075 0)
(0.0248035 -0.0248776 0)
(0.0206336 -0.0401716 0)
(0.0149306 -0.0566217 0)
(0.00819068 -0.0738201 0)
(0.00128591 -0.090377 0)
(-0.00445554 -0.103221 0)
(-0.00736805 -0.106617 0)
(-0.0061313 -0.0911543 0)
(-0.00142325 -0.0438857 0)
(0.00403357 0.0431953 0)
(0.0118806 0.0870381 0)
(0.0222192 0.098734 0)
(0.0347418 0.0936726 0)
(0.0479999 0.0812287 0)
(0.0606843 0.0664185 0)
(0.071887 0.0516558 0)
(0.0810715 0.037901 0)
(0.0879619 0.0253303 0)
(0.092431 0.0137069 0)
(0.0944135 0.00258422 0)
(0.0938516 -0.00857976 0)
(0.0906708 -0.0203473 0)
(0.0847895 -0.0332275 0)
(0.0761675 -0.0475665 0)
(0.064907 -0.0633441 0)
(0.0514215 -0.0797773 0)
(0.0366716 -0.0945501 0)
(0.0223887 -0.10239 0)
(0.0109029 -0.0927415 0)
(0.00347036 -0.0474748 0)
(0.0156612 0.04272 0)
(0.0463772 0.080366 0)
(0.0747518 0.0850809 0)
(0.100258 0.0764562 0)
(0.122347 0.0636263 0)
(0.140803 0.0504205 0)
(0.155657 0.0382875 0)
(0.16708 0.0275888 0)
(0.175295 0.0181939 0)
(0.180507 0.00975145 0)
(0.182848 0.00181351 0)
(0.182342 -0.00610716 0)
(0.178887 -0.0145076 0)
(0.172248 -0.0238693 0)
(0.162065 -0.0346129 0)
(0.147884 -0.0469967 0)
(0.129243 -0.0608744 0)
(0.105849 -0.0751005 0)
(0.0779684 -0.0860813 0)
(0.0469699 -0.0841913 0)
(0.0153663 -0.0470745 0)
(0.0494793 0.0347218 0)
(0.122323 0.0589528 0)
(0.172928 0.0568212 0)
(0.208524 0.0479259 0)
(0.234725 0.0382361 0)
(0.254316 0.0294115 0)
(0.268929 0.0218491 0)
(0.279586 0.0154798 0)
(0.286977 0.0100665 0)
(0.291563 0.00531365 0)
(0.293614 0.000909705 0)
(0.293219 -0.0034593 0)
(0.290288 -0.00810606 0)
(0.284528 -0.0133405 0)
(0.275402 -0.0194631 0)
(0.262053 -0.0267425 0)
(0.243138 -0.0353535 0)
(0.21652 -0.0451741 0)
(0.178857 -0.0550944 0)
(0.124602 -0.0597417 0)
(0.0495834 -0.0383273 0)
(0.182866 0.00465761 0)
(0.296753 0.0082461 0)
(0.35066 0.0117282 0)
(0.377965 0.0114326 0)
(0.394604 0.00958847 0)
(0.405631 0.00749919 0)
(0.413264 0.00558847 0)
(0.418558 0.0039468 0)
(0.422102 0.00254496 0)
(0.424243 0.00131505 0)
(0.425172 0.000178237 0)
(0.424961 -0.000945351 0)
(0.423571 -0.00213227 0)
(0.420838 -0.0034506 0)
(0.41643 -0.00494789 0)
(0.409735 -0.00662104 0)
(0.399571 -0.00834147 0)
(0.383371 -0.00969043 0)
(0.355281 -0.00962782 0)
(0.298338 -0.00700929 0)
(0.181141 -0.00729587 0)
)
;

boundaryField
{
    movingWall
    {
        type            fixedValue;
        value           uniform (0.5 0 0);
    }
    fixedWalls
    {
        type            noSlip;
    }
    frontAndBack
    {
        type            empty;
    }
}


// ************************************************************************* //
