/*--------------------------------*- C++ -*----------------------------------*\
| =========                 |                                                 |
| \\      /  F ield         | OpenFOAM: The Open Source CFD Toolbox           |
|  \\    /   O peration     | Version:  4.1                                   |
|   \\  /    A nd           | Web:      www.OpenFOAM.org                      |
|    \\/     M anipulation  |                                                 |
\*---------------------------------------------------------------------------*/
FoamFile
{
    version     2.0;
    format      ascii;
    class       volScalarField;
    location    "27";
    object      p;
}
// * * * * * * * * * * * * * * * * * * * * * * * * * * * * * * * * * * * * * //

dimensions      [1 -1 -2 0 0 0 0];

internalField   nonuniform List<scalar> 
3264
(
0.714803
0.714782
0.714767
0.714764
0.714791
0.714863
0.714993
0.715188
0.715445
0.715753
0.716096
0.716453
0.7168
0.717118
0.717393
0.717617
0.717788
0.717911
0.717992
0.718039
0.71806
0.718063
0.718053
0.718034
0.71801
0.717984
0.717956
0.717928
0.7179
0.717873
0.717847
0.717821
0.717796
0.717771
0.717748
0.717724
0.717701
0.717679
0.717657
0.717635
0.717613
0.717592
0.71757
0.717549
0.717528
0.717506
0.717485
0.717464
0.717443
0.717422
0.717401
0.717381
0.71736
0.717339
0.717318
0.717297
0.717276
0.717255
0.717234
0.717214
0.717193
0.717172
0.717151
0.71713
0.717109
0.717089
0.717068
0.717047
0.717026
0.717005
0.716984
0.716964
0.716943
0.716922
0.716901
0.71688
0.716859
0.716838
0.716818
0.716797
0.716776
0.716755
0.716734
0.716713
0.716693
0.716672
0.716651
0.71663
0.716609
0.716588
0.716568
0.716547
0.716526
0.716505
0.716484
0.716463
0.716443
0.716422
0.716401
0.71638
0.716359
0.716338
0.716318
0.716297
0.716276
0.716255
0.716234
0.716213
0.716193
0.716172
0.716151
0.71613
0.716109
0.716088
0.716068
0.716047
0.716026
0.716005
0.715984
0.715963
0.715943
0.715922
0.715901
0.71588
0.715859
0.715838
0.715817
0.715797
0.715776
0.715755
0.715734
0.715713
0.715692
0.715672
0.715651
0.71563
0.715609
0.715588
0.715567
0.715547
0.715526
0.715505
0.715484
0.715463
0.715442
0.715422
0.715401
0.71538
0.715359
0.715338
0.715317
0.715297
0.715276
0.715255
0.715234
0.715213
0.715192
0.715172
0.715151
0.71513
0.715109
0.715088
0.715067
0.715047
0.715026
0.715005
0.714984
0.714963
0.714942
0.714922
0.714901
0.71488
0.714859
0.714838
0.714817
0.714796
0.714776
0.714755
0.714734
0.714713
0.714692
0.714671
0.714651
0.71463
0.714609
0.714588
0.714567
0.714546
0.714526
0.714505
0.714484
0.714463
0.714442
0.714421
0.714401
0.71438
0.714359
0.714338
0.714317
0.714296
0.714814
0.714786
0.714758
0.714738
0.714749
0.714807
0.714926
0.715113
0.715365
0.715673
0.716019
0.716384
0.716742
0.717074
0.717362
0.717598
0.717777
0.717906
0.71799
0.718038
0.71806
0.718062
0.718052
0.718033
0.718009
0.717983
0.717955
0.717927
0.717899
0.717872
0.717846
0.71782
0.717795
0.717771
0.717747
0.717724
0.717701
0.717679
0.717657
0.717635
0.717613
0.717591
0.71757
0.717549
0.717528
0.717506
0.717485
0.717464
0.717443
0.717422
0.717401
0.717381
0.71736
0.717339
0.717318
0.717297
0.717276
0.717255
0.717234
0.717214
0.717193
0.717172
0.717151
0.71713
0.717109
0.717089
0.717068
0.717047
0.717026
0.717005
0.716984
0.716964
0.716943
0.716922
0.716901
0.71688
0.716859
0.716838
0.716818
0.716797
0.716776
0.716755
0.716734
0.716713
0.716693
0.716672
0.716651
0.71663
0.716609
0.716588
0.716568
0.716547
0.716526
0.716505
0.716484
0.716463
0.716443
0.716422
0.716401
0.71638
0.716359
0.716338
0.716318
0.716297
0.716276
0.716255
0.716234
0.716213
0.716193
0.716172
0.716151
0.71613
0.716109
0.716088
0.716068
0.716047
0.716026
0.716005
0.715984
0.715963
0.715943
0.715922
0.715901
0.71588
0.715859
0.715838
0.715817
0.715797
0.715776
0.715755
0.715734
0.715713
0.715692
0.715672
0.715651
0.71563
0.715609
0.715588
0.715567
0.715547
0.715526
0.715505
0.715484
0.715463
0.715442
0.715422
0.715401
0.71538
0.715359
0.715338
0.715317
0.715297
0.715276
0.715255
0.715234
0.715213
0.715192
0.715172
0.715151
0.71513
0.715109
0.715088
0.715067
0.715047
0.715026
0.715005
0.714984
0.714963
0.714942
0.714922
0.714901
0.71488
0.714859
0.714838
0.714817
0.714796
0.714776
0.714755
0.714734
0.714713
0.714692
0.714671
0.714651
0.71463
0.714609
0.714588
0.714567
0.714546
0.714526
0.714505
0.714484
0.714463
0.714442
0.714421
0.714401
0.71438
0.714359
0.714338
0.714317
0.714296
0.714785
0.714751
0.714707
0.714669
0.71466
0.714699
0.714803
0.714976
0.715218
0.715522
0.715871
0.716247
0.716626
0.716983
0.717298
0.717557
0.717754
0.717894
0.717984
0.718034
0.718056
0.718059
0.718048
0.718029
0.718005
0.717979
0.717951
0.717924
0.717897
0.71787
0.717844
0.717819
0.717794
0.71777
0.717746
0.717723
0.717701
0.717678
0.717656
0.717634
0.717613
0.717591
0.71757
0.717549
0.717527
0.717506
0.717485
0.717464
0.717443
0.717422
0.717401
0.717381
0.71736
0.717339
0.717318
0.717297
0.717276
0.717255
0.717234
0.717214
0.717193
0.717172
0.717151
0.71713
0.717109
0.717089
0.717068
0.717047
0.717026
0.717005
0.716984
0.716964
0.716943
0.716922
0.716901
0.71688
0.716859
0.716838
0.716818
0.716797
0.716776
0.716755
0.716734
0.716713
0.716693
0.716672
0.716651
0.71663
0.716609
0.716588
0.716568
0.716547
0.716526
0.716505
0.716484
0.716463
0.716443
0.716422
0.716401
0.71638
0.716359
0.716338
0.716318
0.716297
0.716276
0.716255
0.716234
0.716213
0.716193
0.716172
0.716151
0.71613
0.716109
0.716088
0.716068
0.716047
0.716026
0.716005
0.715984
0.715963
0.715943
0.715922
0.715901
0.71588
0.715859
0.715838
0.715817
0.715797
0.715776
0.715755
0.715734
0.715713
0.715692
0.715672
0.715651
0.71563
0.715609
0.715588
0.715567
0.715547
0.715526
0.715505
0.715484
0.715463
0.715442
0.715422
0.715401
0.71538
0.715359
0.715338
0.715317
0.715297
0.715276
0.715255
0.715234
0.715213
0.715192
0.715172
0.715151
0.71513
0.715109
0.715088
0.715067
0.715047
0.715026
0.715005
0.714984
0.714963
0.714942
0.714922
0.714901
0.71488
0.714859
0.714838
0.714817
0.714796
0.714776
0.714755
0.714734
0.714713
0.714692
0.714671
0.714651
0.71463
0.714609
0.714588
0.714567
0.714546
0.714526
0.714505
0.714484
0.714463
0.714442
0.714421
0.714401
0.71438
0.714359
0.714338
0.714317
0.714296
0.714728
0.714684
0.714619
0.714557
0.714525
0.714544
0.714628
0.714784
0.715012
0.715308
0.715658
0.716046
0.716447
0.716837
0.71719
0.717485
0.717713
0.717872
0.717973
0.718028
0.718052
0.718054
0.718042
0.718022
0.717999
0.717972
0.717946
0.717919
0.717892
0.717866
0.717841
0.717816
0.717792
0.717768
0.717745
0.717722
0.7177
0.717678
0.717656
0.717634
0.717612
0.717591
0.71757
0.717548
0.717527
0.717506
0.717485
0.717464
0.717443
0.717422
0.717401
0.71738
0.71736
0.717339
0.717318
0.717297
0.717276
0.717255
0.717234
0.717214
0.717193
0.717172
0.717151
0.71713
0.717109
0.717089
0.717068
0.717047
0.717026
0.717005
0.716984
0.716964
0.716943
0.716922
0.716901
0.71688
0.716859
0.716838
0.716818
0.716797
0.716776
0.716755
0.716734
0.716713
0.716693
0.716672
0.716651
0.71663
0.716609
0.716588
0.716568
0.716547
0.716526
0.716505
0.716484
0.716463
0.716443
0.716422
0.716401
0.71638
0.716359
0.716338
0.716318
0.716297
0.716276
0.716255
0.716234
0.716213
0.716193
0.716172
0.716151
0.71613
0.716109
0.716088
0.716068
0.716047
0.716026
0.716005
0.715984
0.715963
0.715943
0.715922
0.715901
0.71588
0.715859
0.715838
0.715817
0.715797
0.715776
0.715755
0.715734
0.715713
0.715692
0.715672
0.715651
0.71563
0.715609
0.715588
0.715567
0.715547
0.715526
0.715505
0.715484
0.715463
0.715442
0.715422
0.715401
0.71538
0.715359
0.715338
0.715317
0.715297
0.715276
0.715255
0.715234
0.715213
0.715192
0.715172
0.715151
0.71513
0.715109
0.715088
0.715067
0.715047
0.715026
0.715005
0.714984
0.714963
0.714942
0.714922
0.714901
0.71488
0.714859
0.714838
0.714817
0.714796
0.714776
0.714755
0.714734
0.714713
0.714692
0.714671
0.714651
0.71463
0.714609
0.714588
0.714567
0.714546
0.714526
0.714505
0.714484
0.714463
0.714442
0.714421
0.714401
0.71438
0.714359
0.714338
0.714317
0.714296
0.714666
0.714615
0.714531
0.714449
0.714395
0.714394
0.714458
0.714597
0.71481
0.715095
0.715441
0.715834
0.716253
0.716673
0.717064
0.7174
0.717663
0.717848
0.717963
0.718025
0.718049
0.71805
0.718037
0.718016
0.717991
0.717965
0.717939
0.717913
0.717887
0.717861
0.717837
0.717813
0.717789
0.717766
0.717743
0.717721
0.717699
0.717677
0.717655
0.717633
0.717612
0.717591
0.717569
0.717548
0.717527
0.717506
0.717485
0.717464
0.717443
0.717422
0.717401
0.71738
0.71736
0.717339
0.717318
0.717297
0.717276
0.717255
0.717234
0.717214
0.717193
0.717172
0.717151
0.71713
0.717109
0.717089
0.717068
0.717047
0.717026
0.717005
0.716984
0.716964
0.716943
0.716922
0.716901
0.71688
0.716859
0.716838
0.716818
0.716797
0.716776
0.716755
0.716734
0.716713
0.716693
0.716672
0.716651
0.71663
0.716609
0.716588
0.716568
0.716547
0.716526
0.716505
0.716484
0.716463
0.716443
0.716422
0.716401
0.71638
0.716359
0.716338
0.716318
0.716297
0.716276
0.716255
0.716234
0.716213
0.716193
0.716172
0.716151
0.71613
0.716109
0.716088
0.716068
0.716047
0.716026
0.716005
0.715984
0.715963
0.715943
0.715922
0.715901
0.71588
0.715859
0.715838
0.715817
0.715797
0.715776
0.715755
0.715734
0.715713
0.715692
0.715672
0.715651
0.71563
0.715609
0.715588
0.715567
0.715547
0.715526
0.715505
0.715484
0.715463
0.715442
0.715422
0.715401
0.71538
0.715359
0.715338
0.715317
0.715297
0.715276
0.715255
0.715234
0.715213
0.715192
0.715172
0.715151
0.71513
0.715109
0.715088
0.715067
0.715047
0.715026
0.715005
0.714984
0.714963
0.714942
0.714922
0.714901
0.71488
0.714859
0.714838
0.714817
0.714796
0.714776
0.714755
0.714734
0.714713
0.714692
0.714671
0.714651
0.71463
0.714609
0.714588
0.714567
0.714546
0.714526
0.714505
0.714484
0.714463
0.714442
0.714421
0.714401
0.71438
0.714359
0.714338
0.714317
0.714296
0.714597
0.714557
0.714456
0.714358
0.714288
0.714271
0.714322
0.714447
0.714648
0.714922
0.715262
0.715655
0.716084
0.716523
0.716945
0.717318
0.717616
0.717827
0.717957
0.718024
0.718048
0.718046
0.718031
0.718008
0.717983
0.717957
0.717931
0.717905
0.71788
0.717856
0.717832
0.717809
0.717786
0.717763
0.717741
0.717719
0.717697
0.717675
0.717654
0.717633
0.717611
0.71759
0.717569
0.717548
0.717527
0.717506
0.717485
0.717464
0.717443
0.717422
0.717401
0.71738
0.71736
0.717339
0.717318
0.717297
0.717276
0.717255
0.717234
0.717214
0.717193
0.717172
0.717151
0.71713
0.717109
0.717089
0.717068
0.717047
0.717026
0.717005
0.716984
0.716964
0.716943
0.716922
0.716901
0.71688
0.716859
0.716838
0.716818
0.716797
0.716776
0.716755
0.716734
0.716713
0.716693
0.716672
0.716651
0.71663
0.716609
0.716588
0.716568
0.716547
0.716526
0.716505
0.716484
0.716463
0.716443
0.716422
0.716401
0.71638
0.716359
0.716338
0.716318
0.716297
0.716276
0.716255
0.716234
0.716213
0.716193
0.716172
0.716151
0.71613
0.716109
0.716088
0.716068
0.716047
0.716026
0.716005
0.715984
0.715963
0.715943
0.715922
0.715901
0.71588
0.715859
0.715838
0.715817
0.715797
0.715776
0.715755
0.715734
0.715713
0.715692
0.715672
0.715651
0.71563
0.715609
0.715588
0.715567
0.715547
0.715526
0.715505
0.715484
0.715463
0.715442
0.715422
0.715401
0.71538
0.715359
0.715338
0.715317
0.715297
0.715276
0.715255
0.715234
0.715213
0.715192
0.715172
0.715151
0.71513
0.715109
0.715088
0.715067
0.715047
0.715026
0.715005
0.714984
0.714963
0.714942
0.714922
0.714901
0.71488
0.714859
0.714838
0.714817
0.714796
0.714776
0.714755
0.714734
0.714713
0.714692
0.714671
0.714651
0.71463
0.714609
0.714588
0.714567
0.714546
0.714526
0.714505
0.714484
0.714463
0.714442
0.714421
0.714401
0.71438
0.714359
0.714338
0.714317
0.714296
0.714621
0.714585
0.714459
0.714336
0.714243
0.71421
0.714247
0.71436
0.714552
0.714817
0.715149
0.715538
0.715968
0.716418
0.716859
0.717258
0.717583
0.717815
0.717957
0.718026
0.718048
0.718043
0.718024
0.717999
0.717973
0.717947
0.717922
0.717897
0.717873
0.71785
0.717827
0.717804
0.717782
0.71776
0.717738
0.717717
0.717695
0.717674
0.717653
0.717632
0.717611
0.71759
0.717569
0.717548
0.717527
0.717506
0.717485
0.717464
0.717443
0.717422
0.717401
0.71738
0.717359
0.717339
0.717318
0.717297
0.717276
0.717255
0.717234
0.717214
0.717193
0.717172
0.717151
0.71713
0.717109
0.717089
0.717068
0.717047
0.717026
0.717005
0.716984
0.716964
0.716943
0.716922
0.716901
0.71688
0.716859
0.716838
0.716818
0.716797
0.716776
0.716755
0.716734
0.716713
0.716693
0.716672
0.716651
0.71663
0.716609
0.716588
0.716568
0.716547
0.716526
0.716505
0.716484
0.716463
0.716443
0.716422
0.716401
0.71638
0.716359
0.716338
0.716318
0.716297
0.716276
0.716255
0.716234
0.716213
0.716193
0.716172
0.716151
0.71613
0.716109
0.716088
0.716068
0.716047
0.716026
0.716005
0.715984
0.715963
0.715943
0.715922
0.715901
0.71588
0.715859
0.715838
0.715817
0.715797
0.715776
0.715755
0.715734
0.715713
0.715692
0.715672
0.715651
0.71563
0.715609
0.715588
0.715567
0.715547
0.715526
0.715505
0.715484
0.715463
0.715442
0.715422
0.715401
0.71538
0.715359
0.715338
0.715317
0.715297
0.715276
0.715255
0.715234
0.715213
0.715192
0.715172
0.715151
0.71513
0.715109
0.715088
0.715067
0.715047
0.715026
0.715005
0.714984
0.714963
0.714942
0.714922
0.714901
0.71488
0.714859
0.714838
0.714817
0.714796
0.714776
0.714755
0.714734
0.714713
0.714692
0.714671
0.714651
0.71463
0.714609
0.714588
0.714567
0.714546
0.714526
0.714505
0.714484
0.714463
0.714442
0.714421
0.714401
0.71438
0.714359
0.714338
0.714317
0.714296
0.71453
0.714621
0.714488
0.714359
0.714252
0.714208
0.714238
0.714345
0.71453
0.714788
0.715113
0.715495
0.71592
0.716369
0.716815
0.717225
0.717564
0.71781
0.717958
0.718027
0.718044
0.718034
0.718012
0.717987
0.71796
0.717935
0.717911
0.717888
0.717865
0.717843
0.717821
0.7178
0.717778
0.717757
0.717736
0.717715
0.717694
0.717673
0.717652
0.717631
0.71761
0.717589
0.717568
0.717547
0.717526
0.717505
0.717485
0.717464
0.717443
0.717422
0.717401
0.71738
0.717359
0.717339
0.717318
0.717297
0.717276
0.717255
0.717234
0.717214
0.717193
0.717172
0.717151
0.71713
0.717109
0.717089
0.717068
0.717047
0.717026
0.717005
0.716984
0.716964
0.716943
0.716922
0.716901
0.71688
0.716859
0.716838
0.716818
0.716797
0.716776
0.716755
0.716734
0.716713
0.716693
0.716672
0.716651
0.71663
0.716609
0.716588
0.716568
0.716547
0.716526
0.716505
0.716484
0.716463
0.716443
0.716422
0.716401
0.71638
0.716359
0.716338
0.716318
0.716297
0.716276
0.716255
0.716234
0.716213
0.716193
0.716172
0.716151
0.71613
0.716109
0.716088
0.716068
0.716047
0.716026
0.716005
0.715984
0.715963
0.715943
0.715922
0.715901
0.71588
0.715859
0.715838
0.715817
0.715797
0.715776
0.715755
0.715734
0.715713
0.715692
0.715672
0.715651
0.71563
0.715609
0.715588
0.715567
0.715547
0.715526
0.715505
0.715484
0.715463
0.715442
0.715422
0.715401
0.71538
0.715359
0.715338
0.715317
0.715297
0.715276
0.715255
0.715234
0.715213
0.715192
0.715172
0.715151
0.71513
0.715109
0.715088
0.715067
0.715047
0.715026
0.715005
0.714984
0.714963
0.714942
0.714922
0.714901
0.71488
0.714859
0.714838
0.714817
0.714796
0.714776
0.714755
0.714734
0.714713
0.714692
0.714671
0.714651
0.71463
0.714609
0.714588
0.714567
0.714546
0.714526
0.714505
0.714484
0.714463
0.714442
0.714421
0.714401
0.71438
0.714359
0.714338
0.714317
0.714296
0.71544
0.715379
0.71531
0.715235
0.715151
0.715059
0.714955
0.714813
0.715454
0.715403
0.715333
0.715255
0.715171
0.715078
0.714968
0.714845
0.715468
0.715426
0.715363
0.715291
0.715214
0.715132
0.715049
0.714963
0.715491
0.715456
0.715401
0.715338
0.71527
0.715201
0.715133
0.715068
0.715517
0.715486
0.715439
0.715383
0.715327
0.715271
0.715221
0.715179
0.715544
0.715515
0.715472
0.715423
0.715375
0.715331
0.715294
0.715266
0.71557
0.715538
0.715495
0.71545
0.715407
0.715369
0.71534
0.715323
0.715586
0.715544
0.715501
0.715458
0.715419
0.715384
0.715357
0.715342
0.714742
0.714685
0.714547
0.714408
0.714307
0.714268
0.714302
0.714412
0.714595
0.714849
0.715165
0.715534
0.715945
0.716379
0.716812
0.717213
0.717548
0.717793
0.717941
0.71801
0.718026
0.718015
0.717993
0.717968
0.717944
0.71792
0.717898
0.717877
0.717856
0.717835
0.717815
0.717795
0.717774
0.717754
0.717733
0.717712
0.717692
0.717671
0.717651
0.71763
0.717609
0.717588
0.717568
0.717547
0.717526
0.717505
0.717484
0.717464
0.717443
0.717422
0.717401
0.71738
0.717359
0.717339
0.717318
0.717297
0.717276
0.717255
0.717234
0.717214
0.717193
0.717172
0.717151
0.71713
0.717109
0.717089
0.717068
0.717047
0.717026
0.717005
0.716984
0.716964
0.716943
0.716922
0.716901
0.71688
0.716859
0.716839
0.716818
0.716797
0.716776
0.716755
0.716734
0.716713
0.716693
0.716672
0.716651
0.71663
0.716609
0.716588
0.716568
0.716547
0.716526
0.716505
0.716484
0.716463
0.716443
0.716422
0.716401
0.71638
0.716359
0.716338
0.716318
0.716297
0.716276
0.716255
0.716234
0.716213
0.716193
0.716172
0.716151
0.71613
0.716109
0.716088
0.716068
0.716047
0.716026
0.716005
0.715984
0.715963
0.715943
0.715922
0.715901
0.71588
0.715859
0.715838
0.715817
0.715797
0.715776
0.715755
0.715734
0.715713
0.715692
0.715672
0.715651
0.71563
0.715609
0.715588
0.715567
0.715547
0.715526
0.715505
0.715484
0.715463
0.715442
0.715422
0.715401
0.71538
0.715359
0.715338
0.715317
0.715297
0.715276
0.715255
0.715234
0.715213
0.715192
0.715172
0.715151
0.71513
0.715109
0.715088
0.715067
0.715047
0.715026
0.715005
0.714984
0.714963
0.714942
0.714922
0.714901
0.71488
0.714859
0.714838
0.714817
0.714796
0.714776
0.714755
0.714734
0.714713
0.714692
0.714671
0.714651
0.71463
0.714609
0.714588
0.714567
0.714546
0.714526
0.714505
0.714484
0.714463
0.714442
0.714421
0.714401
0.71438
0.714359
0.714338
0.714317
0.714296
0.71474
0.714694
0.714608
0.714516
0.714451
0.714436
0.714483
0.714596
0.714775
0.715016
0.715313
0.715658
0.716038
0.716439
0.716836
0.717204
0.717512
0.717742
0.717887
0.717959
0.717981
0.717976
0.71796
0.717941
0.717922
0.717902
0.717884
0.717865
0.717847
0.717828
0.717809
0.717789
0.71777
0.71775
0.71773
0.71771
0.71769
0.71767
0.717649
0.717629
0.717608
0.717588
0.717567
0.717546
0.717526
0.717505
0.717484
0.717463
0.717443
0.717422
0.717401
0.71738
0.717359
0.717339
0.717318
0.717297
0.717276
0.717255
0.717234
0.717214
0.717193
0.717172
0.717151
0.71713
0.717109
0.717089
0.717068
0.717047
0.717026
0.717005
0.716984
0.716964
0.716943
0.716922
0.716901
0.71688
0.716859
0.716839
0.716818
0.716797
0.716776
0.716755
0.716734
0.716713
0.716693
0.716672
0.716651
0.71663
0.716609
0.716588
0.716568
0.716547
0.716526
0.716505
0.716484
0.716463
0.716443
0.716422
0.716401
0.71638
0.716359
0.716338
0.716318
0.716297
0.716276
0.716255
0.716234
0.716213
0.716193
0.716172
0.716151
0.71613
0.716109
0.716088
0.716068
0.716047
0.716026
0.716005
0.715984
0.715963
0.715943
0.715922
0.715901
0.71588
0.715859
0.715838
0.715817
0.715797
0.715776
0.715755
0.715734
0.715713
0.715692
0.715672
0.715651
0.71563
0.715609
0.715588
0.715567
0.715547
0.715526
0.715505
0.715484
0.715463
0.715442
0.715422
0.715401
0.71538
0.715359
0.715338
0.715317
0.715297
0.715276
0.715255
0.715234
0.715213
0.715192
0.715172
0.715151
0.71513
0.715109
0.715088
0.715067
0.715047
0.715026
0.715005
0.714984
0.714963
0.714942
0.714922
0.714901
0.71488
0.714859
0.714838
0.714817
0.714796
0.714776
0.714755
0.714734
0.714713
0.714692
0.714671
0.714651
0.71463
0.714609
0.714588
0.714567
0.714546
0.714526
0.714505
0.714484
0.714463
0.714442
0.714421
0.714401
0.71438
0.714359
0.714338
0.714317
0.714296
0.71489
0.71483
0.71477
0.714717
0.714687
0.714697
0.714756
0.71487
0.715039
0.715261
0.715529
0.715837
0.716171
0.716519
0.716859
0.717172
0.717437
0.717642
0.717783
0.717866
0.717905
0.717918
0.717916
0.717908
0.717896
0.717883
0.717869
0.717853
0.717837
0.71782
0.717803
0.717785
0.717766
0.717747
0.717728
0.717708
0.717688
0.717668
0.717648
0.717628
0.717608
0.717587
0.717567
0.717546
0.717525
0.717505
0.717484
0.717463
0.717442
0.717422
0.717401
0.71738
0.717359
0.717338
0.717318
0.717297
0.717276
0.717255
0.717234
0.717214
0.717193
0.717172
0.717151
0.71713
0.717109
0.717089
0.717068
0.717047
0.717026
0.717005
0.716984
0.716964
0.716943
0.716922
0.716901
0.71688
0.716859
0.716839
0.716818
0.716797
0.716776
0.716755
0.716734
0.716713
0.716693
0.716672
0.716651
0.71663
0.716609
0.716588
0.716568
0.716547
0.716526
0.716505
0.716484
0.716463
0.716443
0.716422
0.716401
0.71638
0.716359
0.716338
0.716318
0.716297
0.716276
0.716255
0.716234
0.716213
0.716193
0.716172
0.716151
0.71613
0.716109
0.716088
0.716068
0.716047
0.716026
0.716005
0.715984
0.715963
0.715943
0.715922
0.715901
0.71588
0.715859
0.715838
0.715817
0.715797
0.715776
0.715755
0.715734
0.715713
0.715692
0.715672
0.715651
0.71563
0.715609
0.715588
0.715567
0.715547
0.715526
0.715505
0.715484
0.715463
0.715442
0.715422
0.715401
0.71538
0.715359
0.715338
0.715317
0.715297
0.715276
0.715255
0.715234
0.715213
0.715192
0.715172
0.715151
0.71513
0.715109
0.715088
0.715067
0.715047
0.715026
0.715005
0.714984
0.714963
0.714942
0.714922
0.714901
0.71488
0.714859
0.714838
0.714817
0.714796
0.714776
0.714755
0.714734
0.714713
0.714692
0.714671
0.714651
0.71463
0.714609
0.714588
0.714567
0.714546
0.714526
0.714505
0.714484
0.714463
0.714442
0.714421
0.714401
0.71438
0.714359
0.714338
0.714317
0.714296
0.715014
0.714974
0.714944
0.714928
0.714935
0.714974
0.715051
0.715169
0.715328
0.715527
0.715759
0.716018
0.716293
0.716573
0.716845
0.717098
0.717321
0.717506
0.717649
0.717748
0.717811
0.717846
0.717864
0.71787
0.717869
0.717863
0.717853
0.717842
0.717828
0.717813
0.717797
0.71778
0.717763
0.717744
0.717726
0.717706
0.717687
0.717667
0.717647
0.717627
0.717607
0.717587
0.717566
0.717546
0.717525
0.717504
0.717484
0.717463
0.717442
0.717422
0.717401
0.71738
0.717359
0.717338
0.717318
0.717297
0.717276
0.717255
0.717234
0.717214
0.717193
0.717172
0.717151
0.71713
0.717109
0.717089
0.717068
0.717047
0.717026
0.717005
0.716984
0.716964
0.716943
0.716922
0.716901
0.71688
0.716859
0.716839
0.716818
0.716797
0.716776
0.716755
0.716734
0.716713
0.716693
0.716672
0.716651
0.71663
0.716609
0.716588
0.716568
0.716547
0.716526
0.716505
0.716484
0.716463
0.716443
0.716422
0.716401
0.71638
0.716359
0.716338
0.716318
0.716297
0.716276
0.716255
0.716234
0.716213
0.716193
0.716172
0.716151
0.71613
0.716109
0.716088
0.716068
0.716047
0.716026
0.716005
0.715984
0.715963
0.715943
0.715922
0.715901
0.71588
0.715859
0.715838
0.715817
0.715797
0.715776
0.715755
0.715734
0.715713
0.715692
0.715672
0.715651
0.71563
0.715609
0.715588
0.715567
0.715547
0.715526
0.715505
0.715484
0.715463
0.715442
0.715422
0.715401
0.71538
0.715359
0.715338
0.715317
0.715297
0.715276
0.715255
0.715234
0.715213
0.715192
0.715172
0.715151
0.71513
0.715109
0.715088
0.715067
0.715047
0.715026
0.715005
0.714984
0.714963
0.714942
0.714922
0.714901
0.71488
0.714859
0.714838
0.714817
0.714796
0.714776
0.714755
0.714734
0.714713
0.714692
0.714671
0.714651
0.71463
0.714609
0.714588
0.714567
0.714546
0.714526
0.714505
0.714484
0.714463
0.714442
0.714421
0.714401
0.71438
0.714359
0.714338
0.714317
0.714296
0.715148
0.715131
0.715129
0.715143
0.715177
0.715235
0.715319
0.715432
0.715574
0.715741
0.71593
0.716135
0.716348
0.716564
0.716778
0.716988
0.717191
0.717375
0.71753
0.717649
0.717733
0.717788
0.717821
0.717839
0.717846
0.717846
0.717841
0.717832
0.717821
0.717808
0.717793
0.717777
0.71776
0.717742
0.717724
0.717705
0.717686
0.717666
0.717647
0.717627
0.717606
0.717586
0.717566
0.717545
0.717525
0.717504
0.717484
0.717463
0.717442
0.717422
0.717401
0.71738
0.717359
0.717338
0.717318
0.717297
0.717276
0.717255
0.717234
0.717214
0.717193
0.717172
0.717151
0.71713
0.717109
0.717089
0.717068
0.717047
0.717026
0.717005
0.716984
0.716964
0.716943
0.716922
0.716901
0.71688
0.716859
0.716839
0.716818
0.716797
0.716776
0.716755
0.716734
0.716713
0.716693
0.716672
0.716651
0.71663
0.716609
0.716588
0.716568
0.716547
0.716526
0.716505
0.716484
0.716463
0.716443
0.716422
0.716401
0.71638
0.716359
0.716338
0.716318
0.716297
0.716276
0.716255
0.716234
0.716213
0.716193
0.716172
0.716151
0.71613
0.716109
0.716088
0.716068
0.716047
0.716026
0.716005
0.715984
0.715963
0.715943
0.715922
0.715901
0.71588
0.715859
0.715838
0.715817
0.715797
0.715776
0.715755
0.715734
0.715713
0.715692
0.715672
0.715651
0.71563
0.715609
0.715588
0.715567
0.715547
0.715526
0.715505
0.715484
0.715463
0.715442
0.715422
0.715401
0.71538
0.715359
0.715338
0.715317
0.715297
0.715276
0.715255
0.715234
0.715213
0.715192
0.715172
0.715151
0.71513
0.715109
0.715088
0.715067
0.715047
0.715026
0.715005
0.714984
0.714963
0.714942
0.714922
0.714901
0.71488
0.714859
0.714838
0.714817
0.714796
0.714776
0.714755
0.714734
0.714713
0.714692
0.714671
0.714651
0.71463
0.714609
0.714588
0.714567
0.714546
0.714526
0.714505
0.714484
0.714463
0.714442
0.714421
0.714401
0.71438
0.714359
0.714338
0.714317
0.714296
0.715252
0.715252
0.715269
0.715302
0.715352
0.71542
0.715507
0.715611
0.71573
0.715862
0.716004
0.716155
0.716318
0.716497
0.716693
0.716899
0.717104
0.717294
0.717456
0.717585
0.717681
0.717747
0.71779
0.717816
0.717829
0.717833
0.717831
0.717825
0.717815
0.717803
0.717789
0.717774
0.717758
0.71774
0.717722
0.717704
0.717685
0.717666
0.717646
0.717626
0.717606
0.717586
0.717566
0.717545
0.717525
0.717504
0.717484
0.717463
0.717442
0.717422
0.717401
0.71738
0.717359
0.717338
0.717318
0.717297
0.717276
0.717255
0.717234
0.717214
0.717193
0.717172
0.717151
0.71713
0.717109
0.717089
0.717068
0.717047
0.717026
0.717005
0.716984
0.716964
0.716943
0.716922
0.716901
0.71688
0.716859
0.716839
0.716818
0.716797
0.716776
0.716755
0.716734
0.716713
0.716693
0.716672
0.716651
0.71663
0.716609
0.716588
0.716568
0.716547
0.716526
0.716505
0.716484
0.716463
0.716443
0.716422
0.716401
0.71638
0.716359
0.716338
0.716318
0.716297
0.716276
0.716255
0.716234
0.716213
0.716193
0.716172
0.716151
0.71613
0.716109
0.716088
0.716068
0.716047
0.716026
0.716005
0.715984
0.715963
0.715943
0.715922
0.715901
0.71588
0.715859
0.715838
0.715817
0.715797
0.715776
0.715755
0.715734
0.715713
0.715692
0.715672
0.715651
0.71563
0.715609
0.715588
0.715567
0.715547
0.715526
0.715505
0.715484
0.715463
0.715442
0.715422
0.715401
0.71538
0.715359
0.715338
0.715317
0.715297
0.715276
0.715255
0.715234
0.715213
0.715192
0.715172
0.715151
0.71513
0.715109
0.715088
0.715067
0.715047
0.715026
0.715005
0.714984
0.714963
0.714942
0.714922
0.714901
0.71488
0.714859
0.714838
0.714817
0.714796
0.714776
0.714755
0.714734
0.714713
0.714692
0.714671
0.714651
0.71463
0.714609
0.714588
0.714567
0.714546
0.714526
0.714505
0.714484
0.714463
0.714442
0.714421
0.714401
0.71438
0.714359
0.714338
0.714317
0.714296
0.715321
0.715335
0.715365
0.715409
0.715464
0.715526
0.715593
0.715666
0.715749
0.71585
0.715972
0.716119
0.716289
0.716477
0.716676
0.71688
0.717079
0.717264
0.717424
0.717555
0.717654
0.717725
0.717773
0.717803
0.717819
0.717826
0.717826
0.717821
0.717812
0.717801
0.717787
0.717772
0.717756
0.717739
0.717722
0.717703
0.717684
0.717665
0.717646
0.717626
0.717606
0.717586
0.717566
0.717545
0.717525
0.717504
0.717484
0.717463
0.717442
0.717421
0.717401
0.71738
0.717359
0.717338
0.717318
0.717297
0.717276
0.717255
0.717234
0.717214
0.717193
0.717172
0.717151
0.71713
0.717109
0.717089
0.717068
0.717047
0.717026
0.717005
0.716984
0.716964
0.716943
0.716922
0.716901
0.71688
0.716859
0.716839
0.716818
0.716797
0.716776
0.716755
0.716734
0.716713
0.716693
0.716672
0.716651
0.71663
0.716609
0.716588
0.716568
0.716547
0.716526
0.716505
0.716484
0.716463
0.716443
0.716422
0.716401
0.71638
0.716359
0.716338
0.716318
0.716297
0.716276
0.716255
0.716234
0.716213
0.716193
0.716172
0.716151
0.71613
0.716109
0.716088
0.716068
0.716047
0.716026
0.716005
0.715984
0.715963
0.715943
0.715922
0.715901
0.71588
0.715859
0.715838
0.715817
0.715797
0.715776
0.715755
0.715734
0.715713
0.715692
0.715672
0.715651
0.71563
0.715609
0.715588
0.715567
0.715547
0.715526
0.715505
0.715484
0.715463
0.715442
0.715422
0.715401
0.71538
0.715359
0.715338
0.715317
0.715297
0.715276
0.715255
0.715234
0.715213
0.715192
0.715172
0.715151
0.71513
0.715109
0.715088
0.715067
0.715047
0.715026
0.715005
0.714984
0.714963
0.714942
0.714922
0.714901
0.71488
0.714859
0.714838
0.714817
0.714796
0.714776
0.714755
0.714734
0.714713
0.714692
0.714671
0.714651
0.71463
0.714609
0.714588
0.714567
0.714546
0.714526
0.714505
0.714484
0.714463
0.714442
0.714421
0.714401
0.71438
0.714359
0.714338
0.714317
0.714296
0.71534
0.715351
0.715376
0.715411
0.715455
0.715508
0.71557
0.715647
0.71574
0.715852
0.715983
0.716133
0.7163
0.716484
0.716679
0.716879
0.717075
0.717256
0.717413
0.717542
0.717641
0.717714
0.717763
0.717795
0.717813
0.717821
0.717823
0.717818
0.71781
0.717799
0.717786
0.717772
0.717756
0.717739
0.717721
0.717703
0.717684
0.717665
0.717646
0.717626
0.717606
0.717586
0.717565
0.717545
0.717525
0.717504
0.717484
0.717463
0.717442
0.717421
0.717401
0.71738
0.717359
0.717338
0.717318
0.717297
0.717276
0.717255
0.717234
0.717214
0.717193
0.717172
0.717151
0.71713
0.717109
0.717089
0.717068
0.717047
0.717026
0.717005
0.716984
0.716964
0.716943
0.716922
0.716901
0.71688
0.716859
0.716839
0.716818
0.716797
0.716776
0.716755
0.716734
0.716713
0.716693
0.716672
0.716651
0.71663
0.716609
0.716588
0.716568
0.716547
0.716526
0.716505
0.716484
0.716463
0.716443
0.716422
0.716401
0.71638
0.716359
0.716338
0.716318
0.716297
0.716276
0.716255
0.716234
0.716213
0.716193
0.716172
0.716151
0.71613
0.716109
0.716088
0.716068
0.716047
0.716026
0.716005
0.715984
0.715963
0.715943
0.715922
0.715901
0.71588
0.715859
0.715838
0.715817
0.715797
0.715776
0.715755
0.715734
0.715713
0.715692
0.715672
0.715651
0.71563
0.715609
0.715588
0.715567
0.715547
0.715526
0.715505
0.715484
0.715463
0.715442
0.715422
0.715401
0.71538
0.715359
0.715338
0.715317
0.715297
0.715276
0.715255
0.715234
0.715213
0.715192
0.715172
0.715151
0.71513
0.715109
0.715088
0.715067
0.715047
0.715026
0.715005
0.714984
0.714963
0.714942
0.714922
0.714901
0.71488
0.714859
0.714838
0.714817
0.714796
0.714776
0.714755
0.714734
0.714713
0.714692
0.714671
0.714651
0.71463
0.714609
0.714588
0.714567
0.714546
0.714526
0.714505
0.714484
0.714463
0.714442
0.714421
0.714401
0.71438
0.714359
0.714338
0.714317
0.714296
)
;

boundaryField
{
    inlet
    {