/*--------------------------------*- C++ -*----------------------------------*\
| =========                 |                                                 |
| \\      /  F ield         | OpenFOAM: The Open Source CFD Toolbox           |
|  \\    /   O peration     | Version:  4.1                                   |
|   \\  /    A nd           | Web:      www.OpenFOAM.org                      |
|    \\/     M anipulation  |                                                 |
\*---------------------------------------------------------------------------*/
FoamFile
{
    version     2.0;
    format      ascii;
    class       volVectorField;
    location    "0.0378";
    object      U;
}
// * * * * * * * * * * * * * * * * * * * * * * * * * * * * * * * * * * * * * //

dimensions      [0 1 -1 0 0 0 0];

internalField   nonuniform List<vector> 
441
(
(-9.62446e-05 7.51972e-05 0)
(-0.000488513 0.000286188 0)
(-0.00110637 0.000508136 0)
(-0.00190339 0.000669654 0)
(-0.00280419 0.000752326 0)
(-0.00372637 0.000756995 0)
(-0.00459305 0.000692697 0)
(-0.00533886 0.000571911 0)
(-0.00591218 0.000408251 0)
(-0.00627571 0.000215455 0)
(-0.00640629 7.1463e-06 0)
(-0.00629477 -0.000202957 0)
(-0.00594627 -0.000400691 0)
(-0.00538098 -0.000571179 0)
(-0.00463494 -0.000698927 0)
(-0.00376067 -0.00076849 0)
(-0.00282641 -0.000766004 0)
(-0.00191299 -0.000681975 0)
(-0.0011067 -0.000516314 0)
(-0.000485189 -0.000289345 0)
(-9.46439e-05 -7.48049e-05 0)
(-0.000356085 0.000439529 0)
(-0.00158464 0.00138763 0)
(-0.00333383 0.00225733 0)
(-0.00547977 0.00287059 0)
(-0.0078426 0.00317003 0)
(-0.0102271 0.00316 0)
(-0.0124496 0.00287568 0)
(-0.0143526 0.00236622 0)
(-0.0158108 0.00168564 0)
(-0.0167334 0.000888699 0)
(-0.0170639 2.97941e-05 0)
(-0.0167801 -0.000836292 0)
(-0.0158951 -0.00165299 0)
(-0.0144581 -0.00236095 0)
(-0.012557 -0.00289843 0)
(-0.0103186 -0.00320409 0)
(-0.00790679 -0.00322326 0)
(-0.00551383 -0.00291885 0)
(-0.00334391 -0.00228938 0)
(-0.00158266 -0.00139981 0)
(-0.00035413 -0.00043841 0)
(-0.000649601 0.00106885 0)
(-0.00272453 0.00309434 0)
(-0.00552295 0.00480706 0)
(-0.00884639 0.00597003 0)
(-0.0124351 0.0065066 0)
(-0.0160135 0.00643563 0)
(-0.0193238 0.00582836 0)
(-0.0221445 0.00478118 0)
(-0.0242997 0.0033996 0)
(-0.0256616 0.00179057 0)
(-0.0261506 6.0331e-05 0)
(-0.0257355 -0.00168411 0)
(-0.0244339 -0.00333232 0)
(-0.022315 -0.00476843 0)
(-0.0195012 -0.0058719 0)
(-0.0161705 -0.00652287 0)
(-0.0125522 -0.00661378 0)
(-0.00891681 -0.00606909 0)
(-0.00555321 -0.00487494 0)
(-0.00273059 -0.00312231 0)
(-0.000649156 -0.00106856 0)
(-0.000936245 0.00196627 0)
(-0.00383253 0.00541315 0)
(-0.00762437 0.00816001 0)
(-0.0120325 0.00995593 0)
(-0.0167205 0.0107325 0)
(-0.0213447 0.0105411 0)
(-0.0255899 0.00950263 0)
(-0.0291887 0.00777214 0)
(-0.0319302 0.00551676 0)
(-0.0336619 0.00290457 0)
(-0.0342889 0.000101941 0)
(-0.0337729 -0.00272395 0)
(-0.0321333 -0.00540049 0)
(-0.0294503 -0.0077461 0)
(-0.0258684 -0.00957093 0)
(-0.0215994 -0.0106846 0)
(-0.0169206 -0.0109131 0)
(-0.0121639 -0.0101273 0)
(-0.00769187 -0.00828227 0)
(-0.00385568 -0.0054684 0)
(-0.000939553 -0.00196987 0)
(-0.00121503 0.00312926 0)
(-0.00491631 0.00834608 0)
(-0.00967727 0.0123229 0)
(-0.0151308 0.0148303 0)
(-0.0208601 0.0158391 0)
(-0.0264567 0.0154567 0)
(-0.0315563 0.0138721 0)
(-0.0358566 0.0113129 0)
(-0.0391231 0.00801785 0)
(-0.0411879 0.00422347 0)
(-0.0419463 0.000161756 0)
(-0.0413545 -0.00393521 0)
(-0.0394304 -0.0078275 0)
(-0.0362576 -0.0112611 0)
(-0.0319917 -0.0139676 0)
(-0.0268665 -0.0156732 0)
(-0.0211959 -0.0161209 0)
(-0.0153657 -0.0151067 0)
(-0.00981112 -0.0125293 0)
(-0.00497188 -0.00844831 0)
(-0.00122586 -0.00314288 0)
(-0.00149529 0.00456109 0)
(-0.00601158 0.0119054 0)
(-0.0117504 0.0173133 0)
(-0.0182483 0.0206078 0)
(-0.0250024 0.0218312 0)
(-0.0315393 0.0211766 0)
(-0.037451 0.0189236 0)
(-0.042409 0.0153886 0)
(-0.0461648 0.0108925 0)
(-0.0485431 0.0057463 0)
(-0.0494345 0.000250399 0)
(-0.0487907 -0.00529685 0)
(-0.0466246 -0.0105864 0)
(-0.0430161 -0.0152875 0)
(-0.0381217 -0.0190448 0)
(-0.0321859 -0.0214868 0)
(-0.02555 -0.022253 0)
(-0.0186495 -0.0210373 0)
(-0.0119946 -0.0176501 0)
(-0.00612329 -0.0120872 0)
(-0.00151957 -0.0045962 0)
(-0.00178731 0.00627544 0)
(-0.00715604 0.0161207 0)
(-0.013908 0.0231644 0)
(-0.0214715 0.0273138 0)
(-0.0292511 0.0287208 0)
(-0.0367087 0.0276986 0)
(-0.0433987 0.0246451 0)
(-0.0489763 0.0199845 0)
(-0.0531893 0.0141308 0)
(-0.055864 0.00747358 0)
(-0.0568922 0.000381295 0)
(-0.0562225 -0.00678383 0)
(-0.0538593 -0.0136455 0)
(-0.0498703 -0.0197952 0)
(-0.0444013 -0.0247832 0)
(-0.0376952 -0.0281255 0)
(-0.0301092 -0.0293327 0)
(-0.0221226 -0.0279633 0)
(-0.0143228 -0.023699 0)
(-0.00735709 -0.0164328 0)
(-0.00183342 -0.00635149 0)
(-0.00209845 0.00829559 0)
(-0.00837585 0.0210352 0)
(-0.0161884 0.0299167 0)
(-0.0248402 0.0349724 0)
(-0.0336365 0.0365099 0)
(-0.0419776 0.0350052 0)
(-0.0493907 0.0310074 0)
(-0.055528 0.0250701 0)
(-0.0601477 0.017711 0)
(-0.0630897 0.00940002 0)
(-0.0642546 0.00056945 0)
(-0.0635898 -0.00836187 0)
(-0.0610877 -0.0169573 0)
(-0.0567945 -0.0247335 0)
(-0.050831 -0.0311419 0)
(-0.0434208 -0.0355705 0)
(-0.034921 -0.0373726 0)
(-0.0258429 -0.0359292 0)
(-0.0168495 -0.0307427 0)
(-0.00870923 -0.0215515 0)
(-0.00217742 -0.008443 0)
(-0.00243078 0.0106511 0)
(-0.00967657 0.0266969 0)
(-0.0185875 0.0376041 0)
(-0.0283234 0.0435859 0)
(-0.0380854 0.0451666 0)
(-0.047221 0.0430379 0)
(-0.055247 0.0379396 0)
(-0.0618331 0.0305779 0)
(-0.0667675 0.0215836 0)
(-0.0699195 0.0115052 0)
(-0.0712088 0.000829334 0)
(-0.070586 -0.00998193 0)
(-0.0680277 -0.0204451 0)
(-0.0635478 -0.0300109 0)
(-0.0572238 -0.0380325 0)
(-0.0492368 -0.0437559 0)
(-0.0399183 -0.0463461 0)
(-0.0297907 -0.044956 0)
(-0.019583 -0.0388426 0)
(-0.0101942 -0.0275188 0)
(-0.00255619 -0.0109142 0)
(-0.00277892 0.013373 0)
(-0.0110347 0.033144 0)
(-0.0210421 0.0462302 0)
(-0.031794 0.0531057 0)
(-0.0423877 0.0545927 0)
(-0.0521359 0.0516652 0)
(-0.0605722 0.0452993 0)
(-0.0674132 0.0363784 0)
(-0.0725035 0.0256527 0)
(-0.0757627 0.0137422 0)
(-0.0771435 0.00117153 0)
(-0.0766054 -0.011575 0)
(-0.0741071 -0.0239887 0)
(-0.0696182 -0.0354722 0)
(-0.0631516 -0.045288 0)
(-0.0548149 -0.0525323 0)
(-0.0448772 -0.0561496 0)
(-0.0338366 -0.0550058 0)
(-0.0224653 -0.0480272 0)
(-0.0117946 -0.034402 0)
(-0.00296644 -0.0138124 0)
(-0.00312721 0.0164871 0)
(-0.0123874 0.0403856 0)
(-0.0234095 0.0557377 0)
(-0.0349976 0.0633939 0)
(-0.0461553 0.0645823 0)
(-0.0561934 0.0606425 0)
(-0.0647037 0.0528382 0)
(-0.0714895 0.0422526 0)
(-0.0764854 0.029756 0)
(-0.0796864 0.016025 0)
(-0.0810949 0.00159788 0)
(-0.0806878 -0.0130485 0)
(-0.0784053 -0.0274115 0)
(-0.0741621 -0.0408744 0)
(-0.0678828 -0.0526288 0)
(-0.0595643 -0.0616225 0)
(-0.0493637 -0.0665533 0)
(-0.0377005 -0.0659341 0)
(-0.0253451 -0.0582534 0)
(-0.013448 -0.0422366 0)
(-0.00339347 -0.0171812 0)
(-0.00344533 0.0200062 0)
(-0.0136165 0.0483767 0)
(-0.0254377 0.0659689 0)
(-0.0375085 0.0741744 0)
(-0.0487684 0.0747725 0)
(-0.0585807 0.0695681 0)
(-0.0666539 0.0601656 0)
(-0.0729287 0.0478643 0)
(-0.0774682 0.0336448 0)
(-0.0803695 0.0182156 0)
(-0.0817022 0.00209527 0)
(-0.0814708 -0.0142854 0)
(-0.0796 -0.030471 0)
(-0.0759424 -0.0458665 0)
(-0.0703137 -0.0596279 0)
(-0.0625604 -0.0705739 0)
(-0.0526664 -0.0771422 0)
(-0.0408951 -0.0774285 0)
(-0.0279392 -0.0693542 0)
(-0.0150264 -0.050993 0)
(-0.00380586 -0.0210503 0)
(-0.00368056 0.0239196 0)
(-0.0145214 0.0569855 0)
(-0.0267168 0.0766125 0)
(-0.0386636 0.0849729 0)
(-0.0492999 0.0845867 0)
(-0.0581263 0.0778373 0)
(-0.0650445 0.0667163 0)
(-0.0701902 0.0527389 0)
(-0.0737919 0.0369708 0)
(-0.0760718 0.0201151 0)
(-0.0771807 0.00262872 0)
(-0.0771608 -0.0151487 0)
(-0.0759282 -0.032858 0)
(-0.0732754 -0.0499787 0)
(-0.0688984 -0.0656855 0)
(-0.0624602 -0.0787123 0)
(-0.0537064 -0.0872511 0)
(-0.0426445 -0.0889331 0)
(-0.0297722 -0.0809692 0)
(-0.016303 -0.0605316 0)
(-0.0041463 -0.0254213 0)
(-0.00374271 0.0281784 0)
(-0.0147674 0.0659471 0)
(-0.0265917 0.0871348 0)
(-0.0374528 0.0950442 0)
(-0.0464031 0.0931755 0)
(-0.0532011 0.0846051 0)
(-0.0580323 0.0717321 0)
(-0.0612799 0.0562585 0)
(-0.0633622 0.0392865 0)
(-0.0646341 0.0214631 0)
(-0.0653313 0.0031356 0)
(-0.0655398 -0.0154936 0)
(-0.0651796 -0.0342119 0)
(-0.0639987 -0.0526339 0)
(-0.061584 -0.070025 0)
(-0.0574046 -0.0851129 0)
(-0.0509163 -0.0959038 0)
(-0.0417605 -0.0995611 0)
(-0.0300752 -0.0924534 0)
(-0.016892 -0.0705382 0)
(-0.0043149 -0.0302469 0)
(-0.00347297 0.0326714 0)
(-0.0137795 0.074793 0)
(-0.0239969 0.0966825 0)
(-0.0323283 0.103286 0)
(-0.0381338 0.0993656 0)
(-0.0415823 0.0887717 0)
(-0.0432259 0.0742761 0)
(-0.0437198 0.0576895 0)
(-0.0436629 0.0400727 0)
(-0.0435219 0.0219538 0)
(-0.0436006 0.00352439 0)
(-0.0440265 -0.0151883 0)
(-0.0447397 -0.0341589 0)
(-0.0454781 -0.0531934 0)
(-0.0457639 -0.0717323 0)
(-0.0449083 -0.08861 0)
(-0.0420723 -0.101774 0)
(-0.0364448 -0.108004 0)
(-0.0276065 -0.102758 0)
(-0.0161338 -0.0804291 0)
(-0.00413629 -0.0353977 0)
(-0.00257468 0.0371772 0)
(-0.0105146 0.0827321 0)
(-0.0171303 0.103945 0)
(-0.0208679 0.108146 0)
(-0.021673 0.101639 0)
(-0.0202688 0.0890236 0)
(-0.0175988 0.0733071 0)
(-0.0145459 0.0562648 0)
(-0.0118201 0.0388077 0)
(-0.0099343 0.0212796 0)
(-0.00921471 0.00368343 0)
(-0.00981333 -0.0141438 0)
(-0.0117075 -0.0323793 0)
(-0.0146787 -0.0510556 0)
(-0.0182719 -0.0698643 0)
(-0.0217482 -0.0878856 0)
(-0.0240661 -0.103212 0)
(-0.0239705 -0.112461 0)
(-0.020321 -0.110283 0)
(-0.0128587 -0.0892038 0)
(-0.00328946 -0.0406036 0)
(-0.000440651 0.041252 0)
(-0.00294489 0.0884219 0)
(-0.00280242 0.106954 0)
(0.000812845 0.107558 0)
(0.00709083 0.0981987 0)
(0.014746 0.0839801 0)
(0.0225741 0.0678536 0)
(0.0296332 0.0513449 0)
(0.0352564 0.0350935 0)
(0.0390023 0.0192097 0)
(0.0405985 0.00350598 0)
(0.0399021 -0.0123483 0)
(0.0368871 -0.0287052 0)
(0.0316649 -0.0458145 0)
(0.0245424 -0.0636572 0)
(0.0161159 -0.081686 0)
(0.00738547 -0.0983976 0)
(-0.000173534 -0.110651 0)
(-0.00474374 -0.112698 0)
(-0.00487072 -0.0951913 0)
(-0.00113601 -0.0453261 0)
(0.00434067 0.0439904 0)
(0.0131769 0.089579 0)
(0.0248717 0.102867 0)
(0.039036 0.099007 0)
(0.0541166 0.0872385 0)
(0.0686792 0.0725342 0)
(0.0816813 0.0573361 0)
(0.092456 0.04268 0)
(0.100612 0.0288447 0)
(0.105931 0.015707 0)
(0.108283 0.00293611 0)
(0.107579 -0.00989509 0)
(0.103747 -0.0232341 0)
(0.0967394 -0.0374748 0)
(0.0865899 -0.0528497 0)
(0.0735072 -0.0692332 0)
(0.0580423 -0.085758 0)
(0.0413156 -0.100058 0)
(0.0252262 -0.106861 0)
(0.0122562 -0.0956703 0)
(0.0037745 -0.048498 0)
(0.0159011 0.0431686 0)
(0.0474271 0.0819336 0)
(0.0769708 0.0877337 0)
(0.103947 0.0799467 0)
(0.127712 0.0675948 0)
(0.147921 0.0544736 0)
(0.164469 0.0420534 0)
(0.177395 0.0307517 0)
(0.18681 0.0205114 0)
(0.19283 0.0110605 0)
(0.195527 0.00202992 0)
(0.194899 -0.00699046 0)
(0.190847 -0.0164217 0)
(0.183169 -0.026669 0)
(0.171574 -0.0380783 0)
(0.155709 -0.0508384 0)
(0.135241 -0.0647479 0)
(0.110027 -0.0786314 0)
(0.0804912 -0.0889024 0)
(0.0481483 -0.085993 0)
(0.0156212 -0.0476774 0)
(0.0496094 0.0349087 0)
(0.122942 0.0597022 0)
(0.174324 0.058156 0)
(0.21096 0.0497208 0)
(0.238387 0.0402951 0)
(0.259286 0.0315199 0)
(0.275173 0.0238061 0)
(0.286962 0.0171174 0)
(0.295257 0.0112578 0)
(0.300449 0.00597561 0)
(0.302766 0.00100155 0)
(0.30228 -0.00393751 0)
(0.298902 -0.0091145 0)
(0.29237 -0.0147998 0)
(0.282199 -0.0212548 0)
(0.267607 -0.0287122 0)
(0.24735 -0.0373186 0)
(0.219406 -0.046938 0)
(0.180552 -0.0564683 0)
(0.125356 -0.0605795 0)
(0.0497298 -0.0385827 0)
(0.182894 0.0046962 0)
(0.296917 0.00842235 0)
(0.351088 0.012058 0)
(0.378785 0.0118829 0)
(0.395911 0.010107 0)
(0.407467 0.00802946 0)
(0.415618 0.00607862 0)
(0.421373 0.00435404 0)
(0.425281 0.00283761 0)
(0.427663 0.00147284 0)
(0.428693 0.000191912 0)
(0.428438 -0.00107457 0)
(0.426861 -0.00239302 0)
(0.423812 -0.00382148 0)
(0.418982 -0.00539765 0)
(0.411791 -0.00710949 0)
(0.401097 -0.00882154 0)
(0.384382 -0.0101121 0)
(0.35584 -0.00994421 0)
(0.298557 -0.00718745 0)
(0.181169 -0.00733812 0)
)
;

boundaryField
{
    movingWall
    {
        type            fixedValue;
        value           uniform (0.5 0 0);
    }
    fixedWalls
    {
        type            noSlip;
    }
    frontAndBack
    {
        type            empty;
    }
}


// ************************************************************************* //
