/*--------------------------------*- C++ -*----------------------------------*\
| =========                 |                                                 |
| \\      /  F ield         | OpenFOAM: The Open Source CFD Toolbox           |
|  \\    /   O peration     | Version:  4.1                                   |
|   \\  /    A nd           | Web:      www.OpenFOAM.org                      |
|    \\/     M anipulation  |                                                 |
\*---------------------------------------------------------------------------*/
FoamFile
{
    version     2.0;
    format      ascii;
    class       volVectorField;
    location    "0.0072";
    object      U;
}
// * * * * * * * * * * * * * * * * * * * * * * * * * * * * * * * * * * * * * //

dimensions      [0 1 -1 0 0 0 0];

internalField   nonuniform List<vector> 
441
(
(-0.000140061 0.00013509 0)
(-0.000588822 0.000280723 0)
(-0.00110544 0.000362685 0)
(-0.00163143 0.000383899 0)
(-0.00212859 0.00036672 0)
(-0.00257458 0.00032702 0)
(-0.00295539 0.000273862 0)
(-0.00326138 0.000212195 0)
(-0.00348564 0.000144959 0)
(-0.00362328 7.42108e-05 0)
(-0.00367131 1.65154e-06 0)
(-0.00362854 -7.11338e-05 0)
(-0.0034956 -0.000142539 0)
(-0.00327502 -0.000210798 0)
(-0.00297127 -0.000273745 0)
(-0.00259104 -0.000328286 0)
(-0.0021439 -0.000369271 0)
(-0.00164408 -0.000387384 0)
(-0.00111435 -0.000366466 0)
(-0.000593581 -0.000283877 0)
(-0.000141131 -0.000136622 0)
(-0.00030541 0.00057994 0)
(-0.00129585 0.00122131 0)
(-0.00242128 0.00151507 0)
(-0.00355536 0.00157153 0)
(-0.00461928 0.00148614 0)
(-0.00556882 0.00131846 0)
(-0.00637666 0.00110118 0)
(-0.00702412 0.000852019 0)
(-0.00749769 0.000581619 0)
(-0.00778781 0.00029767 0)
(-0.00788858 6.69383e-06 0)
(-0.00779771 -0.000285153 0)
(-0.00751648 -0.000571633 0)
(-0.00704988 -0.000845979 0)
(-0.00640673 -0.00110009 0)
(-0.00560006 -0.00132274 0)
(-0.00464844 -0.00149544 0)
(-0.00357952 -0.00158459 0)
(-0.00243829 -0.00152952 0)
(-0.00130488 -0.00123367 0)
(-0.000307279 -0.00058585 0)
(-0.000423362 0.00112329 0)
(-0.00173054 0.00235542 0)
(-0.00320078 0.00289066 0)
(-0.00467586 0.00297908 0)
(-0.00605616 0.00280653 0)
(-0.00728571 0.00248413 0)
(-0.00832998 0.00207169 0)
(-0.0091657 0.00160134 0)
(-0.00977624 0.00109238 0)
(-0.01015 0.000558761 0)
(-0.0102798 1.23489e-05 0)
(-0.0101628 -0.00053567 0)
(-0.00980071 -0.00107396 0)
(-0.0091993 -0.00159022 0)
(-0.00836927 -0.00206975 0)
(-0.00732664 -0.00249217 0)
(-0.00609448 -0.00282396 0)
(-0.00470769 -0.00300355 0)
(-0.00322329 -0.00291777 0)
(-0.00174258 -0.00237864 0)
(-0.000425947 -0.00113431 0)
(-0.000504232 0.00173452 0)
(-0.00202465 0.00361848 0)
(-0.00372281 0.00441659 0)
(-0.00542122 0.00453594 0)
(-0.00700682 0.00426352 0)
(-0.00841621 0.0037677 0)
(-0.00961076 0.00313841 0)
(-0.010565 0.00242371 0)
(-0.0112613 0.00165239 0)
(-0.0116873 0.000845021 0)
(-0.0118359 1.89387e-05 0)
(-0.0117038 -0.000809608 0)
(-0.0112927 -0.00162415 0)
(-0.0106082 -0.00240671 0)
(-0.00966146 -0.00313557 0)
(-0.00846921 -0.00378036 0)
(-0.00705663 -0.0042908 0)
(-0.00546277 -0.00457424 0)
(-0.00375232 -0.00445904 0)
(-0.00204054 -0.00365482 0)
(-0.000507737 -0.00175169 0)
(-0.000572328 0.00240635 0)
(-0.00227915 0.0049971 0)
(-0.00417651 0.00607813 0)
(-0.00606856 0.00622722 0)
(-0.0078298 0.00584235 0)
(-0.00939059 0.00515507 0)
(-0.0107095 0.00428862 0)
(-0.0117605 0.00330875 0)
(-0.012526 0.00225441 0)
(-0.0129944 0.00115301 0)
(-0.0131588 2.71492e-05 0)
(-0.0130163 -0.00110222 0)
(-0.0125677 -0.00221385 0)
(-0.0118181 -0.00328427 0)
(-0.0107774 -0.00428453 0)
(-0.00946183 -0.00517339 0)
(-0.0078971 -0.00588198 0)
(-0.00612501 -0.006283 0)
(-0.00421684 -0.0061401 0)
(-0.00230103 -0.00505021 0)
(-0.000577256 -0.00243143 0)
(-0.000644313 0.00314786 0)
(-0.00255568 0.00651121 0)
(-0.00467229 0.00789832 0)
(-0.00677559 0.00807449 0)
(-0.00872558 0.0075609 0)
(-0.0104461 0.00665973 0)
(-0.0118938 0.00553182 0)
(-0.0130431 0.00426269 0)
(-0.0138782 0.00290234 0)
(-0.0143891 0.00148495 0)
(-0.0145702 3.78924e-05 0)
(-0.0144188 -0.00141399 0)
(-0.0139349 -0.00284547 0)
(-0.0131217 -0.00422807 0)
(-0.0119868 -0.0055256 0)
(-0.0105443 -0.006685 0)
(-0.00881898 -0.00761639 0)
(-0.00685447 -0.00815317 0)
(-0.00472903 -0.00798616 0)
(-0.0025867 -0.00658675 0)
(-0.000651421 -0.00318363 0)
(-0.000730444 0.00397734 0)
(-0.00289098 0.00819776 0)
(-0.00527406 0.00991893 0)
(-0.00763112 0.0101165 0)
(-0.00980404 0.00945128 0)
(-0.0117094 0.00830627 0)
(-0.013303 0.00688562 0)
(-0.0145615 0.00529743 0)
(-0.0154726 0.00360362 0)
(-0.0160299 0.00184487 0)
(-0.0162298 5.2271e-05 0)
(-0.0160704 -0.00174681 0)
(-0.0155502 -0.00352456 0)
(-0.0146695 -0.00524858 0)
(-0.0134316 -0.00687569 0)
(-0.0118463 -0.00833998 0)
(-0.00993514 -0.00952743 0)
(-0.00774272 -0.0102258 0)
(-0.00535497 -0.0100419 0)
(-0.00293558 -0.0083041 0)
(-0.000740803 -0.00402798 0)
(-0.000838078 0.00491956 0)
(-0.00331161 0.0101048 0)
(-0.00602671 0.0121931 0)
(-0.0086951 0.0124011 0)
(-0.0111357 0.0115516 0)
(-0.0132576 0.0101225 0)
(-0.0150172 0.00836877 0)
(-0.0163967 0.00642479 0)
(-0.0173904 0.00436525 0)
(-0.0179976 0.00223654 0)
(-0.0182187 7.16497e-05 0)
(-0.0180527 -0.0021018 0)
(-0.0174963 -0.00425573 0)
(-0.0165449 -0.00635569 0)
(-0.015195 -0.00835238 0)
(-0.0134484 -0.0101661 0)
(-0.0113204 -0.0116547 0)
(-0.00885384 -0.0125516 0)
(-0.00614287 -0.0123643 0)
(-0.00337619 -0.0102542 0)
(-0.00085325 -0.00499124 0)
(-0.000974411 0.00600594 0)
(-0.00384422 0.0122915 0)
(-0.00697421 0.0147838 0)
(-0.0100235 0.0149823 0)
(-0.0127823 0.0139019 0)
(-0.0151525 0.0121345 0)
(-0.0170954 0.00999651 0)
(-0.0186033 0.00765264 0)
(-0.0196818 0.00519102 0)
(-0.0203396 0.00266207 0)
(-0.0205834 9.7748e-05 0)
(-0.0204139 -0.00247767 0)
(-0.0198252 -0.00503952 0)
(-0.0188056 -0.00755446 0)
(-0.0173403 -0.00996897 0)
(-0.0154183 -0.012189 0)
(-0.0130426 -0.0140395 0)
(-0.01025 -0.0151881 0)
(-0.00714188 -0.0150217 0)
(-0.00393837 -0.0125014 0)
(-0.000996749 -0.00610773 0)
(-0.00114828 0.00727681 0)
(-0.00452232 0.014831 0)
(-0.00817064 0.0177657 0)
(-0.011682 0.0179193 0)
(-0.0148118 0.0165411 0)
(-0.0174572 0.014363 0)
(-0.0195916 0.0117763 0)
(-0.0212252 0.00898113 0)
(-0.0223819 0.00607877 0)
(-0.0230855 0.00312056 0)
(-0.0233517 0.000132724 0)
(-0.0231845 -0.00286918 0)
(-0.0225742 -0.00586942 0)
(-0.0214985 -0.00884089 0)
(-0.0199265 -0.0117295 0)
(-0.0178259 -0.0144276 0)
(-0.0151785 -0.0167218 0)
(-0.0120062 -0.0181992 0)
(-0.00841417 -0.0180963 0)
(-0.00466073 -0.015127 0)
(-0.00118142 -0.00742226 0)
(-0.0013712 0.00878572 0)
(-0.00539063 0.0178174 0)
(-0.00968622 0.0212289 0)
(-0.0137518 0.0212763 0)
(-0.0173016 0.019503 0)
(-0.020236 0.0168171 0)
(-0.0225522 0.0137019 0)
(-0.0242913 0.0103977 0)
(-0.0255057 0.00701689 0)
(-0.026241 0.00360624 0)
(-0.0265264 0.000179202 0)
(-0.0263706 -0.00326514 0)
(-0.0257593 -0.00672802 0)
(-0.0246559 -0.0101963 0)
(-0.0230055 -0.0136222 0)
(-0.020744 -0.016887 0)
(-0.017817 -0.0197352 0)
(-0.0142168 -0.0216536 0)
(-0.0100421 -0.0216878 0)
(-0.00559597 -0.018237 0)
(-0.00142082 -0.00899528 0)
(-0.00165684 0.0106061 0)
(-0.00650432 0.0213745 0)
(-0.0116035 0.0252819 0)
(-0.0163191 0.0251183 0)
(-0.0203215 0.0228081 0)
(-0.0235299 0.0194849 0)
(-0.025987 0.0157443 0)
(-0.027783 0.0118698 0)
(-0.0290123 0.00797942 0)
(-0.0297512 0.00410602 0)
(-0.0300476 0.000240146 0)
(-0.0299167 -0.00364614 0)
(-0.0293386 -0.00758193 0)
(-0.0282588 -0.0115796 0)
(-0.0265897 -0.0156083 0)
(-0.0242206 -0.0195471 0)
(-0.0210399 -0.023096 0)
(-0.016984 -0.0256203 0)
(-0.0121248 -0.0259177 0)
(-0.00681098 -0.0219726 0)
(-0.00173167 -0.0109111 0)
(-0.00201546 0.01284 0)
(-0.00791132 0.0256665 0)
(-0.0139829 0.0300516 0)
(-0.0194216 0.0295007 0)
(-0.0238616 0.0264471 0)
(-0.0272723 0.0223162 0)
(-0.0297748 0.0178374 0)
(-0.0315341 0.0133348 0)
(-0.0327028 0.00891941 0)
(-0.0333969 0.00459603 0)
(-0.0336878 0.000318322 0)
(-0.0335992 -0.00398197 0)
(-0.0331059 -0.00837572 0)
(-0.0321321 -0.0129163 0)
(-0.0305501 -0.0176075 0)
(-0.0281858 -0.0223424 0)
(-0.0248418 -0.0267834 0)
(-0.020359 -0.0301532 0)
(-0.014741 -0.0309265 0)
(-0.00836845 -0.0265221 0)
(-0.00212831 -0.0132885 0)
(-0.00243468 0.0156256 0)
(-0.0095855 0.030899 0)
(-0.0167433 0.0356642 0)
(-0.0228802 0.034436 0)
(-0.0276266 0.0303456 0)
(-0.0310578 0.0251931 0)
(-0.0334194 0.0198566 0)
(-0.0349803 0.0146853 0)
(-0.035966 0.0097603 0)
(-0.0365385 0.00503701 0)
(-0.0367945 0.000414833 0)
(-0.0367678 -0.00422996 0)
(-0.036429 -0.00902565 0)
(-0.0356822 -0.014086 0)
(-0.0343563 -0.0194749 0)
(-0.0322014 -0.025129 0)
(-0.0289035 -0.0306975 0)
(-0.0241535 -0.0352504 0)
(-0.0178156 -0.036848 0)
(-0.0102542 -0.0321204 0)
(-0.00260236 -0.0162904 0)
(-0.00282692 0.0191288 0)
(-0.011241 0.0372812 0)
(-0.0193451 0.0421732 0)
(-0.0258766 0.0398124 0)
(-0.0305458 0.0342943 0)
(-0.0336156 0.0278795 0)
(-0.0355063 0.0215866 0)
(-0.036611 0.015751 0)
(-0.0372307 0.0103858 0)
(-0.0375685 0.00536877 0)
(-0.0377416 0.00052597 0)
(-0.0377925 -0.00433568 0)
(-0.0376919 -0.00941611 0)
(-0.0373319 -0.0149099 0)
(-0.0365085 -0.0209733 0)
(-0.0349001 -0.0276339 0)
(-0.0320605 -0.0345807 0)
(-0.0274762 -0.0407552 0)
(-0.0207701 -0.0437173 0)
(-0.012174 -0.0389987 0)
(-0.00306694 -0.0201144 0)
(-0.00290809 0.0234832 0)
(-0.0119036 0.0448742 0)
(-0.0200951 0.0493603 0)
(-0.0260806 0.0452143 0)
(-0.0298076 0.0378198 0)
(-0.0318105 0.0299428 0)
(-0.032701 0.0226802 0)
(-0.0329764 0.0162796 0)
(-0.0329822 0.0106316 0)
(-0.0329353 0.00550504 0)
(-0.0329554 0.000637923 0)
(-0.0330871 -0.00423902 0)
(-0.0333078 -0.00940367 0)
(-0.0335184 -0.0151457 0)
(-0.0335164 -0.021746 0)
(-0.0329528 -0.0293851 0)
(-0.031287 -0.0378857 0)
(-0.0277976 -0.0461548 0)
(-0.0217699 -0.0512331 0)
(-0.0130918 -0.0471959 0)
(-0.00322932 -0.0249248 0)
(-0.00193895 0.0285925 0)
(-0.00905861 0.0531774 0)
(-0.014886 0.0562967 0)
(-0.0182012 0.049592 0)
(-0.019375 0.0399901 0)
(-0.0191932 0.030662 0)
(-0.0183531 0.0226265 0)
(-0.0173403 0.0159317 0)
(-0.0164524 0.0102879 0)
(-0.015857 0.00533438 0)
(-0.0156396 0.000720983 0)
(-0.0158336 -0.00388798 0)
(-0.0164311 -0.00883686 0)
(-0.0173758 -0.0145053 0)
(-0.0185342 -0.0213136 0)
(-0.0196399 -0.029651 0)
(-0.0202096 -0.0396007 0)
(-0.0194679 -0.0502381 0)
(-0.0164094 -0.0582624 0)
(-0.0103373 -0.0560722 0)
(-0.00232526 -0.0306316 0)
(0.00184602 0.0337008 0)
(0.00289729 0.0603267 0)
(0.00467878 0.0606393 0)
(0.00776871 0.0508519 0)
(0.0115027 0.0392535 0)
(0.0152323 0.0290063 0)
(0.0185448 0.0207857 0)
(0.0212318 0.014327 0)
(0.0232105 0.00913635 0)
(0.0244593 0.0047396 0)
(0.0249769 0.000729324 0)
(0.0247612 -0.00326038 0)
(0.0237987 -0.00760105 0)
(0.0220645 -0.0127216 0)
(0.0195328 -0.0191482 0)
(0.0162113 -0.0274808 0)
(0.0122183 -0.0381638 0)
(0.00792342 -0.0507428 0)
(0.00412205 -0.0621221 0)
(0.0019495 -0.0634089 0)
(0.00146014 -0.0364066 0)
(0.0131044 0.0362744 0)
(0.0356047 0.061482 0)
(0.0535114 0.0577443 0)
(0.0675503 0.0456615 0)
(0.0782817 0.0335828 0)
(0.0863424 0.023867 0)
(0.0923016 0.0165959 0)
(0.0965983 0.0111954 0)
(0.0995467 0.00704801 0)
(0.101355 0.00365199 0)
(0.102142 0.000617002 0)
(0.101952 -0.00238701 0)
(0.100752 -0.00569003 0)
(0.0984162 -0.00968587 0)
(0.0947016 -0.0148969 0)
(0.089197 -0.0220093 0)
(0.0812802 -0.0317635 0)
(0.0701322 -0.0443878 0)
(0.0549808 -0.0578969 0)
(0.0356526 -0.0638305 0)
(0.0128665 -0.0395229 0)
(0.0475717 0.0315658 0)
(0.1138 0.0490165 0)
(0.155582 0.0419877 0)
(0.181296 0.0310479 0)
(0.197692 0.0217715 0)
(0.208418 0.0149364 0)
(0.215586 0.01012 0)
(0.220402 0.00670294 0)
(0.223561 0.00417112 0)
(0.22546 0.00215212 0)
(0.226305 0.000376669 0)
(0.226174 -0.00137184 0)
(0.225025 -0.00330524 0)
(0.222679 -0.00567918 0)
(0.218746 -0.00884802 0)
(0.212471 -0.013321 0)
(0.202462 -0.0197761 0)
(0.186203 -0.0288677 0)
(0.159462 -0.0403667 0)
(0.115262 -0.0494294 0)
(0.0476621 -0.0347014 0)
(0.18226 0.00397779 0)
(0.29379 0.00589241 0)
(0.344198 0.0080235 0)
(0.367332 0.00713782 0)
(0.379737 0.00537429 0)
(0.386931 0.00379436 0)
(0.39138 0.00259727 0)
(0.39422 0.00172398 0)
(0.396024 0.00107069 0)
(0.397089 0.000548885 0)
(0.397563 9.07379e-05 0)
(0.397501 -0.000358778 0)
(0.396878 -0.000851584 0)
(0.395581 -0.00144493 0)
(0.393344 -0.00220572 0)
(0.389611 -0.00320044 0)
(0.383185 -0.00443825 0)
(0.371336 -0.0057038 0)
(0.34781 -0.0061712 0)
(0.294974 -0.00477329 0)
(0.180575 -0.00662894 0)
)
;

boundaryField
{
    movingWall
    {
        type            fixedValue;
        value           uniform (0.5 0 0);
    }
    fixedWalls
    {
        type            noSlip;
    }
    frontAndBack
    {
        type            empty;
    }
}


// ************************************************************************* //
