/*--------------------------------*- C++ -*----------------------------------*\
| =========                 |                                                 |
| \\      /  F ield         | OpenFOAM: The Open Source CFD Toolbox           |
|  \\    /   O peration     | Version:  4.1                                   |
|   \\  /    A nd           | Web:      www.OpenFOAM.org                      |
|    \\/     M anipulation  |                                                 |
\*---------------------------------------------------------------------------*/
FoamFile
{
    version     2.0;
    format      ascii;
    class       volVectorField;
    location    "0.0288";
    object      U;
}
// * * * * * * * * * * * * * * * * * * * * * * * * * * * * * * * * * * * * * //

dimensions      [0 1 -1 0 0 0 0];

internalField   nonuniform List<vector> 
441
(
(-0.000100025 8.12556e-05 0)
(-0.000495308 0.000284035 0)
(-0.00109587 0.00048737 0)
(-0.00185101 0.000628045 0)
(-0.00268763 0.000693367 0)
(-0.00353034 0.000687751 0)
(-0.00431186 0.000621998 0)
(-0.00497722 0.000508817 0)
(-0.0054846 0.000360797 0)
(-0.00580463 0.000189686 0)
(-0.00591945 6.43612e-06 0)
(-0.00582195 -0.000178305 0)
(-0.00551589 -0.000353546 0)
(-0.00501657 -0.000507366 0)
(-0.00435215 -0.000626626 0)
(-0.00356499 -0.000697235 0)
(-0.00271222 -0.000705259 0)
(-0.00186432 -0.000639352 0)
(-0.00110002 -0.000495504 0)
(-0.000494644 -0.000287805 0)
(-9.91717e-05 -8.1457e-05 0)
(-0.000347057 0.000451832 0)
(-0.00153776 0.00135971 0)
(-0.00319709 0.00215116 0)
(-0.00519416 0.00267969 0)
(-0.00735651 0.00291007 0)
(-0.00950727 0.00286063 0)
(-0.0114874 0.00257341 0)
(-0.0131658 0.00209828 0)
(-0.0144421 0.00148495 0)
(-0.0152454 0.000779965 0)
(-0.0155326 2.67801e-05 0)
(-0.015287 -0.000732364 0)
(-0.0145177 -0.00145386 0)
(-0.0132618 -0.0020904 0)
(-0.0115873 -0.00258994 0)
(-0.00959559 -0.00289677 0)
(-0.00742227 -0.00295618 0)
(-0.0052335 -0.00272389 0)
(-0.00321367 -0.00218312 0)
(-0.00154064 -0.00137463 0)
(-0.000346457 -0.000453131 0)
(-0.000615883 0.00106452 0)
(-0.00257674 0.00298253 0)
(-0.00518107 0.00453054 0)
(-0.00822726 0.00552541 0)
(-0.0114701 0.00592998 0)
(-0.0146623 0.00578857 0)
(-0.0175823 0.00518486 0)
(-0.0200472 0.00421601 0)
(-0.0219169 0.00297858 0)
(-0.0230924 0.00156299 0)
(-0.0235137 5.36409e-05 0)
(-0.0231567 -0.00146745 0)
(-0.0220343 -0.00291562 0)
(-0.0201979 -0.00419904 0)
(-0.0177417 -0.00521655 0)
(-0.0148067 -0.00585989 0)
(-0.011582 -0.00602218 0)
(-0.00829909 -0.00561507 0)
(-0.00521632 -0.00459677 0)
(-0.00258749 -0.00301484 0)
(-0.000616866 -0.00106854 0)
(-0.000870996 0.00191409 0)
(-0.00355752 0.00514068 0)
(-0.00703192 0.0076064 0)
(-0.0110202 0.00913317 0)
(-0.0152096 0.0097079 0)
(-0.0192948 0.00941804 0)
(-0.0230068 0.00840175 0)
(-0.0261261 0.00681392 0)
(-0.0284861 0.00480663 0)
(-0.0299696 0.0025213 0)
(-0.0305052 8.93773e-05 0)
(-0.0300642 -0.00236169 0)
(-0.0286599 -0.00470028 0)
(-0.0263516 -0.00678318 0)
(-0.0232493 -0.0084518 0)
(-0.0195201 -0.00953513 0)
(-0.0153906 -0.00986211 0)
(-0.0111432 -0.00928603 0)
(-0.00709875 -0.0077224 0)
(-0.00358295 -0.00520014 0)
(-0.000875235 -0.00192356 0)
(-0.00111562 0.00299371 0)
(-0.00450411 0.00782606 0)
(-0.00881747 0.0113732 0)
(-0.0137046 0.0134938 0)
(-0.0187828 0.0142266 0)
(-0.0236919 0.013724 0)
(-0.0281225 0.0121953 0)
(-0.031828 0.00986512 0)
(-0.0346241 0.00694966 0)
(-0.0363832 0.00364709 0)
(-0.0370272 0.000139767 0)
(-0.0365234 -0.00339645 0)
(-0.0348835 -0.00677969 0)
(-0.0321681 -0.00981056 0)
(-0.0284945 -0.0122657 0)
(-0.0240455 -0.0139007 0)
(-0.0190765 -0.0144657 0)
(-0.0139139 -0.0137368 0)
(-0.00893984 -0.0115637 0)
(-0.0045568 -0.00792918 0)
(-0.00112619 -0.00301386 0)
(-0.00136288 0.00430613 0)
(-0.00546706 0.0110499 0)
(-0.0106341 0.0158482 0)
(-0.0164279 0.0186229 0)
(-0.0223904 0.0194942 0)
(-0.0281051 0.0187056 0)
(-0.0332268 0.0165578 0)
(-0.0374883 0.0133598 0)
(-0.0406957 0.00940093 0)
(-0.0427171 0.00494062 0)
(-0.0434721 0.000213751 0)
(-0.0429248 -0.00455512 0)
(-0.0410824 -0.00913323 0)
(-0.0380008 -0.0132622 0)
(-0.0337959 -0.0166475 0)
(-0.0286576 -0.0189591 0)
(-0.0228622 -0.0198504 0)
(-0.0167774 -0.0189964 0)
(-0.0108497 -0.0161519 0)
(-0.00556717 -0.0112242 0)
(-0.00138477 -0.00434677 0)
(-0.00162686 0.00586817 0)
(-0.00649923 0.0148498 0)
(-0.0125753 0.0210761 0)
(-0.0193211 0.0245608 0)
(-0.026195 0.0255393 0)
(-0.0327234 0.0243778 0)
(-0.0385286 0.0214934 0)
(-0.0433308 0.0172969 0)
(-0.0469349 0.0121598 0)
(-0.0492123 0.00640637 0)
(-0.0500849 0.000323025 0)
(-0.0495146 -0.00581992 0)
(-0.0475009 -0.0117414 0)
(-0.0440882 -0.0171237 0)
(-0.0393813 -0.0215952 0)
(-0.0335666 -0.0247277 0)
(-0.0269328 -0.0260555 0)
(-0.0198847 -0.0251218 0)
(-0.012937 -0.0215509 0)
(-0.00667576 -0.0151388 0)
(-0.00166732 -0.0059461 0)
(-0.00191895 0.00771018 0)
(-0.00764293 0.0192872 0)
(-0.0147108 0.0271237 0)
(-0.0224722 0.0313623 0)
(-0.0302925 0.0323965 0)
(-0.0376411 0.0307549 0)
(-0.0441153 0.0270019 0)
(-0.0494332 0.0216693 0)
(-0.0534103 0.0152209 0)
(-0.0559311 0.00804694 0)
(-0.0569262 0.000481207 0)
(-0.056357 -0.00716721 0)
(-0.054212 -0.0145756 0)
(-0.050516 -0.0213703 0)
(-0.0453504 -0.0270988 0)
(-0.0388834 -0.0312209 0)
(-0.0314028 -0.033126 0)
(-0.0233426 -0.0321873 0)
(-0.015287 -0.0278514 0)
(-0.00793438 -0.0197554 0)
(-0.00198776 -0.00785201 0)
(-0.00224538 0.00987315 0)
(-0.0089204 0.0244385 0)
(-0.0170688 0.0340652 0)
(-0.0259002 0.039077 0)
(-0.034678 0.0400838 0)
(-0.0428188 0.0378271 0)
(-0.0499081 0.0330556 0)
(-0.0556791 0.0264449 0)
(-0.059974 0.0185597 0)
(-0.0627044 0.00985462 0)
(-0.0638183 0.000702211 0)
(-0.0632797 -0.00856196 0)
(-0.061063 -0.0175858 0)
(-0.0571636 -0.0259481 0)
(-0.0516238 -0.0331158 0)
(-0.0445734 -0.0384237 0)
(-0.0362781 -0.0410872 0)
(-0.0271846 -0.040262 0)
(-0.017942 -0.0351546 0)
(-0.00937463 -0.0251766 0)
(-0.0023549 -0.0101183 0)
(-0.00260456 0.0124038 0)
(-0.0103236 0.0303816 0)
(-0.0196163 0.0419596 0)
(-0.0295244 0.0477209 0)
(-0.039204 0.0485704 0)
(-0.048032 0.0455275 0)
(-0.0556048 0.0395704 0)
(-0.0616956 0.0315419 0)
(-0.0661966 0.0221142 0)
(-0.0690641 0.0118005 0)
(-0.0702755 0.000997374 0)
(-0.0698026 -0.00995208 0)
(-0.0676033 -0.0206859 0)
(-0.0636328 -0.0307509 0)
(-0.0578754 -0.0395403 0)
(-0.0503953 -0.0462554 0)
(-0.0414043 -0.0499067 0)
(-0.0313325 -0.0493752 0)
(-0.0208768 -0.0435456 0)
(-0.0109959 -0.031509 0)
(-0.0027695 -0.0128071 0)
(-0.0029835 0.0153475 0)
(-0.0118004 0.0371743 0)
(-0.0222315 0.0508177 0)
(-0.0331223 0.0572342 0)
(-0.0435261 0.0577318 0)
(-0.0528069 0.0536905 0)
(-0.060608 0.0463684 0)
(-0.0667781 0.036799 0)
(-0.0712891 0.0257639 0)
(-0.0741641 0.0138216 0)
(-0.0754243 0.00137104 0)
(-0.0750563 -0.0112636 0)
(-0.073001 -0.0237385 0)
(-0.0691638 -0.0355938 0)
(-0.0634497 -0.0461661 0)
(-0.0558242 -0.0545228 0)
(-0.0464012 -0.0594424 0)
(-0.0355458 -0.0594667 0)
(-0.0239662 -0.0530534 0)
(-0.012749 -0.0388383 0)
(-0.00322006 -0.0159816 0)
(-0.0033523 0.018739 0)
(-0.0132346 0.0448256 0)
(-0.0246662 0.0605561 0)
(-0.0362743 0.0674268 0)
(-0.0470323 0.0672947 0)
(-0.0563406 0.0620004 0)
(-0.0639423 0.0531366 0)
(-0.0698078 0.0419442 0)
(-0.074023 0.0293069 0)
(-0.0767016 0.0158065 0)
(-0.0779239 0.00181455 0)
(-0.0777004 -0.012398 0)
(-0.075957 -0.026542 0)
(-0.0725433 -0.0401877 0)
(-0.0672665 -0.0526455 0)
(-0.0599575 -0.062865 0)
(-0.0505762 -0.0693768 0)
(-0.0393525 -0.0703186 0)
(-0.0269375 -0.0635927 0)
(-0.0145114 -0.0471931 0)
(-0.00367643 -0.0196939 0)
(-0.00365522 0.0225884 0)
(-0.0144141 0.0532559 0)
(-0.0264884 0.0709358 0)
(-0.0382834 0.0779078 0)
(-0.0487505 0.0767692 0)
(-0.0574055 0.0699369 0)
(-0.0641637 0.0593855 0)
(-0.0691703 0.046566 0)
(-0.0726592 0.0324414 0)
(-0.0748545 0.0175837 0)
(-0.0759077 0.0022993 0)
(-0.0758617 -0.013234 0)
(-0.0746344 -0.0288251 0)
(-0.0720219 -0.044121 0)
(-0.0677242 -0.0584546 0)
(-0.0614075 -0.0706967 0)
(-0.052817 -0.0791404 0)
(-0.0419538 -0.0814687 0)
(-0.0293011 -0.074885 0)
(-0.0160494 -0.0564923 0)
(-0.00407952 -0.0239687 0)
(-0.00379494 0.0268631 0)
(-0.0149759 0.0622409 0)
(-0.0269892 0.08148 0)
(-0.0380579 0.087998 0)
(-0.0472239 0.0853761 0)
(-0.054236 0.0767234 0)
(-0.0592686 0.0644197 0)
(-0.0626915 0.0500994 0)
(-0.0649081 0.0347601 0)
(-0.0662591 0.0189174 0)
(-0.0669691 0.00277055 0)
(-0.0671187 -0.0136364 0)
(-0.06663 -0.0302541 0)
(-0.0652609 -0.0468603 0)
(-0.0626159 -0.0628755 0)
(-0.0581872 -0.0771632 0)
(-0.0514566 -0.0878335 0)
(-0.0420899 -0.0921071 0)
(-0.0302429 -0.0863538 0)
(-0.0169545 -0.0664717 0)
(-0.00432382 -0.0287784 0)
(-0.00360139 0.0314585 0)
(-0.0143004 0.0713307 0)
(-0.0250178 0.0913628 0)
(-0.0339208 0.0966289 0)
(-0.0403347 0.0919797 0)
(-0.0443932 0.0812989 0)
(-0.0466114 0.0673386 0)
(-0.047607 0.0518426 0)
(-0.0479428 0.0357688 0)
(-0.0480543 0.0195193 0)
(-0.0482221 0.00314533 0)
(-0.048562 -0.013474 0)
(-0.0490159 -0.0304652 0)
(-0.0493379 -0.047786 0)
(-0.0490805 -0.0650214 0)
(-0.0475979 -0.0811338 0)
(-0.0441032 -0.0941701 0)
(-0.037841 -0.100967 0)
(-0.0284439 -0.0969892 0)
(-0.0165279 -0.0765772 0)
(-0.00422425 -0.0340058 0)
(-0.00276383 0.0361461 0)
(-0.0112887 0.0797209 0)
(-0.0186655 0.0992599 0)
(-0.0232874 0.102238 0)
(-0.0250451 0.0950546 0)
(-0.024603 0.0823455 0)
(-0.0228435 0.0670997 0)
(-0.0205888 0.051029 0)
(-0.0184926 0.0349485 0)
(-0.0170206 0.0190865 0)
(-0.0164649 0.0033194 0)
(-0.0169601 -0.0126477 0)
(-0.018485 -0.0291261 0)
(-0.0208424 -0.0462818 0)
(-0.023619 -0.0639337 0)
(-0.0261356 -0.0812752 0)
(-0.027426 -0.0964865 0)
(-0.0263182 -0.106238 0)
(-0.0217549 -0.105184 0)
(-0.0135469 -0.0858056 0)
(-0.00344678 -0.0393802 0)
(-0.00066108 0.0404594 0)
(-0.00385718 0.08602 0)
(-0.00463481 0.103142 0)
(-0.00210778 0.102695 0)
(0.00298167 0.0927427 0)
(0.00942465 0.0784272 0)
(0.0160978 0.062684 0)
(0.0221395 0.0469818 0)
(0.0269555 0.0318757 0)
(0.0301642 0.0173766 0)
(0.0315355 0.00318967 0)
(0.0309479 -0.0111257 0)
(0.0283741 -0.0260325 0)
(0.0239001 -0.0418902 0)
(0.0177832 -0.0587846 0)
(0.0105479 -0.0762612 0)
(0.00310324 -0.0928886 0)
(-0.00317867 -0.105567 0)
(-0.00658589 -0.10855 0)
(-0.00575654 -0.0924441 0)
(-0.0013385 -0.0443474 0)
(0.00412835 0.0434566 0)
(0.0122819 0.0878635 0)
(0.0230397 0.100064 0)
(0.0360672 0.0953726 0)
(0.0498825 0.083126 0)
(0.0631375 0.0683315 0)
(0.0748835 0.0534176 0)
(0.0845454 0.0393729 0)
(0.0918145 0.0264079 0)
(0.0965378 0.0143205 0)
(0.0986325 0.0026967 0)
(0.0980314 -0.00897487 0)
(0.0946595 -0.0212256 0)
(0.0884444 -0.034532 0)
(0.0793652 -0.0492051 0)
(0.0675542 -0.065189 0)
(0.0534655 -0.0816691 0)
(0.0381087 -0.0963079 0)
(0.0232678 -0.103828 0)
(0.0113219 -0.0936896 0)
(0.00356399 -0.0478077 0)
(0.0157372 0.0428707 0)
(0.0467115 0.0808827 0)
(0.0754573 0.0859442 0)
(0.101427 0.0775796 0)
(0.124041 0.06489 0)
(0.14304 0.0516981 0)
(0.158416 0.0394637 0)
(0.170297 0.0285691 0)
(0.178877 0.0189086 0)
(0.184334 0.0101551 0)
(0.186785 0.00188291 0)
(0.186244 -0.00637452 0)
(0.182611 -0.0150939 0)
(0.175659 -0.024735 0)
(0.165046 -0.0356953 0)
(0.150347 -0.0482094 0)
(0.131138 -0.0621098 0)
(0.107174 -0.0762376 0)
(0.0787702 -0.0869979 0)
(0.0473445 -0.0847815 0)
(0.0154469 -0.0472736 0)
(0.0495214 0.0347863 0)
(0.122525 0.0592031 0)
(0.173381 0.0572598 0)
(0.209311 0.048508 0)
(0.235902 0.038896 0)
(0.255905 0.03008 0)
(0.270914 0.0224635 0)
(0.28192 0.0159897 0)
(0.289588 0.0104354 0)
(0.29436 0.00551853 0)
(0.296492 0.000939405 0)
(0.296072 -0.00360495 0)
(0.293006 -0.00841658 0)
(0.28701 -0.0137941 0)
(0.277563 -0.0200258 0)
(0.263827 -0.027368 0)
(0.24449 -0.0359844 0)
(0.217451 -0.0457464 0)
(0.179406 -0.0555446 0)
(0.124846 -0.0600191 0)
(0.0496307 -0.038413 0)
(0.182875 0.00467127 0)
(0.296808 0.00830554 0)
(0.350802 0.0118371 0)
(0.378234 0.0115793 0)
(0.39503 0.00975529 0)
(0.406225 0.0076679 0)
(0.41402 0.00574288 0)
(0.419457 0.00407403 0)
(0.423113 0.00263589 0)
(0.425328 0.00136405 0)
(0.426288 0.000182796 0)
(0.426064 -0.000984925 0)
(0.424618 -0.00221292 0)
(0.421788 -0.0035664 0)
(0.41725 -0.00508979 0)
(0.410399 -0.00677686 0)
(0.400067 -0.00849634 0)
(0.383702 -0.00982795 0)
(0.355465 -0.00973216 0)
(0.298411 -0.00706886 0)
(0.181151 -0.00731047 0)
)
;

boundaryField
{
    movingWall
    {
        type            fixedValue;
        value           uniform (0.5 0 0);
    }
    fixedWalls
    {
        type            noSlip;
    }
    frontAndBack
    {
        type            empty;
    }
}


// ************************************************************************* //
