/*--------------------------------*- C++ -*----------------------------------*\
| =========                 |                                                 |
| \\      /  F ield         | OpenFOAM: The Open Source CFD Toolbox           |
|  \\    /   O peration     | Version:  4.1                                   |
|   \\  /    A nd           | Web:      www.OpenFOAM.org                      |
|    \\/     M anipulation  |                                                 |
\*---------------------------------------------------------------------------*/
FoamFile
{
    version     2.0;
    format      ascii;
    class       volScalarField;
    location    "1080";
    object      p;
}
// * * * * * * * * * * * * * * * * * * * * * * * * * * * * * * * * * * * * * //

dimensions      [1 -1 -2 0 0 0 0];

internalField   nonuniform List<scalar> 
1275
(
0.712301
0.712253
0.712247
0.712204
0.712191
0.712147
0.712131
0.71208
0.712064
0.711996
0.712314
0.712262
0.712256
0.712211
0.712201
0.712156
0.712144
0.712097
0.712089
0.712042
0.712332
0.712278
0.712273
0.712226
0.712216
0.712173
0.71216
0.712118
0.712106
0.712067
0.712352
0.712297
0.712293
0.712245
0.712237
0.712195
0.712185
0.712146
0.712138
0.712105
0.712373
0.712317
0.712313
0.712266
0.712258
0.712218
0.712208
0.712172
0.712162
0.712132
0.712389
0.712334
0.71233
0.712285
0.712278
0.712239
0.712229
0.712196
0.712186
0.712158
0.712398
0.712346
0.712341
0.712298
0.71229
0.712253
0.712243
0.712211
0.7122
0.712174
0.712401
0.712352
0.712347
0.712307
0.712297
0.712262
0.712251
0.712221
0.712209
0.712183
0.712395
0.712352
0.712346
0.712308
0.712298
0.712264
0.712252
0.712222
0.712209
0.712184
0.712132
0.71214
0.712148
0.712156
0.712166
0.712176
0.712186
0.712198
0.71221
0.712223
0.712238
0.712254
0.712271
0.71229
0.712311
0.712334
0.712359
0.712387
0.712417
0.71245
0.712486
0.712525
0.712566
0.71261
0.712655
0.712701
0.712749
0.712796
0.712842
0.712887
0.71293
0.712969
0.713005
0.713037
0.713065
0.713088
0.713107
0.713121
0.713132
0.713139
0.713143
0.713145
0.713146
0.713144
0.713142
0.713139
0.713136
0.713133
0.71313
0.713127
0.713125
0.713123
0.713121
0.71312
0.71312
0.71312
0.71312
0.713121
0.713122
0.713123
0.713125
0.713127
0.713129
0.713132
0.713135
0.713138
0.713142
0.713146
0.71315
0.713154
0.713159
0.713164
0.713169
0.713175
0.713181
0.713187
0.713194
0.713201
0.711971
0.712023
0.712016
0.712038
0.712033
0.712041
0.712038
0.712041
0.712039
0.71204
0.712039
0.71204
0.712039
0.712039
0.712039
0.71204
0.71204
0.712041
0.712041
0.712042
0.712043
0.712045
0.712046
0.712048
0.71205
0.712053
0.712055
0.712058
0.712061
0.712064
0.712067
0.712071
0.712075
0.712079
0.712084
0.712089
0.712094
0.7121
0.712106
0.712112
0.712119
0.712127
0.712134
0.712143
0.712151
0.712163
0.712171
0.712183
0.712194
0.712206
0.712219
0.712233
0.712248
0.712265
0.712282
0.7123
0.71232
0.712341
0.712364
0.712389
0.712415
0.712443
0.712473
0.712505
0.712539
0.712574
0.712611
0.71265
0.712689
0.712729
0.712769
0.712808
0.712846
0.712882
0.712916
0.712947
0.712975
0.713
0.713021
0.713038
0.713053
0.713064
0.713073
0.713079
0.713083
0.713085
0.713086
0.713087
0.713086
0.713086
0.713086
0.713085
0.713086
0.713086
0.713087
0.713088
0.713089
0.71309
0.713092
0.713094
0.713096
0.713098
0.7131
0.713103
0.713106
0.713108
0.713112
0.713115
0.713118
0.713122
0.713126
0.71313
0.713134
0.713139
0.713143
0.713148
0.713154
0.713159
0.713165
0.713171
0.713178
0.713184
0.713191
0.712046
0.71205
0.712044
0.712049
0.712043
0.712046
0.712041
0.712043
0.71204
0.712041
0.712039
0.71204
0.712039
0.71204
0.71204
0.712041
0.712042
0.712043
0.712044
0.712046
0.712048
0.71205
0.712052
0.712055
0.712058
0.712061
0.712064
0.712068
0.712072
0.712076
0.712081
0.712086
0.712091
0.712097
0.712103
0.71211
0.712117
0.712124
0.712133
0.712141
0.71215
0.71216
0.712171
0.712182
0.712194
0.712206
0.71222
0.712234
0.712249
0.712265
0.712282
0.7123
0.712319
0.712339
0.71236
0.712382
0.712406
0.71243
0.712456
0.712483
0.712511
0.712541
0.712571
0.712603
0.712636
0.712669
0.712703
0.712737
0.71277
0.712803
0.712834
0.712864
0.712893
0.712919
0.712943
0.712964
0.712983
0.712999
0.713012
0.713023
0.713032
0.713038
0.713043
0.713046
0.713049
0.713052
0.713055
0.713057
0.713059
0.713061
0.713063
0.713065
0.713067
0.713069
0.713071
0.713073
0.713076
0.713078
0.713081
0.713084
0.713087
0.71309
0.713093
0.713096
0.713099
0.713103
0.713106
0.71311
0.713113
0.713117
0.713121
0.713126
0.71313
0.713135
0.713139
0.713144
0.71315
0.713155
0.713161
0.713167
0.713173
0.71318
0.713187
0.712056
0.712056
0.71205
0.712056
0.712051
0.712054
0.71205
0.712052
0.712049
0.71205
0.712048
0.712048
0.712047
0.712047
0.712047
0.712048
0.712049
0.71205
0.712052
0.712054
0.712056
0.712058
0.712061
0.712065
0.712068
0.712072
0.712077
0.712082
0.712087
0.712092
0.712099
0.712105
0.712112
0.71212
0.712128
0.712137
0.712146
0.712156
0.712166
0.712178
0.71219
0.712203
0.712216
0.71223
0.712245
0.712261
0.712278
0.712296
0.712314
0.712334
0.712354
0.712376
0.712398
0.712421
0.712445
0.71247
0.712496
0.712523
0.71255
0.712578
0.712607
0.712636
0.712665
0.712694
0.712724
0.712753
0.712781
0.712809
0.712836
0.712862
0.712886
0.712909
0.712929
0.712947
0.712963
0.712977
0.712988
0.712998
0.713006
0.713013
0.71302
0.713026
0.713031
0.713035
0.713039
0.713042
0.713044
0.713047
0.713049
0.713052
0.713055
0.713058
0.713061
0.713064
0.713067
0.71307
0.713073
0.713076
0.713079
0.713082
0.713085
0.713088
0.713091
0.713095
0.713098
0.713101
0.713105
0.713108
0.713112
0.713116
0.71312
0.713124
0.713128
0.713133
0.713138
0.713143
0.713148
0.713154
0.713159
0.713165
0.713172
0.713178
0.713185
0.712102
0.712089
0.712084
0.712079
0.712073
0.712069
0.712064
0.712062
0.712058
0.712056
0.712054
0.712053
0.712052
0.712052
0.712052
0.712053
0.712054
0.712056
0.712058
0.712061
0.712064
0.712067
0.712071
0.712076
0.71208
0.712086
0.712091
0.712098
0.712104
0.712112
0.71212
0.712128
0.712137
0.712146
0.712157
0.712168
0.712179
0.712192
0.712205
0.712219
0.712233
0.712249
0.712265
0.712282
0.7123
0.712319
0.712339
0.71236
0.712381
0.712404
0.712427
0.712451
0.712475
0.712501
0.712527
0.712553
0.712579
0.712607
0.712634
0.712661
0.712688
0.712716
0.712742
0.712769
0.712794
0.712819
0.712842
0.712864
0.712884
0.712903
0.71292
0.712935
0.712949
0.712962
0.712973
0.712983
0.712992
0.713
0.713007
0.713013
0.713017
0.713021
0.713025
0.713028
0.713032
0.713036
0.71304
0.713044
0.713048
0.713052
0.713055
0.713058
0.713061
0.713064
0.713067
0.71307
0.713073
0.713076
0.713079
0.713082
0.713085
0.713088
0.713091
0.713094
0.713098
0.713101
0.713104
0.713108
0.713112
0.713116
0.71312
0.713124
0.713129
0.713133
0.713138
0.713143
0.713148
0.713154
0.713159
0.713166
0.713172
0.713178
0.713185
0.712123
0.712106
0.7121
0.71209
0.712085
0.712079
0.712074
0.71207
0.712066
0.712064
0.712061
0.71206
0.712059
0.712058
0.712059
0.712059
0.712061
0.712063
0.712065
0.712068
0.712072
0.712076
0.712081
0.712086
0.712092
0.712098
0.712105
0.712113
0.712121
0.712129
0.712139
0.712149
0.712159
0.71217
0.712183
0.712195
0.712209
0.712223
0.712238
0.712254
0.712271
0.712289
0.712308
0.712327
0.712347
0.712368
0.71239
0.712413
0.712437
0.712461
0.712485
0.712511
0.712537
0.712563
0.712589
0.712616
0.712642
0.712668
0.712694
0.71272
0.712745
0.712769
0.712792
0.712815
0.712836
0.712855
0.712874
0.712891
0.712907
0.712922
0.712936
0.712949
0.71296
0.712969
0.712978
0.712985
0.712991
0.712996
0.713002
0.713007
0.713013
0.713018
0.713024
0.713029
0.713033
0.713037
0.713041
0.713045
0.713048
0.713051
0.713054
0.713057
0.71306
0.713064
0.713067
0.71307
0.713073
0.713076
0.713079
0.713082
0.713085
0.713088
0.713091
0.713095
0.713098
0.713101
0.713105
0.713108
0.713112
0.713116
0.71312
0.713124
0.713129
0.713133
0.713138
0.713143
0.713149
0.713154
0.71316
0.713166
0.713172
0.713179
0.713186
0.71215
0.712131
0.712123
0.71211
0.712102
0.712093
0.712087
0.71208
0.712075
0.71207
0.712068
0.712065
0.712064
0.712063
0.712063
0.712064
0.712066
0.712068
0.712071
0.712075
0.712079
0.712084
0.712089
0.712095
0.712102
0.712109
0.712117
0.712125
0.712134
0.712144
0.712155
0.712166
0.712178
0.71219
0.712204
0.712218
0.712233
0.712249
0.712266
0.712283
0.712302
0.712321
0.712341
0.712362
0.712383
0.712406
0.712429
0.712453
0.712477
0.712502
0.712527
0.712553
0.712578
0.712604
0.71263
0.712655
0.71268
0.712705
0.712729
0.712752
0.712775
0.712796
0.712817
0.712837
0.712856
0.712873
0.712889
0.712903
0.712916
0.712928
0.712939
0.712948
0.712957
0.712965
0.712973
0.712982
0.712989
0.712997
0.713003
0.713009
0.713015
0.713019
0.713024
0.713028
0.713032
0.713036
0.713039
0.713043
0.713047
0.713051
0.713054
0.713058
0.713061
0.713064
0.713067
0.71307
0.713073
0.713076
0.713079
0.713082
0.713085
0.713088
0.713091
0.713095
0.713098
0.713102
0.713105
0.713109
0.713113
0.713117
0.713121
0.713125
0.713129
0.713134
0.713139
0.713144
0.713149
0.713155
0.713161
0.713167
0.713173
0.71318
0.713186
0.712163
0.712142
0.712133
0.712117
0.712109
0.712098
0.712091
0.712083
0.712078
0.712073
0.71207
0.712067
0.712066
0.712065
0.712065
0.712066
0.712068
0.71207
0.712073
0.712077
0.712082
0.712087
0.712093
0.712099
0.712107
0.712114
0.712123
0.712132
0.712142
0.712152
0.712163
0.712175
0.712188
0.712201
0.712215
0.71223
0.712246
0.712262
0.71228
0.712298
0.712317
0.712336
0.712357
0.712378
0.7124
0.712423
0.712446
0.71247
0.712495
0.712519
0.712544
0.712569
0.712595
0.71262
0.712645
0.712669
0.712693
0.712717
0.71274
0.712762
0.712783
0.712803
0.712822
0.712839
0.712856
0.712871
0.712885
0.712899
0.712912
0.712924
0.712936
0.712947
0.712957
0.712966
0.712975
0.712982
0.712989
0.712995
0.713001
0.713007
0.713012
0.713017
0.713022
0.713027
0.713032
0.713036
0.71304
0.713043
0.713047
0.71305
0.713054
0.713057
0.71306
0.713063
0.713066
0.71307
0.713073
0.713076
0.713079
0.713082
0.713085
0.713088
0.713091
0.713095
0.713098
0.713102
0.713105
0.713109
0.713113
0.713117
0.713121
0.713125
0.71313
0.713134
0.713139
0.713144
0.713149
0.713155
0.713161
0.713167
0.713173
0.71318
0.713187
0.712171
0.71215
0.71214
0.712124
0.712115
0.712102
0.712095
0.712086
0.712081
0.712075
0.712072
0.712069
0.712067
0.712066
0.712067
0.712067
0.712069
0.712072
0.712075
0.712079
0.712084
0.712089
0.712095
0.712102
0.712109
0.712117
0.712126
0.712135
0.712145
0.712156
0.712168
0.71218
0.712193
0.712206
0.712221
0.712236
0.712252
0.712268
0.712286
0.712304
0.712323
0.712343
0.712364
0.712385
0.712407
0.71243
0.712453
0.712477
0.712501
0.712525
0.71255
0.712574
0.712599
0.712623
0.712647
0.712671
0.712694
0.712717
0.712739
0.71276
0.712781
0.7128
0.712819
0.712838
0.712855
0.712871
0.712886
0.7129
0.712913
0.712925
0.712936
0.712946
0.712955
0.712964
0.712972
0.71298
0.712988
0.712995
0.713001
0.713007
0.713013
0.713018
0.713022
0.713027
0.713031
0.713035
0.713039
0.713043
0.713047
0.71305
0.713054
0.713057
0.71306
0.713063
0.713067
0.71307
0.713073
0.713076
0.713079
0.713082
0.713085
0.713088
0.713091
0.713095
0.713098
0.713102
0.713105
0.713109
0.713113
0.713117
0.713121
0.713125
0.71313
0.713134
0.713139
0.713144
0.71315
0.713155
0.713161
0.713167
0.713174
0.71318
0.713187
0.712171
0.71215
0.712139
0.712123
0.712113
0.712101
0.712093
0.712084
0.712079
0.712073
0.71207
0.712066
0.712065
0.712064
0.712064
0.712065
0.712067
0.71207
0.712073
0.712077
0.712082
0.712087
0.712093
0.7121
0.712107
0.712115
0.712124
0.712133
0.712143
0.712154
0.712165
0.712177
0.71219
0.712204
0.712218
0.712233
0.712249
0.712265
0.712283
0.712301
0.71232
0.71234
0.71236
0.712381
0.712403
0.712425
0.712448
0.712472
0.712496
0.71252
0.712544
0.712569
0.712594
0.712618
0.712642
0.712666
0.71269
0.712713
0.712735
0.712757
0.712778
0.712798
0.712817
0.712835
0.712852
0.712867
0.712882
0.712896
0.712909
0.712922
0.712933
0.712944
0.712954
0.712963
0.712972
0.71298
0.712987
0.712994
0.713
0.713006
0.713012
0.713017
0.713022
0.713026
0.713031
0.713035
0.713039
0.713043
0.713046
0.71305
0.713053
0.713057
0.71306
0.713063
0.713066
0.713069
0.713072
0.713075
0.713078
0.713082
0.713085
0.713088
0.713091
0.713094
0.713098
0.713101
0.713105
0.713109
0.713112
0.713116
0.71312
0.713125
0.713129
0.713134
0.713139
0.713144
0.713149
0.713155
0.713161
0.713167
0.713173
0.71318
0.713187
)
;

boundaryField
{
    inlet
    {
        type            zeroGradient;
    }
    outlet
    {
        type            fixedValue;
        value           nonuniform 0();
    }
    walls
    {
        type            zeroGradient;
    }
    symwall
    {
        type            empty;
    }
    procBoundary2to0
    {
        type            processor;
        value           nonuniform List<scalar> 
133
(
0.712116
0.712122
0.712128
0.712135
0.712142
0.712149
0.712157
0.712166
0.712175
0.712186
0.712197
0.712209
0.712223
0.712238
0.712255
0.712274
0.712296
0.71232
0.712348
0.712379
0.712413
0.712451
0.712493
0.712539
0.712588
0.712639
0.712693
0.712748
0.712804
0.712859
0.712913
0.712965
0.713013
0.713057
0.713097
0.713132
0.713161
0.713185
0.713204
0.713218
0.713228
0.713233
0.713235
0.713234
0.713231
0.713226
0.71322
0.713214
0.713207
0.713201
0.713194
0.713188
0.713182
0.713177
0.713173
0.713169
0.713166
0.713163
0.713161
0.71316
0.713159
0.713159
0.713159
0.71316
0.713161
0.713163
0.713165
0.713167
0.71317
0.713174
0.713178
0.713182
0.713187
0.713192
0.713198
0.713204
0.713211
0.712292
0.71225
0.712243
0.712202
0.712189
0.712146
0.71213
0.712079
0.712069
0.711995
0.712012
0.712039
0.712033
0.712038
0.712032
0.712035
0.712032
0.712034
0.712032
0.712033
0.712032
0.712033
0.712033
0.712034
0.712034
0.712035
0.712036
0.712037
0.712037
0.712039
0.71204
0.712041
0.712043
0.712044
0.712046
0.712048
0.71205
0.712052
0.712055
0.712057
0.71206
0.712063
0.712066
0.71207
0.712073
0.712077
0.712081
0.712086
0.71209
0.712095
0.712101
0.712106
0.712112
0.712118
0.712125
0.712125
)
;
    }
    procBoundary2to1
    {
        type            processor;
        value           uniform 0.713218;
    }
    procBoundary2to3
    {
        type            processor;
        value           nonuniform List<scalar> 10(0.713209 0.713199 0.713194 0.713192 0.713192 0.713193 0.713194 0.713194 0.713195 0.713194);
    }
}


// ************************************************************************* //
