/*--------------------------------*- C++ -*----------------------------------*\
| =========                 |                                                 |
| \\      /  F ield         | OpenFOAM: The Open Source CFD Toolbox           |
|  \\    /   O peration     | Version:  4.1                                   |
|   \\  /    A nd           | Web:      www.OpenFOAM.org                      |
|    \\/     M anipulation  |                                                 |
\*---------------------------------------------------------------------------*/
FoamFile
{
    version     2.0;
    format      ascii;
    class       volScalarField;
    location    "450";
    object      p;
}
// * * * * * * * * * * * * * * * * * * * * * * * * * * * * * * * * * * * * * //

dimensions      [1 -1 -2 0 0 0 0];

internalField   nonuniform List<scalar> 
1275
(
0.714285
0.714286
0.714287
0.714289
0.714285
0.713649
0.713681
0.7137
0.713714
0.713719
0.713718
0.71371
0.713697
0.71368
0.713661
0.713639
0.713617
0.713595
0.713574
0.713556
0.713541
0.713531
0.713525
0.713523
0.713525
0.713529
0.713534
0.713539
0.713544
0.713547
0.713549
0.71355
0.713549
0.713547
0.713546
0.713546
0.713547
0.71355
0.713555
0.713563
0.713574
0.713588
0.713606
0.713629
0.713656
0.713687
0.713723
0.713761
0.7138
0.713838
0.713872
0.713896
0.713909
0.713904
0.713881
0.713838
0.713777
0.713701
0.713616
0.71353
0.713451
0.713388
0.713347
0.713333
0.713347
0.713388
0.713453
0.713534
0.713624
0.713715
0.7138
0.713872
0.713928
0.713964
0.713983
0.713984
0.713972
0.713952
0.713927
0.713903
0.713883
0.713871
0.713869
0.713878
0.713899
0.713931
0.713972
0.714021
0.714075
0.714131
0.714187
0.714239
0.714283
0.714316
0.714334
0.714334
0.714313
0.714272
0.714211
0.714135
0.714049
0.713956
0.713862
0.713769
0.713684
0.71361
0.713552
0.713515
0.713504
0.713521
0.713567
0.713638
0.713725
0.713818
0.71391
0.713991
0.714057
0.714108
0.714145
0.71417
0.714187
0.7142
0.714211
0.714223
0.714235
0.714248
0.714262
0.714274
0.714286
0.714289
0.714296
0.714287
0.713702
0.713745
0.713778
0.713802
0.713815
0.713821
0.713818
0.713809
0.713793
0.713774
0.713751
0.713726
0.713701
0.713677
0.713655
0.713636
0.713621
0.713609
0.713602
0.713597
0.713596
0.713596
0.713598
0.7136
0.713602
0.713603
0.713604
0.713604
0.713605
0.713606
0.713608
0.713612
0.713618
0.713626
0.713638
0.713653
0.713671
0.713694
0.71372
0.71375
0.713784
0.71382
0.713856
0.713892
0.713923
0.713946
0.713956
0.713951
0.713928
0.713884
0.71382
0.713739
0.713644
0.713544
0.713445
0.713356
0.713285
0.713241
0.713227
0.713245
0.713293
0.713368
0.713462
0.713565
0.713668
0.713763
0.713844
0.713905
0.713946
0.713965
0.713965
0.713948
0.71392
0.713887
0.713854
0.713826
0.713808
0.713802
0.713809
0.71383
0.713864
0.713909
0.713963
0.714023
0.714086
0.71415
0.714212
0.714267
0.714313
0.714346
0.714363
0.714361
0.714338
0.714295
0.714235
0.71416
0.714077
0.71399
0.713905
0.713826
0.713758
0.713706
0.713673
0.713663
0.713677
0.713713
0.713765
0.713828
0.713892
0.713952
0.714002
0.714041
0.71407
0.71409
0.714105
0.714118
0.714133
0.71415
0.71417
0.714194
0.714217
0.714244
0.714262
0.714285
0.71429
0.714303
0.714288
0.713757
0.713814
0.713861
0.713898
0.713923
0.713938
0.713943
0.71394
0.713929
0.713912
0.713889
0.713864
0.713837
0.71381
0.713784
0.71376
0.713739
0.713721
0.713707
0.713696
0.713688
0.713682
0.713678
0.713675
0.713673
0.713672
0.713671
0.713672
0.713673
0.713676
0.713682
0.713689
0.713699
0.713712
0.713727
0.713746
0.713768
0.713794
0.713822
0.713854
0.713888
0.713923
0.713957
0.713986
0.714009
0.714021
0.714021
0.714003
0.713965
0.713907
0.713831
0.71374
0.713637
0.713528
0.713423
0.713328
0.713253
0.713206
0.713191
0.713209
0.713257
0.713333
0.713429
0.713536
0.713644
0.713744
0.713829
0.713893
0.713933
0.713949
0.713944
0.713921
0.713886
0.713846
0.713807
0.713774
0.713752
0.713744
0.713751
0.713774
0.713812
0.713862
0.713922
0.71399
0.714061
0.714134
0.714204
0.71427
0.714329
0.714376
0.714409
0.714425
0.714423
0.714402
0.714363
0.714307
0.714241
0.714168
0.714094
0.714024
0.713963
0.713916
0.713884
0.71387
0.713873
0.713891
0.713919
0.713951
0.713981
0.714006
0.714024
0.714036
0.714042
0.714047
0.714053
0.714064
0.71408
0.714102
0.714129
0.714162
0.714193
0.714229
0.714254
0.714284
0.71429
0.714308
0.714288
0.713813
0.713884
0.713944
0.713993
0.71403
0.714057
0.714071
0.714075
0.71407
0.714057
0.714037
0.714013
0.713985
0.713956
0.713926
0.713898
0.71387
0.713846
0.713824
0.713806
0.71379
0.713777
0.713767
0.713758
0.713752
0.713748
0.713745
0.713745
0.713747
0.713751
0.713758
0.713768
0.71378
0.713796
0.713814
0.713836
0.713861
0.713889
0.713918
0.713949
0.713981
0.714012
0.71404
0.714065
0.714082
0.714086
0.714075
0.714048
0.714004
0.713942
0.713861
0.713764
0.713657
0.713547
0.713441
0.713346
0.71327
0.713222
0.713205
0.71322
0.713267
0.71334
0.713433
0.713537
0.713641
0.713736
0.713816
0.713876
0.713913
0.713927
0.713918
0.713891
0.713852
0.713807
0.713763
0.713726
0.713702
0.713694
0.713703
0.713731
0.713774
0.713831
0.713899
0.713975
0.714056
0.714137
0.714217
0.714293
0.714362
0.714422
0.714469
0.714502
0.714519
0.714519
0.714501
0.714468
0.714421
0.714365
0.714305
0.714246
0.714191
0.714146
0.714111
0.714088
0.714076
0.714071
0.714071
0.714071
0.714068
0.714061
0.71405
0.714038
0.714027
0.71402
0.71402
0.714028
0.714045
0.714071
0.714102
0.714141
0.714176
0.714218
0.714246
0.714282
0.714288
0.714309
0.714285
0.713864
0.713945
0.714016
0.714077
0.714125
0.714161
0.714184
0.714197
0.714198
0.71419
0.714173
0.714151
0.714123
0.714092
0.71406
0.714027
0.713995
0.713965
0.713937
0.713911
0.713889
0.713869
0.713853
0.713839
0.713828
0.713821
0.713816
0.713814
0.713816
0.713822
0.71383
0.713843
0.713858
0.713875
0.713895
0.713917
0.713941
0.713967
0.713994
0.714022
0.714052
0.71408
0.714105
0.714121
0.714128
0.714127
0.714114
0.714084
0.714033
0.713965
0.713883
0.713789
0.713687
0.713582
0.713481
0.713391
0.713319
0.713273
0.713256
0.713269
0.71331
0.713376
0.713459
0.713552
0.713646
0.713733
0.713807
0.713861
0.713893
0.713901
0.713889
0.713858
0.713815
0.713767
0.713722
0.713685
0.713662
0.713656
0.71367
0.713703
0.713752
0.713817
0.713893
0.713977
0.714066
0.714155
0.714244
0.714328
0.714406
0.714475
0.714534
0.71458
0.714612
0.714628
0.714629
0.714614
0.714586
0.714547
0.714501
0.714452
0.714404
0.71436
0.714321
0.714287
0.714258
0.714232
0.714206
0.714179
0.714148
0.714115
0.714081
0.714051
0.714027
0.714011
0.714006
0.714013
0.714029
0.714057
0.714089
0.71413
0.714167
0.714211
0.714239
0.714276
0.714283
0.714307
0.714281
0.713909
0.713998
0.714077
0.714146
0.714202
0.714246
0.714277
0.714296
0.714302
0.714298
0.714285
0.714264
0.714237
0.714206
0.714171
0.714136
0.7141
0.714065
0.714031
0.714
0.713972
0.713947
0.713925
0.713907
0.713893
0.713882
0.713875
0.713872
0.713873
0.713878
0.713886
0.713898
0.713914
0.713931
0.713951
0.713972
0.713996
0.714022
0.714047
0.714071
0.714094
0.714113
0.714129
0.714144
0.714152
0.714146
0.714122
0.714084
0.714035
0.713972
0.713896
0.713809
0.713714
0.713618
0.713526
0.713444
0.713379
0.713337
0.713321
0.713331
0.713366
0.713422
0.713493
0.713572
0.713652
0.713726
0.713789
0.713835
0.713862
0.713869
0.713855
0.713825
0.713784
0.713737
0.713694
0.713659
0.713639
0.713638
0.713656
0.713694
0.71375
0.713821
0.713904
0.713995
0.71409
0.714186
0.714281
0.714372
0.714456
0.714532
0.714599
0.714654
0.714696
0.714724
0.714738
0.714737
0.714722
0.714695
0.714659
0.714616
0.714571
0.714525
0.714481
0.714439
0.714397
0.714354
0.714309
0.714261
0.71421
0.71416
0.714111
0.71407
0.714037
0.714016
0.714007
0.714012
0.714026
0.714053
0.714084
0.714124
0.714159
0.714204
0.714232
0.714271
0.714277
0.714303
0.714279
0.713946
0.71404
0.714124
0.714198
0.714259
0.714308
0.714343
0.714366
0.714376
0.714375
0.714364
0.714344
0.714318
0.714286
0.714251
0.714213
0.714174
0.714136
0.7141
0.714065
0.714033
0.714004
0.713979
0.713958
0.713941
0.713928
0.713919
0.713915
0.713915
0.71392
0.71393
0.713943
0.713959
0.713976
0.713994
0.714011
0.71403
0.714049
0.714066
0.714083
0.714105
0.714128
0.714142
0.714146
0.714141
0.714129
0.714109
0.714077
0.714029
0.713969
0.713897
0.713817
0.713732
0.713646
0.713564
0.713493
0.713436
0.713398
0.713383
0.713389
0.713416
0.713461
0.713519
0.713585
0.713652
0.713715
0.71377
0.71381
0.713834
0.713839
0.713827
0.713799
0.713761
0.713719
0.71368
0.71365
0.713635
0.713637
0.71366
0.713703
0.713763
0.713839
0.713927
0.714022
0.714121
0.714222
0.714321
0.714415
0.714504
0.714584
0.714655
0.714715
0.714763
0.714798
0.714819
0.714826
0.714819
0.714799
0.71477
0.714732
0.71469
0.714645
0.714597
0.714547
0.714495
0.714441
0.714384
0.714323
0.714261
0.714199
0.714142
0.714093
0.714055
0.71403
0.714018
0.71402
0.714032
0.714057
0.714085
0.714124
0.714157
0.7142
0.714225
0.714262
0.714268
0.714296
0.714277
0.713978
0.714073
0.71416
0.714236
0.7143
0.714351
0.714388
0.714413
0.714425
0.714425
0.714415
0.714396
0.714369
0.714337
0.714301
0.714262
0.714222
0.714182
0.714143
0.714106
0.714072
0.714041
0.714014
0.71399
0.713971
0.713957
0.713946
0.71394
0.713939
0.713942
0.71395
0.713961
0.713975
0.713989
0.714003
0.714018
0.714038
0.71406
0.714078
0.714091
0.714102
0.714111
0.714118
0.714124
0.714126
0.714116
0.714094
0.714059
0.714013
0.713957
0.713891
0.713818
0.713741
0.713664
0.713591
0.713527
0.713476
0.713442
0.713427
0.713431
0.713453
0.71349
0.713538
0.713593
0.713649
0.713702
0.713748
0.713783
0.713804
0.713811
0.713802
0.713781
0.71375
0.713715
0.713683
0.713659
0.713649
0.713655
0.713681
0.713727
0.713789
0.713867
0.713957
0.714054
0.714156
0.714259
0.71436
0.714456
0.714547
0.714629
0.714702
0.714764
0.714815
0.714852
0.714876
0.714886
0.714883
0.714866
0.714837
0.714799
0.714754
0.714704
0.714653
0.714601
0.714547
0.714488
0.714424
0.714356
0.714288
0.714223
0.714164
0.714114
0.714074
0.714047
0.714033
0.714033
0.714042
0.714064
0.714089
0.714124
0.714154
0.714194
0.714217
0.714255
0.714261
0.71429
0.714275
0.713998
0.714094
0.714181
0.714258
0.714322
0.714373
0.714411
0.714436
0.714448
0.714448
0.714438
0.714419
0.714392
0.71436
0.714323
0.714284
0.714243
0.714203
0.714163
0.714125
0.71409
0.714059
0.714031
0.714007
0.713987
0.713971
0.71396
0.713953
0.713951
0.713954
0.713963
0.713975
0.713989
0.714004
0.714016
0.714026
0.714037
0.71405
0.714061
0.714072
0.714088
0.714105
0.714116
0.71412
0.714115
0.714101
0.714078
0.714045
0.714001
0.713947
0.713885
0.713816
0.713745
0.713674
0.713607
0.713549
0.713502
0.713471
0.713457
0.713459
0.713478
0.71351
0.713551
0.713599
0.713648
0.713694
0.713734
0.713765
0.713784
0.713791
0.713785
0.713769
0.713745
0.713718
0.713692
0.713674
0.713669
0.713679
0.713707
0.713753
0.713817
0.713895
0.713984
0.714082
0.714183
0.714286
0.714388
0.714485
0.714575
0.714658
0.714731
0.714793
0.714844
0.714881
0.714905
0.714914
0.71491
0.714892
0.714864
0.714827
0.714785
0.714738
0.714686
0.714629
0.714568
0.714504
0.714438
0.714371
0.714304
0.71424
0.714181
0.714131
0.714091
0.714063
0.714047
0.714045
0.714052
0.714072
0.714094
0.714128
0.714155
0.714193
0.714214
0.714249
0.714255
0.714284
0.714273
0.714012
0.714107
0.714194
0.714269
0.714333
0.714384
0.714421
0.714446
0.714457
0.714457
0.714447
0.714428
0.714401
0.714368
0.714331
0.714292
0.714251
0.71421
0.71417
0.714131
0.714096
0.714063
0.714035
0.71401
0.713989
0.713973
0.71396
0.713953
0.713949
0.71395
0.713956
0.713965
0.713977
0.713989
0.714001
0.714014
0.71403
0.714049
0.714065
0.714079
0.714091
0.714101
0.714108
0.71411
0.714105
0.714091
0.714067
0.714033
0.713989
0.713936
0.713875
0.71381
0.713741
0.713674
0.713611
0.713556
0.713513
0.713484
0.713471
0.713473
0.71349
0.71352
0.713558
0.713602
0.713647
0.713689
0.713725
0.713752
0.713769
0.713775
0.713771
0.713758
0.713739
0.713718
0.713698
0.713685
0.713684
0.713697
0.713727
0.713774
0.713837
0.713915
0.714004
0.714101
0.714202
0.714304
0.714405
0.714501
0.714591
0.714673
0.714746
0.714807
0.714856
0.714892
0.714915
0.714923
0.714918
0.7149
0.714869
0.714828
0.714779
0.714726
0.71467
0.714613
0.714555
0.714494
0.71443
0.714365
0.7143
0.714239
0.714182
0.714135
0.714096
0.71407
0.714055
0.714053
0.714059
0.714078
0.714098
0.71413
0.714155
0.714192
0.714211
0.714245
0.714251
0.71428
0.714272
)
;

boundaryField
{
    inlet
    {
        type            zeroGradient;
    }
    outlet
    {
        type            fixedValue;
        value           uniform 0.714286;
    }
    walls
    {
        type            zeroGradient;
    }
    symwall
    {
        type            empty;
    }
    procBoundary3to1
    {
        type            processor;
        value           nonuniform List<scalar> 
128
(
0.714296
0.714287
0.714285
0.714281
0.714283
0.71361
0.713629
0.713639
0.713645
0.713644
0.71364
0.71363
0.713618
0.713602
0.713584
0.713565
0.713546
0.713527
0.71351
0.713496
0.713485
0.713478
0.713475
0.713477
0.713482
0.713488
0.713496
0.713503
0.713509
0.713513
0.713515
0.713514
0.713511
0.713508
0.713504
0.713501
0.7135
0.7135
0.713502
0.713506
0.713514
0.713525
0.71354
0.713559
0.713582
0.713611
0.713644
0.713682
0.713724
0.713768
0.713811
0.713849
0.713879
0.713897
0.7139
0.713885
0.713851
0.713802
0.713742
0.713676
0.713613
0.713559
0.713522
0.713506
0.713512
0.71354
0.713588
0.71365
0.713719
0.713789
0.713854
0.713909
0.713953
0.713983
0.713999
0.714003
0.713998
0.713986
0.713971
0.713957
0.713947
0.713943
0.713947
0.713961
0.713983
0.714015
0.714054
0.714098
0.714147
0.714197
0.714244
0.714286
0.714319
0.714339
0.714343
0.714328
0.714292
0.714237
0.714165
0.71408
0.713986
0.713887
0.713787
0.713689
0.713598
0.713518
0.713454
0.713412
0.713398
0.713416
0.713466
0.713546
0.713649
0.713764
0.71388
0.713987
0.714078
0.71415
0.714203
0.714238
0.71426
0.714272
0.714277
0.71428
0.71428
0.714282
0.714282
0.714282
)
;
    }
    procBoundary3to2
    {
        type            processor;
        value           nonuniform List<scalar> 10(0.713616 0.713651 0.713692 0.713734 0.713775 0.713813 0.713846 0.713875 0.713896 0.71391);
    }
}


// ************************************************************************* //
