/*--------------------------------*- C++ -*----------------------------------*\
| =========                 |                                                 |
| \\      /  F ield         | OpenFOAM: The Open Source CFD Toolbox           |
|  \\    /   O peration     | Version:  4.1                                   |
|   \\  /    A nd           | Web:      www.OpenFOAM.org                      |
|    \\/     M anipulation  |                                                 |
\*---------------------------------------------------------------------------*/
FoamFile
{
    version     2.0;
    format      ascii;
    class       volScalarField;
    location    "540";
    object      p;
}
// * * * * * * * * * * * * * * * * * * * * * * * * * * * * * * * * * * * * * //

dimensions      [1 -1 -2 0 0 0 0];

internalField   nonuniform List<scalar> 
1275
(
0.713602
0.713608
0.713615
0.71362
0.713625
0.71363
0.713635
0.713639
0.713643
0.713647
0.71365
0.713653
0.713656
0.713659
0.713662
0.713665
0.713668
0.71367
0.713673
0.713676
0.713678
0.71368
0.713683
0.713685
0.713687
0.713689
0.713691
0.713693
0.713695
0.713698
0.7137
0.713702
0.713704
0.713706
0.713708
0.71371
0.713711
0.713712
0.713712
0.713711
0.71371
0.713708
0.713705
0.713702
0.713699
0.713695
0.713692
0.713689
0.713687
0.713687
0.713689
0.713692
0.713699
0.713709
0.713722
0.713739
0.713761
0.713788
0.71382
0.713856
0.713898
0.713944
0.713995
0.714049
0.714105
0.714161
0.714218
0.714272
0.714323
0.714369
0.714409
0.714443
0.71447
0.714489
0.714502
0.714509
0.71451
0.714507
0.7145
0.714491
0.714482
0.714472
0.714463
0.714456
0.71445
0.714447
0.714447
0.714449
0.714453
0.714459
0.714467
0.714475
0.714484
0.714492
0.714498
0.714504
0.714511
0.714517
0.714521
0.714522
0.71452
0.714514
0.714503
0.714484
0.714458
0.714422
0.714377
0.714324
0.714265
0.714201
0.714136
0.714071
0.714011
0.713957
0.713913
0.71388
0.713862
0.713856
0.713866
0.713888
0.713923
0.713965
0.714016
0.714069
0.714122
0.714176
0.71422
0.714271
0.713605
0.713611
0.713617
0.713623
0.713627
0.713632
0.713636
0.713639
0.713643
0.713647
0.71365
0.713654
0.713657
0.71366
0.713663
0.713665
0.713668
0.713671
0.713673
0.713676
0.713678
0.71368
0.713683
0.713685
0.713687
0.713689
0.713691
0.713693
0.713695
0.713698
0.7137
0.713702
0.713705
0.713707
0.713709
0.713711
0.713713
0.713714
0.713714
0.713714
0.713713
0.713711
0.713709
0.713705
0.713702
0.713698
0.713694
0.713691
0.713688
0.713687
0.713688
0.713691
0.713697
0.713706
0.713718
0.713734
0.713755
0.713781
0.713812
0.713848
0.713889
0.713935
0.713986
0.714039
0.714096
0.714153
0.71421
0.714265
0.714316
0.714363
0.714404
0.714439
0.714466
0.714486
0.714499
0.714506
0.714507
0.714503
0.714497
0.714488
0.714478
0.714468
0.714459
0.714451
0.714446
0.714443
0.714443
0.714445
0.71445
0.714457
0.714466
0.714477
0.714488
0.714498
0.714507
0.714515
0.714521
0.714524
0.714524
0.714523
0.714522
0.71452
0.714512
0.714495
0.714469
0.714434
0.714389
0.714335
0.714274
0.714208
0.714139
0.714072
0.714008
0.713952
0.713905
0.71387
0.71385
0.713844
0.713854
0.713876
0.713912
0.713956
0.714009
0.714065
0.714121
0.714178
0.714223
0.714273
0.713605
0.713611
0.713616
0.713622
0.713627
0.713632
0.713637
0.713641
0.713645
0.713648
0.713651
0.713654
0.713657
0.71366
0.713663
0.713665
0.713668
0.713671
0.713674
0.713676
0.713678
0.713681
0.713683
0.713685
0.713687
0.713689
0.713691
0.713693
0.713695
0.713697
0.7137
0.713702
0.713704
0.713707
0.713709
0.713711
0.713713
0.713714
0.713715
0.713715
0.713714
0.713712
0.71371
0.713706
0.713702
0.713698
0.713694
0.71369
0.713687
0.713686
0.713686
0.713688
0.713693
0.713701
0.713713
0.713728
0.713749
0.713774
0.713804
0.713839
0.713879
0.713925
0.713975
0.714029
0.714086
0.714143
0.714201
0.714257
0.714309
0.714357
0.714398
0.714433
0.714461
0.714481
0.714494
0.7145
0.714501
0.714497
0.71449
0.714481
0.71447
0.71446
0.714451
0.714444
0.714438
0.714436
0.714436
0.714439
0.714444
0.714451
0.71446
0.71447
0.714481
0.71449
0.714499
0.714507
0.714517
0.714525
0.714532
0.714535
0.714534
0.714528
0.714518
0.714502
0.714478
0.714443
0.714396
0.71434
0.714275
0.714205
0.714133
0.714061
0.713994
0.713934
0.713885
0.713848
0.713827
0.713821
0.713832
0.713856
0.713895
0.713943
0.714
0.71406
0.71412
0.714181
0.714227
0.714279
0.713608
0.713615
0.713621
0.713626
0.71363
0.713634
0.713637
0.713641
0.713644
0.713648
0.713652
0.713655
0.713658
0.713661
0.713664
0.713666
0.713669
0.713671
0.713674
0.713676
0.713679
0.713681
0.713683
0.713685
0.713687
0.713689
0.713691
0.713693
0.713695
0.713697
0.713699
0.713702
0.713704
0.713707
0.71371
0.713712
0.713714
0.713716
0.713717
0.713717
0.713717
0.713715
0.713712
0.713708
0.713704
0.713699
0.713695
0.71369
0.713687
0.713684
0.713684
0.713685
0.713689
0.713696
0.713707
0.713721
0.71374
0.713764
0.713793
0.713827
0.713867
0.713912
0.713961
0.714015
0.714071
0.714128
0.714186
0.714242
0.714294
0.714341
0.714383
0.714417
0.714444
0.714464
0.714476
0.714482
0.714483
0.714479
0.714472
0.714462
0.714452
0.714443
0.714434
0.714427
0.714422
0.71442
0.71442
0.714423
0.714428
0.714436
0.714445
0.714455
0.714467
0.714478
0.714488
0.714498
0.714508
0.714516
0.714521
0.714525
0.71453
0.714533
0.714528
0.714512
0.714485
0.714448
0.714401
0.714342
0.714274
0.714199
0.714122
0.714045
0.713973
0.713909
0.713856
0.713817
0.713795
0.713789
0.713801
0.713828
0.713872
0.713924
0.713987
0.714053
0.714118
0.714184
0.714231
0.714287
0.7136
0.713608
0.713616
0.713623
0.71363
0.713635
0.71364
0.713644
0.713647
0.71365
0.713653
0.713655
0.713658
0.713661
0.713664
0.713667
0.71367
0.713672
0.713675
0.713677
0.713679
0.713682
0.713684
0.713685
0.713687
0.713689
0.713691
0.713692
0.713694
0.713696
0.713698
0.713701
0.713703
0.713706
0.713709
0.713712
0.713714
0.713716
0.713718
0.713718
0.713718
0.713716
0.713714
0.71371
0.713706
0.713701
0.713697
0.713692
0.713688
0.713686
0.713685
0.713686
0.713689
0.713696
0.713705
0.713719
0.713737
0.71376
0.713788
0.713821
0.71386
0.713903
0.713951
0.714004
0.714058
0.714114
0.71417
0.714224
0.714275
0.71432
0.71436
0.714392
0.714417
0.714436
0.714447
0.714452
0.714452
0.714448
0.714442
0.714434
0.714425
0.714417
0.714409
0.714404
0.7144
0.714399
0.714399
0.714402
0.714406
0.714412
0.714419
0.714427
0.714435
0.714444
0.714453
0.714462
0.714472
0.714482
0.714492
0.7145
0.714506
0.714508
0.714504
0.714495
0.714476
0.714441
0.714392
0.714331
0.71426
0.714183
0.714102
0.714021
0.713945
0.713877
0.713822
0.713781
0.713758
0.713752
0.713766
0.713796
0.713844
0.713902
0.713971
0.714043
0.714114
0.714185
0.714233
0.714296
0.713584
0.713596
0.713608
0.713617
0.713625
0.713632
0.713639
0.713644
0.713649
0.713653
0.713657
0.71366
0.713662
0.713665
0.713667
0.713669
0.713671
0.713673
0.713676
0.713678
0.71368
0.713683
0.713685
0.713686
0.713688
0.713689
0.713691
0.713692
0.713694
0.713695
0.713697
0.7137
0.713702
0.713705
0.713708
0.713711
0.713714
0.713717
0.713719
0.71372
0.71372
0.713719
0.713717
0.713714
0.71371
0.713706
0.713701
0.713697
0.713693
0.71369
0.713689
0.713689
0.713692
0.713698
0.713707
0.71372
0.713737
0.713759
0.713786
0.713818
0.713855
0.713897
0.713943
0.713993
0.714045
0.714098
0.71415
0.7142
0.714247
0.714288
0.714323
0.714352
0.714374
0.714389
0.714398
0.714402
0.714402
0.7144
0.714395
0.714389
0.714384
0.714378
0.714374
0.714371
0.71437
0.71437
0.714371
0.714373
0.714376
0.714379
0.714383
0.714388
0.714393
0.714398
0.714403
0.71441
0.714417
0.714425
0.714434
0.714443
0.714452
0.71446
0.714462
0.714455
0.714439
0.71441
0.714368
0.714311
0.71424
0.714162
0.714079
0.713996
0.713918
0.713847
0.71379
0.713747
0.713723
0.713717
0.713733
0.713766
0.713818
0.713881
0.713956
0.714033
0.714109
0.714185
0.714232
0.714303
0.713552
0.71357
0.713586
0.713601
0.713614
0.713626
0.713636
0.713645
0.713652
0.713657
0.713661
0.713665
0.713668
0.713671
0.713673
0.713675
0.713677
0.713679
0.713681
0.713682
0.713684
0.713685
0.713687
0.713688
0.713689
0.713691
0.713692
0.713693
0.713694
0.713695
0.713697
0.713698
0.713701
0.713703
0.713706
0.71371
0.713713
0.713716
0.713718
0.71372
0.713721
0.713721
0.71372
0.713718
0.713715
0.713711
0.713708
0.713704
0.7137
0.713698
0.713697
0.713698
0.713701
0.713707
0.713716
0.713728
0.713745
0.713766
0.713792
0.713822
0.713858
0.713897
0.713941
0.713987
0.714035
0.714082
0.714129
0.714173
0.714212
0.714246
0.714275
0.714297
0.714314
0.714325
0.714331
0.714334
0.714334
0.714333
0.714332
0.714331
0.71433
0.71433
0.714332
0.714334
0.714336
0.714338
0.71434
0.714341
0.714342
0.714341
0.71434
0.714338
0.714336
0.714334
0.714333
0.714334
0.714337
0.714342
0.71435
0.714359
0.71437
0.714379
0.714385
0.714387
0.714378
0.714358
0.714322
0.714273
0.71421
0.714136
0.714056
0.713973
0.713895
0.713824
0.713766
0.713724
0.7137
0.713695
0.713712
0.713747
0.713801
0.713867
0.713945
0.714026
0.714104
0.714184
0.71423
0.714306
0.713509
0.713533
0.713556
0.713577
0.713597
0.713614
0.71363
0.713644
0.713656
0.713665
0.713673
0.713679
0.713683
0.713686
0.713688
0.71369
0.713691
0.713692
0.713692
0.713693
0.713694
0.713695
0.713695
0.713696
0.713696
0.713696
0.713696
0.713696
0.713697
0.713697
0.713698
0.7137
0.713702
0.713704
0.713707
0.71371
0.713713
0.713717
0.71372
0.713722
0.713724
0.713725
0.713724
0.713723
0.713721
0.713719
0.713716
0.713713
0.71371
0.713709
0.713708
0.71371
0.713713
0.71372
0.713729
0.713742
0.713758
0.713779
0.713804
0.713833
0.713866
0.713903
0.713943
0.713984
0.714025
0.714065
0.714103
0.714138
0.714168
0.714192
0.714211
0.714225
0.714235
0.71424
0.714243
0.714245
0.714247
0.714249
0.714253
0.714258
0.714265
0.714273
0.714282
0.714291
0.714298
0.714304
0.714307
0.714308
0.714306
0.7143
0.714292
0.714283
0.714272
0.714261
0.714252
0.714245
0.714241
0.714241
0.714244
0.714252
0.714263
0.714276
0.714288
0.714297
0.714298
0.71429
0.714268
0.714231
0.714179
0.714114
0.714041
0.713965
0.713889
0.71382
0.713763
0.713721
0.713697
0.713693
0.713711
0.713746
0.713802
0.713868
0.713947
0.714028
0.714105
0.714185
0.714229
0.714306
0.713454
0.713484
0.713515
0.713544
0.713572
0.713598
0.713622
0.713643
0.713662
0.713677
0.71369
0.7137
0.713708
0.713714
0.713717
0.71372
0.713721
0.713721
0.71372
0.713719
0.713718
0.713717
0.713715
0.713714
0.713712
0.713711
0.71371
0.713709
0.713708
0.713708
0.713708
0.713708
0.713709
0.713711
0.713713
0.713716
0.713719
0.713722
0.713725
0.713728
0.71373
0.713732
0.713732
0.713732
0.713731
0.71373
0.713728
0.713727
0.713726
0.713725
0.713727
0.713729
0.713734
0.713741
0.713752
0.713765
0.713782
0.713803
0.713827
0.713855
0.713886
0.713918
0.713952
0.713987
0.71402
0.71405
0.714077
0.7141
0.714118
0.71413
0.714138
0.714142
0.714143
0.714143
0.714143
0.714144
0.714148
0.714155
0.714165
0.714178
0.714195
0.714212
0.714231
0.714248
0.714262
0.714272
0.714278
0.714278
0.714272
0.714262
0.714246
0.714228
0.714207
0.714186
0.714167
0.71415
0.714137
0.71413
0.714129
0.714134
0.714144
0.714159
0.714176
0.714192
0.714206
0.714211
0.714206
0.714188
0.714154
0.714106
0.714047
0.71398
0.713913
0.713849
0.713795
0.713754
0.713731
0.713726
0.713742
0.713776
0.713828
0.713891
0.713965
0.714042
0.714115
0.71419
0.714231
0.714302
0.713398
0.713433
0.713471
0.713508
0.713545
0.71358
0.713613
0.713644
0.713671
0.713695
0.713716
0.713733
0.713746
0.713756
0.713763
0.713767
0.713769
0.713769
0.713768
0.713766
0.713763
0.71376
0.713756
0.713752
0.713748
0.713745
0.713741
0.713738
0.713735
0.713733
0.713731
0.71373
0.71373
0.71373
0.713732
0.713733
0.713736
0.713738
0.713741
0.713744
0.713746
0.713748
0.713749
0.71375
0.71375
0.71375
0.71375
0.71375
0.71375
0.713752
0.713755
0.713759
0.713766
0.713775
0.713787
0.713801
0.713819
0.713839
0.713863
0.713888
0.713915
0.713942
0.713969
0.713995
0.714017
0.714036
0.714051
0.71406
0.714064
0.714064
0.71406
0.714054
0.714047
0.714041
0.714038
0.714039
0.714045
0.714058
0.714075
0.714098
0.714125
0.714153
0.714181
0.714207
0.714229
0.714244
0.714252
0.714253
0.714245
0.714229
0.714206
0.714179
0.714149
0.714118
0.714088
0.714062
0.714041
0.714026
0.714019
0.71402
0.714028
0.714044
0.714065
0.71409
0.714115
0.714136
0.71415
0.714153
0.714142
0.714118
0.714079
0.714031
0.713976
0.713922
0.713873
0.713835
0.713812
0.713804
0.713816
0.713844
0.713889
0.713943
0.714008
)
;

boundaryField
{
    inlet
    {
        type            zeroGradient;
    }
    outlet
    {
        type            fixedValue;
        value           uniform 0.714286;
    }
    walls
    {
        type            zeroGradient;
    }
    symwall
    {
        type            empty;
    }
    procBoundary1to0
    {
        type            processor;
        value           nonuniform List<scalar> 10(0.713595 0.713597 0.713599 0.7136 0.71359 0.71357 0.713534 0.713485 0.713424 0.713361);
    }
    procBoundary1to2
    {
        type            processor;
        value           uniform 0.713343;
    }
    procBoundary1to3
    {
        type            processor;
        value           nonuniform List<scalar> 
128
(
0.714073
0.714136
0.714201
0.714235
0.714297
0.713383
0.713428
0.713472
0.713518
0.713562
0.713605
0.713646
0.713684
0.713717
0.713747
0.713773
0.713794
0.713811
0.713823
0.713832
0.713837
0.713839
0.713839
0.713837
0.713833
0.713827
0.713821
0.713815
0.713808
0.713802
0.713795
0.713789
0.713783
0.713778
0.713774
0.713771
0.713768
0.713767
0.713766
0.713767
0.713767
0.713769
0.713771
0.713773
0.713775
0.713776
0.713778
0.71378
0.713781
0.713782
0.713784
0.713786
0.713788
0.713792
0.713797
0.713804
0.713813
0.713824
0.713837
0.713852
0.71387
0.71389
0.713911
0.713933
0.713955
0.713976
0.713995
0.71401
0.714022
0.714028
0.714029
0.714025
0.714016
0.714003
0.713988
0.713972
0.713958
0.713948
0.713942
0.713944
0.713953
0.713971
0.713995
0.714027
0.714062
0.714101
0.714139
0.714174
0.714203
0.714224
0.714235
0.714235
0.714224
0.714203
0.714175
0.71414
0.714102
0.714063
0.714024
0.71399
0.713961
0.713939
0.713926
0.713923
0.713929
0.713945
0.713969
0.714
0.714035
0.71407
0.714103
0.714128
0.714143
0.714146
0.714134
0.71411
0.714077
0.714038
0.714
0.713967
0.713943
0.713932
0.713936
0.713954
0.713985
0.714025
0.714073
0.714072
)
;
    }
}


// ************************************************************************* //
