/*--------------------------------*- C++ -*----------------------------------*\
| =========                 |                                                 |
| \\      /  F ield         | OpenFOAM: The Open Source CFD Toolbox           |
|  \\    /   O peration     | Version:  4.1                                   |
|   \\  /    A nd           | Web:      www.OpenFOAM.org                      |
|    \\/     M anipulation  |                                                 |
\*---------------------------------------------------------------------------*/
FoamFile
{
    version     2.0;
    format      ascii;
    class       volVectorField;
    location    "690";
    object      U;
}
// * * * * * * * * * * * * * * * * * * * * * * * * * * * * * * * * * * * * * //

dimensions      [0 1 -1 0 0 0 0];

internalField   nonuniform List<vector> 
1275
(
(-1.05398e-06 3.01542e-05 0)
(3.44924e-06 4.11327e-05 0)
(-6.24767e-05 4.8899e-05 0)
(-0.000125129 3.97211e-05 0)
(-0.000213233 3.82599e-05 0)
(-0.000299258 2.60401e-05 0)
(-0.000388687 2.33399e-05 0)
(-0.000485049 1.4406e-05 0)
(-0.000576327 1.25824e-05 0)
(-0.000678274 7.2566e-06 0)
(-0.000772259 6.45663e-06 0)
(-0.000876467 3.7675e-06 0)
(-0.000972764 3.75169e-06 0)
(-0.0010773 2.70292e-06 0)
(-0.00117522 3.14967e-06 0)
(-0.0012792 2.98711e-06 0)
(-0.00137811 3.62162e-06 0)
(-0.00148128 3.85816e-06 0)
(-0.00158077 4.498e-06 0)
(-0.00168317 4.85443e-06 0)
(-0.00178307 5.40111e-06 0)
(-0.001885 5.73432e-06 0)
(-0.00198542 6.14734e-06 0)
(-0.00208738 6.39322e-06 0)
(-0.0021887 6.6647e-06 0)
(-0.00229142 6.79819e-06 0)
(-0.00239433 6.93166e-06 0)
(-0.00249878 6.93774e-06 0)
(-0.00260429 6.92853e-06 0)
(-0.00271174 6.7766e-06 0)
(-0.00282121 6.58923e-06 0)
(-0.00293334 6.20443e-06 0)
(-0.00304865 5.74284e-06 0)
(-0.00316773 4.97044e-06 0)
(-0.00329154 4.0409e-06 0)
(-0.00342089 2.61036e-06 0)
(-0.00355723 8.95686e-07 0)
(-0.00370201 -1.57474e-06 0)
(-0.00385738 -4.45471e-06 0)
(-0.00402603 -8.28474e-06 0)
(-0.0042113 -1.24316e-05 0)
(-0.00441791 -1.72676e-05 0)
(-0.00465134 -2.15594e-05 0)
(-0.00491929 -2.50187e-05 0)
(-0.00523051 -2.54075e-05 0)
(-0.00559636 -2.12319e-05 0)
(-0.0060292 -9.20623e-06 0)
(-0.00654309 1.31358e-05 0)
(-0.00715137 4.89242e-05 0)
(-0.00786605 9.95555e-05 0)
(-0.00869426 0.000165189 0)
(-0.0096369 0.000243122 0)
(-0.0106852 0.00032842 0)
(-0.0118205 0.000413898 0)
(-0.013013 0.000491645 0)
(-0.0142247 0.000554084 0)
(-0.015411 0.000595367 0)
(-0.016525 0.000611893 0)
(-0.0175204 0.000602556 0)
(-0.0183547 0.00056833 0)
(-0.0189915 0.000511785 0)
(-0.0194013 0.000436453 0)
(-0.0195624 0.000346361 0)
(-0.0194608 0.000245632 0)
(-0.0190897 0.000138278 0)
(-0.0184492 2.80448e-05 0)
(-0.0175458 -8.16273e-05 0)
(-0.0163913 -0.000187647 0)
(-0.0150029 -0.00028727 0)
(-0.0134019 -0.000378116 0)
(-0.0116137 -0.000458179 0)
(-0.00966653 -0.000525849 0)
(-0.00759114 -0.000579925 0)
(-0.00541979 -0.000619641 0)
(-0.00318556 -0.000644659 0)
(-0.000921469 -0.000655079 0)
(0.00134027 -0.000651404 0)
(0.00356898 -0.000634517 0)
(0.00573621 -0.000605625 0)
(0.00781621 -0.000566196 0)
(0.00978641 -0.000517893 0)
(0.0116277 -0.000462499 0)
(0.0133245 -0.000401843 0)
(0.0148649 -0.00033774 0)
(0.0162406 -0.000271929 0)
(0.0174466 -0.000206025 0)
(0.018481 -0.000141492 0)
(0.019345 -7.96119e-05 0)
(0.020042 -2.1472e-05 0)
(0.0205776 3.20393e-05 0)
(0.0209593 8.02322e-05 0)
(0.0211959 0.000122609 0)
(0.0212973 0.000158854 0)
(0.0212742 0.00018882 0)
(0.0211379 0.000212512 0)
(0.0208996 0.00023007 0)
(0.0205709 0.000241754 0)
(0.0201628 0.000247924 0)
(0.0196862 0.00024902 0)
(0.0191514 0.000245545 0)
(0.018568 0.000238046 0)
(0.017945 0.000227099 0)
(0.0172906 0.000213284 0)
(0.0166123 0.000197181 0)
(0.0159167 0.000179341 0)
(0.0152097 0.000160301 0)
(0.0144964 0.000140536 0)
(0.0137813 0.00012051 0)
(0.0130683 0.000100605 0)
(0.0123607 8.12134e-05 0)
(0.0116614 6.26318e-05 0)
(0.0109727 4.5212e-05 0)
(0.010297 2.9188e-05 0)
(0.00963585 1.49142e-05 0)
(0.00899111 2.57943e-06 0)
(0.008364 -7.43866e-06 0)
(0.00775599 -1.50258e-05 0)
(0.00716797 -1.98299e-05 0)
(0.00660121 -2.1926e-05 0)
(0.00605634 -2.11425e-05 0)
(0.00553458 -1.79218e-05 0)
(0.00503648 -1.24976e-05 0)
(-1.85783e-05 -3.52322e-05 0)
(-0.00010479 1.73101e-05 0)
(-0.000320992 7.96009e-05 0)
(-0.000538544 0.000107954 0)
(-0.000792354 0.000137908 0)
(-0.00104681 0.000147014 0)
(-0.00130163 0.000165665 0)
(-0.00156913 0.000171884 0)
(-0.00182562 0.00018428 0)
(-0.0020986 0.00018833 0)
(-0.00235775 0.000195334 0)
(-0.00263143 0.000197172 0)
(-0.00289215 0.000200419 0)
(-0.00316378 0.000200715 0)
(-0.0034247 0.000201763 0)
(-0.00369312 0.000201216 0)
(-0.00395334 0.000201156 0)
(-0.00421854 0.000200298 0)
(-0.00447788 0.000199841 0)
(-0.00474065 0.000199062 0)
(-0.0049997 0.000198683 0)
(-0.00526152 0.00019829 0)
(-0.00552163 0.000198345 0)
(-0.00578463 0.000198607 0)
(-0.00604799 0.000199401 0)
(-0.006315 0.000200584 0)
(-0.00658464 0.00020242 0)
(-0.00685938 0.000204816 0)
(-0.00713936 0.000208038 0)
(-0.00742664 0.000212019 0)
(-0.00772237 0.000217091 0)
(-0.00802854 0.000223212 0)
(-0.00834733 0.000230867 0)
(-0.00868107 0.000240071 0)
(-0.00903307 0.00025157 0)
(-0.00940647 0.000265525 0)
(-0.00980592 0.000283066 0)
(-0.0102359 0.000304673 0)
(-0.0107025 0.000331958 0)
(-0.0112119 0.000365982 0)
(-0.0117713 0.000408852 0)
(-0.0123884 0.00046243 0)
(-0.0130705 0.000529099 0)
(-0.0138247 0.000611285 0)
(-0.0146563 0.000710909 0)
(-0.0155684 0.000829556 0)
(-0.0165596 0.000967019 0)
(-0.0176243 0.00112126 0)
(-0.0187497 0.00128735 0)
(-0.0199173 0.00145724 0)
(-0.0211006 0.00161983 0)
(-0.0222681 0.00176163 0)
(-0.0233827 0.00186817 0)
(-0.0244054 0.00192562 0)
(-0.0252965 0.00192274 0)
(-0.026018 0.00185209 0)
(-0.0265352 0.00171095 0)
(-0.0268181 0.00150113 0)
(-0.0268421 0.00122845 0)
(-0.0265883 0.000901619 0)
(-0.0260436 0.000531166 0)
(-0.0252006 0.000128401 0)
(-0.0240571 -0.000295288 0)
(-0.0226161 -0.000729001 0)
(-0.0208852 -0.00116254 0)
(-0.0188761 -0.00158657 0)
(-0.0166047 -0.0019926 0)
(-0.0140907 -0.00237305 0)
(-0.0113569 -0.00272118 0)
(-0.00842948 -0.00303115 0)
(-0.00533702 -0.0032981 0)
(-0.00211043 -0.00351816 0)
(0.00121787 -0.00368859 0)
(0.00461445 -0.00380782 0)
(0.00804562 -0.00387544 0)
(0.0114781 -0.00389222 0)
(0.0148797 -0.00386004 0)
(0.0182199 -0.00378178 0)
(0.0214706 -0.00366119 0)
(0.0246063 -0.00350272 0)
(0.0276045 -0.00331132 0)
(0.0304461 -0.00309227 0)
(0.0331153 -0.00285098 0)
(0.0355997 -0.00259285 0)
(0.03789 -0.00232308 0)
(0.0399801 -0.00204661 0)
(0.0418663 -0.00176793 0)
(0.0435478 -0.00149111 0)
(0.0450256 -0.0012197 0)
(0.0463028 -0.000956733 0)
(0.0473837 -0.000704721 0)
(0.048274 -0.000465676 0)
(0.0489804 -0.000241133 0)
(0.0495101 -3.21948e-05 0)
(0.049871 0.000160436 0)
(0.050071 0.000336406 0)
(0.0501183 0.000495675 0)
(0.0500213 0.000638465 0)
(0.0497879 0.000765222 0)
(0.0494263 0.000876577 0)
(0.048944 0.000973302 0)
(0.0483486 0.00105627 0)
(0.0476471 0.00112644 0)
(0.0468465 0.00118479 0)
(0.0459531 0.00123231 0)
(0.0449732 0.00126994 0)
(0.0439126 0.00129861 0)
(0.0427771 0.00131913 0)
(0.041572 0.00133228 0)
(0.0403026 0.00133864 0)
(0.0389741 0.0013388 0)
(0.0375917 0.00133311 0)
(0.0361607 0.00132194 0)
(0.0346865 0.00130544 0)
(0.033175 0.00128383 0)
(0.031632 0.00125708 0)
(0.0300646 0.00122536 0)
(0.0284794 0.0011886 0)
(0.0268846 0.00114697 0)
(0.0252882 0.00110056 0)
(0.0236991 0.00104964 0)
(0.0221265 0.000994647 0)
(-3.72658e-05 0.000161919 0)
(-0.00022838 0.000349757 0)
(-0.000589928 0.000492319 0)
(-0.000961049 0.000513228 0)
(-0.00137434 0.000554117 0)
(-0.00178905 0.000534334 0)
(-0.00220199 0.000550382 0)
(-0.00262465 0.00053559 0)
(-0.00303038 0.000544284 0)
(-0.00344746 0.000535815 0)
(-0.00384397 0.000539763 0)
(-0.00424962 0.000534511 0)
(-0.00463628 0.000535518 0)
(-0.00502911 0.000531835 0)
(-0.00540632 0.000531345 0)
(-0.00578719 0.000528595 0)
(-0.00615603 0.000527632 0)
(-0.00652692 0.000525751 0)
(-0.0068891 0.000525111 0)
(-0.00725261 0.00052437 0)
(-0.00761045 0.000524766 0)
(-0.00796971 0.000525646 0)
(-0.00832613 0.000527797 0)
(-0.00868479 0.000530928 0)
(-0.00904343 0.000535619 0)
(-0.00940576 0.000541776 0)
(-0.009771 0.000549918 0)
(-0.010142 0.000560065 0)
(-0.010519 0.000572798 0)
(-0.0109044 0.000588211 0)
(-0.0112994 0.000607082 0)
(-0.0117059 0.000629562 0)
(-0.012126 0.000656796 0)
(-0.0125613 0.000688981 0)
(-0.0130145 0.000727811 0)
(-0.0134872 0.000773492 0)
(-0.0139821 0.000828377 0)
(-0.0145007 0.000892562 0)
(-0.0150452 0.000968958 0)
(-0.0156163 0.00105726 0)
(-0.0162145 0.0011604 0)
(-0.0168387 0.00127713 0)
(-0.017486 0.00140936 0)
(-0.0181513 0.00155398 0)
(-0.0188265 0.00171041 0)
(-0.0195001 0.00187275 0)
(-0.0201573 0.00203641 0)
(-0.0207794 0.002192 0)
(-0.0213445 0.0023305 0)
(-0.0218284 0.00243924 0)
(-0.022205 0.00250596 0)
(-0.0224484 0.00251687 0)
(-0.0225337 0.00245993 0)
(-0.0224386 0.0023245 0)
(-0.0221438 0.00210384 0)
(-0.021634 0.00179507 0)
(-0.0208976 0.00140025 0)
(-0.0199267 0.000925579 0)
(-0.0187168 0.000381111 0)
(-0.0172661 -0.000220686 0)
(-0.0155756 -0.000865729 0)
(-0.0136483 -0.0015395 0)
(-0.0114897 -0.00222755 0)
(-0.0091072 -0.00291609 0)
(-0.00651052 -0.0035921 0)
(-0.00371185 -0.00424346 0)
(-0.000725909 -0.00485897 0)
(0.0024299 -0.00542835 0)
(0.0057355 -0.00594235 0)
(0.00916824 -0.00639283 0)
(0.0127032 -0.00677293 0)
(0.0163133 -0.00707725 0)
(0.0199705 -0.00730199 0)
(0.0236455 -0.00744512 0)
(0.0273092 -0.00750642 0)
(0.030933 -0.00748747 0)
(0.0344894 -0.00739158 0)
(0.0379531 -0.00722365 0)
(0.0413009 -0.00698989 0)
(0.0445125 -0.00669757 0)
(0.0475705 -0.00635472 0)
(0.0504609 -0.00596977 0)
(0.0531726 -0.00555129 0)
(0.0556977 -0.00510766 0)
(0.0580311 -0.00464687 0)
(0.0601705 -0.00417636 0)
(0.0621157 -0.0037028 0)
(0.0638684 -0.00323211 0)
(0.0654322 -0.00276935 0)
(0.0668117 -0.00231874 0)
(0.0680126 -0.00188371 0)
(0.069041 -0.00146691 0)
(0.0699038 -0.00107028 0)
(0.0706077 -0.000695144 0)
(0.0711596 -0.000342275 0)
(0.0715662 -1.19591e-05 0)
(0.0718339 0.000295917 0)
(0.071969 0.000581804 0)
(0.071977 0.000846415 0)
(0.0718632 0.00109068 0)
(0.0716325 0.00131566 0)
(0.0712893 0.00152256 0)
(0.0708374 0.00171258 0)
(0.0702804 0.00188698 0)
(0.0696213 0.00204697 0)
(0.0688628 0.00219372 0)
(0.0680072 0.00232825 0)
(0.0670567 0.00245154 0)
(0.066013 0.00256434 0)
(0.0648776 0.0026673 0)
(0.063652 0.00276082 0)
(0.0623373 0.00284521 0)
(0.0609349 0.00292042 0)
(0.059446 0.00298641 0)
(0.0578722 0.00304265 0)
(0.0562151 0.00308879 0)
(0.0544769 0.0031238 0)
(0.05266 0.00314713 0)
(0.0507679 0.00315727 0)
(0.0488045 0.00315371 0)
(0.0467747 0.00313448 0)
(0.0446854 0.00309966 0)
(-9.15866e-05 0.000214655 0)
(-0.000438726 0.000556355 0)
(-0.000998343 0.000801423 0)
(-0.00153705 0.000881246 0)
(-0.00208431 0.000961079 0)
(-0.00262621 0.000967521 0)
(-0.0031341 0.00100108 0)
(-0.00365345 0.00099673 0)
(-0.00413309 0.00100956 0)
(-0.00462506 0.00100091 0)
(-0.00508158 0.00100111 0)
(-0.00554606 0.00099001 0)
(-0.00598166 0.000983738 0)
(-0.00642068 0.000972062 0)
(-0.00683698 0.000963406 0)
(-0.00725342 0.000952571 0)
(-0.00765228 0.000944018 0)
(-0.00804935 0.000935075 0)
(-0.008433 0.000928214 0)
(-0.00881402 0.000922046 0)
(-0.00918498 0.000918044 0)
(-0.00955323 0.000915496 0)
(-0.00991422 0.000915366 0)
(-0.0102729 0.000917317 0)
(-0.0106267 0.000922059 0)
(-0.0109788 0.000929465 0)
(-0.0113279 0.000940141 0)
(-0.0116761 0.000954077 0)
(-0.0120227 0.000971886 0)
(-0.0123687 0.0009936 0)
(-0.012714 0.00101996 0)
(-0.0130585 0.00105098 0)
(-0.0134022 0.00108763 0)
(-0.0137439 0.00112983 0)
(-0.0140833 0.00117889 0)
(-0.0144177 0.00123449 0)
(-0.0147464 0.00129823 0)
(-0.0150649 0.00136942 0)
(-0.015371 0.00144963 0)
(-0.0156584 0.00153763 0)
(-0.0159226 0.00163414 0)
(-0.0161552 0.00173726 0)
(-0.0163486 0.00184571 0)
(-0.0164918 0.00195646 0)
(-0.0165738 0.00206518 0)
(-0.0165812 0.0021666 0)
(-0.0164999 0.00225317 0)
(-0.0163146 0.00231567 0)
(-0.0160094 0.00234353 0)
(-0.0155689 0.00232431 0)
(-0.0149781 0.00224567 0)
(-0.0142241 0.00209492 0)
(-0.0132957 0.00186161 0)
(-0.0121849 0.0015375 0)
(-0.0108863 0.00111872 0)
(-0.00939753 0.000605374 0)
(-0.00771812 2.44082e-06 0)
(-0.0058495 -0.000681421 0)
(-0.00379397 -0.00143415 0)
(-0.00155448 -0.00224174 0)
(0.000865688 -0.00308884 0)
(0.00346274 -0.00395979 0)
(0.00623216 -0.00483886 0)
(0.00916813 -0.00571078 0)
(0.0122631 -0.00656065 0)
(0.0155071 -0.00737418 0)
(0.0188876 -0.00813765 0)
(0.022389 -0.00883811 0)
(0.0259927 -0.00946355 0)
(0.0296772 -0.0100032 0)
(0.0334186 -0.010448 0)
(0.037191 -0.0107907 0)
(0.0409673 -0.0110264 0)
(0.0447197 -0.0111525 0)
(0.0484208 -0.0111691 0)
(0.0520443 -0.0110789 0)
(0.0555654 -0.0108869 0)
(0.0589617 -0.0106002 0)
(0.0622138 -0.0102277 0)
(0.0653051 -0.00977959 0)
(0.0682225 -0.00926703 0)
(0.070956 -0.00870161 0)
(0.073499 -0.00809501 0)
(0.0758479 -0.00745854 0)
(0.0780017 -0.00680291 0)
(0.0799617 -0.00613795 0)
(0.0817314 -0.00547243 0)
(0.0833159 -0.00481397 0)
(0.0847212 -0.00416899 0)
(0.0859546 -0.00354273 0)
(0.0870238 -0.00293931 0)
(0.0879368 -0.00236177 0)
(0.0887017 -0.00181223 0)
(0.0893263 -0.00129194 0)
(0.0898185 -0.000801468 0)
(0.0901854 -0.000340746 0)
(0.0904338 9.07841e-05 0)
(0.0905699 0.000494086 0)
(0.0905993 0.000870434 0)
(0.0905271 0.00122134 0)
(0.0903577 0.00154846 0)
(0.0900947 0.00185358 0)
(0.0897415 0.00213852 0)
(0.0893007 0.00240506 0)
(0.0887742 0.00265499 0)
(0.0881638 0.00288996 0)
(0.0874705 0.00311154 0)
(0.0866949 0.00332109 0)
(0.0858374 0.00351985 0)
(0.0848977 0.0037088 0)
(0.0838753 0.00388876 0)
(0.0827696 0.00406018 0)
(0.0815795 0.00422342 0)
(0.0803036 0.00437837 0)
(0.0789408 0.00452486 0)
(0.0774895 0.00466223 0)
(0.0759482 0.00478969 0)
(0.0743156 0.00490611 0)
(0.0725903 0.00500999 0)
(0.0707717 0.00510007 0)
(0.0688584 0.00517376 0)
(0.0668519 0.00523044 0)
(-0.000114446 0.00071409 0)
(-0.000563205 0.00127273 0)
(-0.00124005 0.0016147 0)
(-0.00189031 0.00160651 0)
(-0.00253565 0.00166017 0)
(-0.00316098 0.0015849 0)
(-0.00373367 0.00158691 0)
(-0.00429851 0.00153158 0)
(-0.00480581 0.00151968 0)
(-0.00530769 0.00147967 0)
(-0.00575997 0.00146126 0)
(-0.00620636 0.0014296 0)
(-0.00661314 0.00140892 0)
(-0.00701288 0.00138248 0)
(-0.00738153 0.00136216 0)
(-0.00774211 0.00133982 0)
(-0.00807808 0.00132147 0)
(-0.00840524 0.00130304 0)
(-0.00871246 0.00128776 0)
(-0.00901037 0.00127351 0)
(-0.00929157 0.00126215 0)
(-0.00956304 0.00125255 0)
(-0.00981987 0.00124585 0)
(-0.0100664 0.00124143 0)
(-0.0102994 0.00124005 0)
(-0.0105212 0.00124135 0)
(-0.0107295 0.00124587 0)
(-0.0109252 0.00125332 0)
(-0.0111063 0.00126419 0)
(-0.0112723 0.00127814 0)
(-0.0114215 0.00129571 0)
(-0.0115519 0.0013164 0)
(-0.0116616 0.00134096 0)
(-0.011747 0.00136856 0)
(-0.0118059 0.00140039 0)
(-0.0118329 0.00143496 0)
(-0.011825 0.00147405 0)
(-0.0117754 0.00151517 0)
(-0.0116795 0.0015606 0)
(-0.0115292 0.00160635 0)
(-0.011318 0.0016547 0)
(-0.0110368 0.00169962 0)
(-0.0106769 0.00174243 0)
(-0.0102281 0.00177467 0)
(-0.00968047 0.00179522 0)
(-0.00902222 0.00179348 0)
(-0.00824406 0.0017644 0)
(-0.00733389 0.00169593 0)
(-0.00628308 0.00157978 0)
(-0.005082 0.00140354 0)
(-0.00372435 0.0011579 0)
(-0.0022048 0.000832438 0)
(-0.000521013 0.000420318 0)
(0.0013276 -8.38211e-05 0)
(0.00333956 -0.000681031 0)
(0.00551228 -0.00136948 0)
(0.00784251 -0.00214317 0)
(0.010327 -0.00299337 0)
(0.0129627 -0.00390833 0)
(0.0157472 -0.00487467 0)
(0.0186777 -0.00587733 0)
(0.0217513 -0.00690056 0)
(0.0249636 -0.00792777 0)
(0.0283086 -0.00894212 0)
(0.0317776 -0.00992643 0)
(0.0353587 -0.0108636 0)
(0.0390368 -0.0117366 0)
(0.0427936 -0.0125292 0)
(0.0466075 -0.0132264 0)
(0.0504542 -0.0138146 0)
(0.0543076 -0.0142825 0)
(0.0581405 -0.0146216 0)
(0.0619251 -0.0148263 0)
(0.0656345 -0.0148942 0)
(0.0692429 -0.0148266 0)
(0.0727271 -0.0146276 0)
(0.0760664 -0.0143046 0)
(0.0792432 -0.0138677 0)
(0.0822436 -0.013329 0)
(0.0850571 -0.012702 0)
(0.0876768 -0.0120015 0)
(0.090099 -0.0112424 0)
(0.0923231 -0.0104395 0)
(0.0943508 -0.00960679 0)
(0.0961866 -0.00875741 0)
(0.0978363 -0.00790308 0)
(0.0993074 -0.0070541 0)
(0.100608 -0.0062192 0)
(0.101748 -0.00540558 0)
(0.102735 -0.00461893 0)
(0.10358 -0.00386358 0)
(0.104291 -0.00314254 0)
(0.104877 -0.00245772 0)
(0.105347 -0.00181004 0)
(0.105707 -0.00119959 0)
(0.105966 -0.000625782 0)
(0.106129 -8.74471e-05 0)
(0.106202 0.000417003 0)
(0.106191 0.000889483 0)
(0.106099 0.00133215 0)
(0.10593 0.0017473 0)
(0.105688 0.00213733 0)
(0.105374 0.00250462 0)
(0.104992 0.00285154 0)
(0.104541 0.00318037 0)
(0.104024 0.00349327 0)
(0.103441 0.00379223 0)
(0.102791 0.00407908 0)
(0.102076 0.00435538 0)
(0.101293 0.00462254 0)
(0.100442 0.00488155 0)
(0.099521 0.00513337 0)
(0.0985292 0.00537832 0)
(0.0974642 0.00561685 0)
(0.0963237 0.00584848 0)
(0.0951052 0.00607325 0)
(0.0938061 0.0062897 0)
(0.0924235 0.00649757 0)
(0.0909546 0.00669422 0)
(0.0893964 0.00687945 0)
(0.0877458 0.00704908 0)
(0.0860008 0.00720356 0)
(-0.000261387 0.000854326 0)
(-0.000909179 0.00165178 0)
(-0.00173568 0.00210347 0)
(-0.00246034 0.0021551 0)
(-0.00305855 0.00222073 0)
(-0.00364373 0.00215354 0)
(-0.00410229 0.00213704 0)
(-0.00457176 0.00206406 0)
(-0.00494479 0.00202206 0)
(-0.00532407 0.00195458 0)
(-0.00563354 0.00190499 0)
(-0.00594153 0.00184487 0)
(-0.00619852 0.00179573 0)
(-0.0064484 0.00174303 0)
(-0.00665965 0.00169763 0)
(-0.00686029 0.00165185 0)
(-0.00703023 0.00161138 0)
(-0.00718735 0.00157199 0)
(-0.00731869 0.0015368 0)
(-0.00743559 0.00150337 0)
(-0.00752953 0.00147349 0)
(-0.0076075 0.00144567 0)
(-0.0076637 0.00142097 0)
(-0.00770212 0.00139843 0)
(-0.00771863 0.00137864 0)
(-0.00771498 0.00136092 0)
(-0.00768803 0.00134556 0)
(-0.0076377 0.00133198 0)
(-0.00756144 0.0013203 0)
(-0.00745748 0.00130986 0)
(-0.00732357 0.00130071 0)
(-0.00715623 0.00129201 0)
(-0.00695336 0.00128388 0)
(-0.00670957 0.00127509 0)
(-0.0064228 0.00126601 0)
(-0.00608556 0.00125479 0)
(-0.00569567 0.00124213 0)
(-0.00524346 0.00122535 0)
(-0.00472635 0.00120519 0)
(-0.00413281 0.00117812 0)
(-0.00345935 0.001144 0)
(-0.00269352 0.00109885 0)
(-0.00183019 0.00103995 0)
(-0.000857811 0.000963549 0)
(0.00023113 0.000862982 0)
(0.00144527 0.000734152 0)
(0.00279312 0.000568847 0)
(0.00428182 0.000358614 0)
(0.00591755 9.52671e-05 0)
(0.00770488 -0.000231391 0)
(0.00964675 -0.000629221 0)
(0.0117444 -0.0011071 0)
(0.0139975 -0.00167044 0)
(0.0164041 -0.0023238 0)
(0.0189616 -0.00306762 0)
(0.0216665 -0.00390013 0)
(0.0245152 -0.00481551 0)
(0.0275036 -0.00580549 0)
(0.0306279 -0.00685854 0)
(0.0338834 -0.00796113 0)
(0.0372647 -0.00909743 0)
(0.0407645 -0.0102502 0)
(0.0443734 -0.0114005 0)
(0.048079 -0.0125288 0)
(0.0518659 -0.0136146 0)
(0.0557153 -0.0146371 0)
(0.0596054 -0.015576 0)
(0.0635116 -0.016412 0)
(0.0674073 -0.0171274 0)
(0.0712648 -0.0177067 0)
(0.075056 -0.0181376 0)
(0.0787534 -0.0184116 0)
(0.0823313 -0.0185239 0)
(0.0857663 -0.018474 0)
(0.089038 -0.0182657 0)
(0.0921296 -0.0179066 0)
(0.0950282 -0.0174075 0)
(0.0977248 -0.0167823 0)
(0.100214 -0.0160468 0)
(0.102496 -0.0152182 0)
(0.104571 -0.0143144 0)
(0.106445 -0.0133534 0)
(0.108125 -0.0123523 0)
(0.109621 -0.0113274 0)
(0.110943 -0.0102935 0)
(0.112103 -0.0092637 0)
(0.113113 -0.00824904 0)
(0.113984 -0.0072588 0)
(0.114729 -0.00630032 0)
(0.115358 -0.00537917 0)
(0.115882 -0.00449926 0)
(0.116309 -0.0036631 0)
(0.116649 -0.00287192 0)
(0.11691 -0.00212589 0)
(0.117096 -0.00142435 0)
(0.117216 -0.00076591 0)
(0.117273 -0.000148661 0)
(0.117271 0.000429722 0)
(0.117215 0.000971848 0)
(0.117106 0.00148052 0)
(0.116948 0.00195865 0)
(0.11674 0.00240918 0)
(0.116486 0.00283505 0)
(0.116184 0.00323911 0)
(0.115836 0.00362412 0)
(0.115442 0.00399266 0)
(0.115 0.00434718 0)
(0.11451 0.00468986 0)
(0.113972 0.00502274 0)
(0.113382 0.00534748 0)
(0.112741 0.00566562 0)
(0.112045 0.00597823 0)
(0.111292 0.0062863 0)
(0.11048 0.00659018 0)
(0.109607 0.00689027 0)
(0.108668 0.00718619 0)
(0.107661 0.00747762 0)
(0.106582 0.00776354 0)
(0.105427 0.00804262 0)
(0.104194 0.00831367 0)
(0.102877 0.00857364 0)
(0.101474 0.00882209 0)
(-0.000258687 0.0019395 0)
(-0.000880318 0.0027762 0)
(-0.00164134 0.00321857 0)
(-0.00229681 0.00293951 0)
(-0.00279624 0.00287441 0)
(-0.00324421 0.00262743 0)
(-0.00354392 0.00252878 0)
(-0.00381882 0.00236767 0)
(-0.00398602 0.00227587 0)
(-0.00413754 0.00216035 0)
(-0.00421366 0.00207767 0)
(-0.00427659 0.00198665 0)
(-0.00428546 0.00191271 0)
(-0.00428116 0.00183663 0)
(-0.00423618 0.00177045 0)
(-0.00417715 0.00170459 0)
(-0.00408559 0.00164511 0)
(-0.00397866 0.00158685 0)
(-0.00384385 0.00153304 0)
(-0.00369197 0.0014807 0)
(-0.00351438 0.0014316 0)
(-0.00331757 0.00138388 0)
(-0.00309534 0.00133849 0)
(-0.00285114 0.00129417 0)
(-0.0025803 0.00125134 0)
(-0.00228398 0.00120903 0)
(-0.00195844 0.00116733 0)
(-0.00160299 0.00112536 0)
(-0.00121446 0.00108294 0)
(-0.000790489 0.00103911 0)
(-0.000328291 0.000993592 0)
(0.000176225 0.000945114 0)
(0.000725517 0.000893517 0)
(0.00132555 0.000836913 0)
(0.00197853 0.000775584 0)
(0.00269242 0.000706572 0)
(0.00346934 0.000631043 0)
(0.00431913 0.000544277 0)
(0.00524435 0.000448803 0)
(0.00625595 0.000337269 0)
(0.00735777 0.000213857 0)
(0.00856073 6.77629e-05 0)
(0.00987029 -9.53588e-05 0)
(0.011297 -0.00028992 0)
(0.0128459 -0.000510488 0)
(0.0145292 -0.000771886 0)
(0.0163491 -0.00107502 0)
(0.0183155 -0.00143166 0)
(0.0204306 -0.00184589 0)
(0.0226996 -0.00232808 0)
(0.0251236 -0.00288334 0)
(0.0277032 -0.00351946 0)
(0.0304367 -0.0042398 0)
(0.0333209 -0.00504779 0)
(0.0363515 -0.00594254 0)
(0.0395224 -0.00692155 0)
(0.0428265 -0.00797824 0)
(0.0462555 -0.00910368 0)
(0.0497996 -0.0102853 0)
(0.0534471 -0.0115084 0)
(0.0571843 -0.012755 0)
(0.060995 -0.0140056 0)
(0.0648604 -0.0152385 0)
(0.0687586 -0.0164307 0)
(0.0726655 -0.0175587 0)
(0.0765545 -0.018599 0)
(0.0803974 -0.0195287 0)
(0.0841655 -0.020327 0)
(0.0878298 -0.0209755 0)
(0.0913628 -0.0214592 0)
(0.0947385 -0.0217672 0)
(0.0979342 -0.0218934 0)
(0.100931 -0.0218359 0)
(0.103712 -0.0215981 0)
(0.106269 -0.0211874 0)
(0.108595 -0.0206156 0)
(0.11069 -0.0198979 0)
(0.112555 -0.0190522 0)
(0.114199 -0.0180982 0)
(0.115632 -0.0170569 0)
(0.116867 -0.0159492 0)
(0.11792 -0.0147955 0)
(0.118805 -0.0136148 0)
(0.119541 -0.0124245 0)
(0.120144 -0.0112396 0)
(0.120631 -0.0100732 0)
(0.121018 -0.00893582 0)
(0.121318 -0.00783591 0)
(0.121547 -0.00677978 0)
(0.121714 -0.00577186 0)
(0.121831 -0.0048149 0)
(0.121907 -0.0039102 0)
(0.121947 -0.00305785 0)
(0.121959 -0.00225694 0)
(0.121946 -0.00150575 0)
(0.121913 -0.000801943 0)
(0.121861 -0.000142745 0)
(0.121793 0.000474954 0)
(0.12171 0.00105446 0)
(0.121611 0.00159921 0)
(0.121497 0.00211264 0)
(0.121367 0.00259821 0)
(0.12122 0.00305924 0)
(0.121056 0.00349899 0)
(0.120871 0.00392052 0)
(0.120666 0.00432676 0)
(0.120437 0.00472037 0)
(0.120183 0.00510386 0)
(0.119901 0.00547939 0)
(0.119589 0.00584901 0)
(0.119244 0.00621425 0)
(0.118863 0.00657671 0)
(0.118443 0.00693713 0)
(0.117981 0.00729667 0)
(0.117472 0.00765513 0)
(0.116914 0.00801334 0)
(0.116301 0.00836979 0)
(0.11563 0.00872536 0)
(0.114896 0.00907666 0)
(0.114094 0.0094252 0)
(0.11322 0.00976503 0)
(0.112268 0.0100988 0)
(-0.000757079 0.00190258 0)
(-0.00162289 0.00297071 0)
(-0.00200311 0.00347255 0)
(-0.00227334 0.00327412 0)
(-0.00213991 0.00315288 0)
(-0.00211042 0.00288657 0)
(-0.00185491 0.00271255 0)
(-0.00167285 0.00250341 0)
(-0.00136438 0.00234826 0)
(-0.00109254 0.00218509 0)
(-0.000745905 0.00205326 0)
(-0.000414106 0.00192163 0)
(-3.40114e-05 0.00180905 0)
(0.000343334 0.00169903 0)
(0.000755142 0.0016011 0)
(0.00117137 0.00150607 0)
(0.00161493 0.00141893 0)
(0.00206783 0.0013343 0)
(0.00254483 0.00125482 0)
(0.00303523 0.00117716 0)
(0.00354902 0.00110268 0)
(0.00408019 0.00102918 0)
(0.00463586 0.000957261 0)
(0.00521322 0.00088534 0)
(0.0058177 0.00081351 0)
(0.00644881 0.00074053 0)
(0.00711092 0.000666102 0)
(0.00780545 0.000589116 0)
(0.00853606 0.00050897 0)
(0.00930594 0.000424513 0)
(0.0101181 0.000334928 0)
(0.0109776 0.000238834 0)
(0.0118866 0.000135352 0)
(0.0128527 2.26068e-05 0)
(0.0138766 -0.000100093 0)
(0.0149689 -0.000235484 0)
(0.0161285 -0.000383776 0)
(0.0173698 -0.000548959 0)
(0.0186893 -0.000730724 0)
(0.0201051 -0.000934264 0)
(0.0216119 -0.00115978 0)
(0.0232297 -0.00141216 0)
(0.0249544 -0.00169525 0)
(0.0268019 -0.00201026 0)
(0.0287756 -0.00236812 0)
(0.0308804 -0.00276762 0)
(0.0331242 -0.00321633 0)
(0.0355114 -0.00372195 0)
(0.0380456 -0.00428833 0)
(0.040728 -0.00492432 0)
(0.0435588 -0.00563308 0)
(0.0465351 -0.00642105 0)
(0.0496527 -0.00728955 0)
(0.0529046 -0.00824056 0)
(0.056282 -0.00927131 0)
(0.0597731 -0.0103778 0)
(0.0633646 -0.0115514 0)
(0.0670401 -0.0127813 0)
(0.0707813 -0.0140528 0)
(0.074567 -0.0153483 0)
(0.0783741 -0.0166476 0)
(0.0821767 -0.0179282 0)
(0.085947 -0.0191658 0)
(0.0896557 -0.0203354 0)
(0.0932723 -0.0214117 0)
(0.0967661 -0.0223704 0)
(0.100107 -0.0231887 0)
(0.103267 -0.0238465 0)
(0.106219 -0.0243271 0)
(0.108942 -0.0246182 0)
(0.111418 -0.0247124 0)
(0.113633 -0.0246072 0)
(0.11558 -0.024306 0)
(0.117257 -0.0238171 0)
(0.118667 -0.0231534 0)
(0.11982 -0.022332 0)
(0.120727 -0.0213729 0)
(0.121407 -0.020298 0)
(0.121878 -0.0191302 0)
(0.122165 -0.0178926 0)
(0.12229 -0.0166077 0)
(0.122278 -0.0152965 0)
(0.122155 -0.0139785 0)
(0.121944 -0.0126705 0)
(0.121666 -0.0113872 0)
(0.121343 -0.0101404 0)
(0.120993 -0.00893922 0)
(0.12063 -0.00779046 0)
(0.120268 -0.00669857 0)
(0.119916 -0.00566603 0)
(0.119585 -0.00469367 0)
(0.119279 -0.00378096 0)
(0.119004 -0.00292627 0)
(0.118761 -0.00212717 0)
(0.118552 -0.00138063 0)
(0.118377 -0.000683177 0)
(0.118236 -3.10921e-05 0)
(0.118127 0.000579502 0)
(0.118048 0.00115253 0)
(0.117996 0.00169192 0)
(0.117969 0.00220151 0)
(0.117963 0.00268502 0)
(0.117976 0.00314605 0)
(0.118004 0.00358803 0)
(0.118043 0.0040142 0)
(0.118091 0.00442759 0)
(0.118144 0.00483104 0)
(0.118198 0.00522716 0)
(0.118251 0.00561832 0)
(0.118297 0.00600663 0)
(0.118335 0.006394 0)
(0.11836 0.0067819 0)
(0.118368 0.0071718 0)
(0.118354 0.00756443 0)
(0.118317 0.00796078 0)
(0.118248 0.00836071 0)
(0.118145 0.0087647 0)
(0.118002 0.0091717 0)
(0.117815 0.00958136 0)
(0.117575 0.00999225 0)
(0.117279 0.010402 0)
(0.116921 0.0108104 0)
(-0.000305858 0.00447927 0)
(-0.000214463 0.00406363 0)
(0.000316719 0.00397836 0)
(0.000908667 0.00307735 0)
(0.00170989 0.00275679 0)
(0.00245815 0.00233003 0)
(0.00331081 0.00210432 0)
(0.00411023 0.00186152 0)
(0.00496749 0.00169471 0)
(0.00578478 0.00152685 0)
(0.00663609 0.00139323 0)
(0.00746038 0.00126174 0)
(0.00830625 0.0011481 0)
(0.00913556 0.00103684 0)
(0.00998033 0.000935719 0)
(0.0108169 0.000836418 0)
(0.0116665 0.00074298 0)
(0.0125149 0.000650504 0)
(0.0133766 0.000561094 0)
(0.0142432 0.000471636 0)
(0.0151252 0.00038312 0)
(0.0160181 0.000293403 0)
(0.0169297 0.000202772 0)
(0.0178584 0.000109622 0)
(0.0188104 1.37392e-05 0)
(0.0197861 -8.62052e-05 0)
(0.0207908 -0.000190817 0)
(0.0218264 -0.000301332 0)
(0.0228976 -0.000418675 0)
(0.0240079 -0.000544154 0)
(0.0251611 -0.000678916 0)
(0.0263626 -0.000824549 0)
(0.0276152 -0.000982229 0)
(0.0289265 -0.00115417 0)
(0.0302977 -0.00134116 0)
(0.0317393 -0.00154668 0)
(0.0332499 -0.00177036 0)
(0.0348441 -0.00201815 0)
(0.0365168 -0.00228694 0)
(0.0382874 -0.00258754 0)
(0.0401458 -0.00291122 0)
(0.0421169 -0.00327747 0)
(0.0441851 -0.00366798 0)
(0.0463788 -0.00411416 0)
(0.0486785 -0.00458935 0)
(0.0511122 -0.00512252 0)
(0.0536674 -0.00570696 0)
(0.0563518 -0.00635455 0)
(0.0591621 -0.00706324 0)
(0.0620972 -0.00784197 0)
(0.0651527 -0.00869039 0)
(0.068321 -0.00961308 0)
(0.0715928 -0.0106083 0)
(0.0749547 -0.0116754 0)
(0.0783916 -0.0128087 0)
(0.0818843 -0.0140013 0)
(0.0854117 -0.0152417 0)
(0.0889491 -0.0165163 0)
(0.0924701 -0.0178079 0)
(0.0959455 -0.0190966 0)
(0.0993446 -0.0203599 0)
(0.102635 -0.0215739 0)
(0.105785 -0.022713 0)
(0.108762 -0.0237518 0)
(0.111534 -0.0246652 0)
(0.114073 -0.0254301 0)
(0.116353 -0.0260259 0)
(0.118353 -0.0264359 0)
(0.120055 -0.0266479 0)
(0.121449 -0.0266549 0)
(0.122529 -0.0264556 0)
(0.123297 -0.0260539 0)
(0.123758 -0.0254592 0)
(0.123928 -0.0246853 0)
(0.123823 -0.0237502 0)
(0.123469 -0.0226752 0)
(0.122893 -0.0214841 0)
(0.122126 -0.0202019 0)
(0.121201 -0.0188544 0)
(0.120152 -0.0174665 0)
(0.119012 -0.0160613 0)
(0.117812 -0.0146598 0)
(0.116584 -0.0132798 0)
(0.115353 -0.011936 0)
(0.114145 -0.01064 0)
(0.11298 -0.00940035 0)
(0.111876 -0.00822294 0)
(0.110847 -0.00711125 0)
(0.109903 -0.00606676 0)
(0.109052 -0.00508925 0)
(0.108299 -0.00417717 0)
(0.107645 -0.00332791 0)
(0.107091 -0.00253811 0)
(0.106634 -0.00180386 0)
(0.106273 -0.00112091 0)
(0.106002 -0.000484831 0)
(0.105818 0.00010884 0)
(0.105714 0.000664543 0)
(0.105686 0.0011866 0)
(0.105727 0.0016792 0)
(0.105833 0.00214632 0)
(0.105997 0.00259177 0)
(0.106213 0.00301914 0)
(0.106478 0.00343182 0)
(0.106786 0.00383298 0)
(0.107131 0.00422561 0)
(0.10751 0.00461243 0)
(0.107918 0.00499605 0)
(0.10835 0.00537874 0)
(0.108804 0.00576272 0)
(0.109273 0.00614976 0)
(0.109756 0.00654168 0)
(0.110245 0.00693965 0)
(0.11074 0.00734521 0)
(0.111231 0.00775856 0)
(0.111721 0.00818127 0)
(0.112195 0.00861193 0)
(0.112659 0.00905294 0)
(0.113092 0.00949975 0)
(0.113508 0.00995749 0)
(0.113878 0.0104159 0)
(0.114216 0.0108849 0)
(0.00232784 0.00216819 0)
(0.0044458 0.00221944 0)
(0.00792496 0.00227528 0)
(0.00997987 0.00183819 0)
(0.0122545 0.00159148 0)
(0.0139726 0.00127913 0)
(0.0157283 0.00107035 0)
(0.0172332 0.000853446 0)
(0.0187359 0.000689378 0)
(0.0201071 0.000527105 0)
(0.0214674 0.000393065 0)
(0.0227513 0.000262167 0)
(0.024024 0.000146986 0)
(0.0252497 3.42638e-05 0)
(0.0264671 -6.97634e-05 0)
(0.0276558 -0.000172597 0)
(0.0288399 -0.000271148 0)
(0.0300082 -0.00036996 0)
(0.0311766 -0.000467619 0)
(0.0323391 -0.000567088 0)
(0.0335071 -0.000667913 0)
(0.0346778 -0.000772197 0)
(0.0358599 -0.000880095 0)
(0.0370529 -0.000993242 0)
(0.0382637 -0.00111224 0)
(0.0394936 -0.00123848 0)
(0.0407481 -0.00137294 0)