/*--------------------------------*- C++ -*----------------------------------*\
| =========                 |                                                 |
| \\      /  F ield         | OpenFOAM: The Open Source CFD Toolbox           |
|  \\    /   O peration     | Version:  4.1                                   |
|   \\  /    A nd           | Web:      www.OpenFOAM.org                      |
|    \\/     M anipulation  |                                                 |
\*---------------------------------------------------------------------------*/
FoamFile
{
    version     2.0;
    format      ascii;
    class       volScalarField;
    location    "167";
    object      p;
}
// * * * * * * * * * * * * * * * * * * * * * * * * * * * * * * * * * * * * * //

dimensions      [1 -1 -2 0 0 0 0];

internalField   nonuniform List<scalar> 
3264
(
0.712633
0.712631
0.71263
0.712628
0.712626
0.712625
0.712623
0.712621
0.712619
0.712617
0.712616
0.712614
0.712614
0.712615
0.712616
0.71262
0.712626
0.712635
0.712648
0.712665
0.712686
0.712713
0.712745
0.712784
0.712829
0.712882
0.712941
0.713008
0.713082
0.713162
0.713248
0.71334
0.713437
0.713538
0.713642
0.713747
0.713853
0.713959
0.714063
0.714163
0.714259
0.71435
0.714435
0.714513
0.714583
0.714645
0.714698
0.714744
0.714781
0.714811
0.714833
0.71485
0.71486
0.714866
0.714868
0.714867
0.714864
0.714859
0.714854
0.714848
0.714841
0.714835
0.714829
0.714823
0.714817
0.714812
0.714807
0.714803
0.7148
0.714798
0.714797
0.714797
0.7148
0.714805
0.714812
0.714823
0.714837
0.714854
0.714875
0.714899
0.714926
0.714957
0.71499
0.715026
0.715063
0.7151
0.715138
0.715175
0.715211
0.715244
0.715275
0.715302
0.715326
0.715345
0.715359
0.715369
0.715375
0.715377
0.715376
0.715371
0.715364
0.715355
0.715344
0.715332
0.715319
0.715306
0.715293
0.71528
0.715266
0.715253
0.715241
0.715229
0.715217
0.715205
0.715194
0.715183
0.715172
0.715161
0.71515
0.71514
0.715129
0.715119
0.715108
0.715098
0.715087
0.715077
0.715066
0.715056
0.715045
0.715035
0.715024
0.715013
0.715003
0.714992
0.714982
0.714971
0.71496
0.71495
0.714939
0.714929
0.714918
0.714907
0.714897
0.714886
0.714875
0.714865
0.714854
0.714844
0.714833
0.714822
0.714812
0.714801
0.71479
0.71478
0.714769
0.714759
0.714748
0.714737
0.714727
0.714716
0.714706
0.714695
0.714684
0.714674
0.714663
0.714652
0.714642
0.714631
0.714621
0.71461
0.714599
0.714589
0.714578
0.714567
0.714557
0.714546
0.714536
0.714525
0.714514
0.714504
0.714493
0.714482
0.714472
0.714461
0.714451
0.71444
0.714429
0.714419
0.714408
0.714398
0.714387
0.714376
0.714366
0.714355
0.714344
0.714334
0.714323
0.714313
0.714302
0.714291
0.712634
0.712633
0.712632
0.712631
0.712629
0.712628
0.712626
0.712625
0.712623
0.712622
0.71262
0.712619
0.712619
0.712619
0.712621
0.712624
0.71263
0.712638
0.71265
0.712666
0.712686
0.712711
0.712742
0.71278
0.712824
0.712875
0.712934
0.712999
0.713072
0.713152
0.713238
0.713329
0.713426
0.713526
0.71363
0.713735
0.713841
0.713946
0.71405
0.714151
0.714247
0.714339
0.714424
0.714502
0.714572
0.714635
0.714689
0.714735
0.714773
0.714804
0.714827
0.714845
0.714856
0.714863
0.714867
0.714867
0.714865
0.714861
0.714856
0.714851
0.714844
0.714838
0.714832
0.714826
0.714821
0.714815
0.714811
0.714806
0.714803
0.7148
0.714798
0.714798
0.7148
0.714804
0.714811
0.714821
0.714834
0.714851
0.714871
0.714895
0.714922
0.714952
0.714985
0.715021
0.715058
0.715096
0.715134
0.715171
0.715207
0.715242
0.715273
0.715301
0.715325
0.715344
0.715359
0.71537
0.715376
0.715378
0.715377
0.715372
0.715365
0.715356
0.715345
0.715333
0.71532
0.715306
0.715293
0.71528
0.715266
0.715253
0.715241
0.715229
0.715217
0.715205
0.715194
0.715182
0.715172
0.715161
0.71515
0.71514
0.715129
0.715119
0.715108
0.715098
0.715087
0.715077
0.715066
0.715056
0.715045
0.715035
0.715024
0.715013
0.715003
0.714992
0.714982
0.714971
0.71496
0.71495
0.714939
0.714929
0.714918
0.714907
0.714897
0.714886
0.714875
0.714865
0.714854
0.714844
0.714833
0.714822
0.714812
0.714801
0.71479
0.71478
0.714769
0.714759
0.714748
0.714737
0.714727
0.714716
0.714706
0.714695
0.714684
0.714674
0.714663
0.714652
0.714642
0.714631
0.714621
0.71461
0.714599
0.714589
0.714578
0.714567
0.714557
0.714546
0.714536
0.714525
0.714514
0.714504
0.714493
0.714482
0.714472
0.714461
0.714451
0.71444
0.714429
0.714419
0.714408
0.714398
0.714387
0.714376
0.714366
0.714355
0.714344
0.714334
0.714323
0.714313
0.714302
0.714291
0.712637
0.712635
0.712633
0.712632
0.71263
0.712629
0.712627
0.712625
0.712623
0.712622
0.71262
0.712619
0.712618
0.712618
0.712619
0.712621
0.712626
0.712633
0.712644
0.712659
0.712678
0.712702
0.712733
0.71277
0.712813
0.712864
0.712922
0.712987
0.713059
0.713139
0.713224
0.713316
0.713412
0.713512
0.713615
0.713721
0.713827
0.713932
0.714035
0.714136
0.714232
0.714324
0.714408
0.714486
0.714557
0.714619
0.714674
0.71472
0.714758
0.714788
0.714812
0.714829
0.714842
0.714849
0.714853
0.714854
0.714853
0.714851
0.714848
0.714844
0.71484
0.714835
0.714831
0.714826
0.71482
0.714815
0.71481
0.714806
0.714802
0.714799
0.714798
0.714798
0.714799
0.714803
0.714809
0.714819
0.714832
0.714848
0.714868
0.714891
0.714918
0.714949
0.714982
0.715017
0.715054
0.715093
0.715131
0.715169
0.715206
0.71524
0.715272
0.715301
0.715325
0.715345
0.71536
0.715371
0.715377
0.715379
0.715378
0.715373
0.715366
0.715356
0.715345
0.715333
0.71532
0.715306
0.715293
0.715279
0.715266
0.715253
0.715241
0.715228
0.715216
0.715205
0.715193
0.715182
0.715171
0.715161
0.71515
0.71514
0.715129
0.715119
0.715108
0.715098
0.715087
0.715077
0.715066
0.715056
0.715045
0.715035
0.715024
0.715013
0.715003
0.714992
0.714982
0.714971
0.71496
0.71495
0.714939
0.714929
0.714918
0.714907
0.714897
0.714886
0.714875
0.714865
0.714854
0.714844
0.714833
0.714822
0.714812
0.714801
0.71479
0.71478
0.714769
0.714759
0.714748
0.714737
0.714727
0.714716
0.714706
0.714695
0.714684
0.714674
0.714663
0.714652
0.714642
0.714631
0.714621
0.71461
0.714599
0.714589
0.714578
0.714567
0.714557
0.714546
0.714536
0.714525
0.714514
0.714504
0.714493
0.714482
0.714472
0.714461
0.714451
0.71444
0.714429
0.714419
0.714408
0.714398
0.714387
0.714376
0.714366
0.714355
0.714344
0.714334
0.714323
0.714313
0.714302
0.714291
0.712632
0.712631
0.71263
0.71263
0.712628
0.712628
0.712626
0.712624
0.712623
0.712621
0.712619
0.712617
0.712616
0.712615
0.712615
0.712617
0.712621
0.712627
0.712637
0.71265
0.712668
0.712692
0.712721
0.712757
0.7128
0.71285
0.712907
0.712972
0.713044
0.713122
0.713207
0.713298
0.713394
0.713493
0.713596
0.7137
0.713805
0.713909
0.714011
0.71411
0.714205
0.714294
0.714377
0.714453
0.714522
0.714582
0.714635
0.714679
0.714715
0.714744
0.714767
0.714784
0.714796
0.714803
0.714808
0.714811
0.714812
0.714813
0.714813
0.714813
0.714812
0.714812
0.714812
0.714812
0.714811
0.71481
0.714808
0.714806
0.714803
0.714801
0.714799
0.714799
0.7148
0.714803
0.71481
0.714819
0.714831
0.714847
0.714867
0.71489
0.714917
0.714947
0.71498
0.715015
0.715052
0.71509
0.715129
0.715167
0.715204
0.715238
0.71527
0.715299
0.715323
0.715344
0.715359
0.71537
0.715376
0.715378
0.715377
0.715372
0.715365
0.715355
0.715344
0.715332
0.715319
0.715305
0.715292
0.715279
0.715266
0.715253
0.71524
0.715228
0.715216
0.715205
0.715193
0.715182
0.715171
0.715161
0.71515
0.71514
0.715129
0.715119
0.715108
0.715098
0.715087
0.715077
0.715066
0.715056
0.715045
0.715035
0.715024
0.715013
0.715003
0.714992
0.714982
0.714971
0.71496
0.71495
0.714939
0.714929
0.714918
0.714907
0.714897
0.714886
0.714875
0.714865
0.714854
0.714844
0.714833
0.714822
0.714812
0.714801
0.71479
0.71478
0.714769
0.714759
0.714748
0.714737
0.714727
0.714716
0.714706
0.714695
0.714684
0.714674
0.714663
0.714652
0.714642
0.714631
0.714621
0.71461
0.714599
0.714589
0.714578
0.714567
0.714557
0.714546
0.714536
0.714525
0.714514
0.714504
0.714493
0.714482
0.714472
0.714461
0.714451
0.71444
0.714429
0.714419
0.714408
0.714398
0.714387
0.714376
0.714366
0.714355
0.714344
0.714334
0.714323
0.714313
0.714302
0.714291
0.71263
0.71263
0.712627
0.712627
0.712625
0.712624
0.712622
0.712621
0.71262
0.712618
0.712616
0.712614
0.712613
0.712612
0.712611
0.712613
0.712616
0.712621
0.71263
0.712643
0.712661
0.712684
0.712713
0.712748
0.712791
0.71284
0.712897
0.712961
0.713033
0.713111
0.713195
0.713285
0.713379
0.713477
0.713578
0.71368
0.713782
0.713883
0.713982
0.714078
0.714169
0.714254
0.714333
0.714404
0.714467
0.714523
0.71457
0.71461
0.714642
0.714667
0.714686
0.714699
0.714709
0.714716
0.714721
0.714724
0.714728
0.714731
0.714736
0.714741
0.714747
0.714754
0.714761
0.714769
0.714776
0.714783
0.714789
0.714794
0.714798
0.714801
0.714803
0.714806
0.714809
0.714813
0.714819
0.714828
0.71484
0.714856
0.714875
0.714897
0.714923
0.714953
0.714985
0.715019
0.715055
0.715093
0.71513
0.715168
0.715204
0.715238
0.715269
0.715297
0.715322
0.715341
0.715356
0.715367
0.715373
0.715375
0.715373
0.715368
0.715361
0.715351
0.715341
0.715329
0.715316
0.715303
0.71529
0.715277
0.715265
0.715252
0.71524
0.715228
0.715216
0.715205
0.715193
0.715182
0.715172
0.715161
0.71515
0.71514
0.715129
0.715119
0.715108
0.715098
0.715087
0.715077
0.715066
0.715056
0.715045
0.715035
0.715024
0.715013
0.715003
0.714992
0.714982
0.714971
0.71496
0.71495
0.714939
0.714929
0.714918
0.714907
0.714897
0.714886
0.714875
0.714865
0.714854
0.714844
0.714833
0.714822
0.714812
0.714801
0.71479
0.71478
0.714769
0.714759
0.714748
0.714737
0.714727
0.714716
0.714706
0.714695
0.714684
0.714674
0.714663
0.714652
0.714642
0.714631
0.714621
0.71461
0.714599
0.714589
0.714578
0.714567
0.714557
0.714546
0.714536
0.714525
0.714514
0.714504
0.714493
0.714482
0.714472
0.714461
0.714451
0.71444
0.714429
0.714419
0.714408
0.714398
0.714387
0.714376
0.714366
0.714355
0.714344
0.714334
0.714323
0.714313
0.714302
0.714291
0.712598
0.712613
0.712613
0.712619
0.71262
0.712621
0.712621
0.71262
0.712619
0.712618
0.712616
0.712614
0.712613
0.712611
0.712611
0.712612
0.712614
0.71262
0.712628
0.712641
0.712659
0.712682
0.712711
0.712746
0.712788
0.712838
0.712894
0.712958
0.713029
0.713106
0.713189
0.713277
0.713369
0.713465
0.713562
0.713661
0.713759
0.713856
0.71395
0.714039
0.714124
0.714202
0.714273
0.714337
0.714393
0.71444
0.714479
0.714511
0.714536
0.714554
0.714567
0.714577
0.714583
0.714588
0.714592
0.714596
0.714602
0.71461
0.714619
0.714631
0.714644
0.71466
0.714677
0.714695
0.714713
0.714731
0.714749
0.714765
0.714779
0.714792
0.714804
0.714814
0.714823
0.714832
0.714841
0.714852
0.714865
0.71488
0.714898
0.71492
0.714944
0.714972
0.715002
0.715034
0.715069
0.715104
0.71514
0.715175
0.715209
0.715242
0.715271
0.715298
0.71532
0.715339
0.715352
0.715362
0.715367
0.715369
0.715367
0.715362
0.715355
0.715346
0.715335
0.715324
0.715312
0.7153
0.715288
0.715275
0.715263
0.715251
0.715239
0.715227
0.715216
0.715205
0.715194
0.715183
0.715172
0.715161
0.715151
0.71514
0.715129
0.715119
0.715108
0.715098
0.715087
0.715077
0.715066
0.715056
0.715045
0.715035
0.715024
0.715013
0.715003
0.714992
0.714982
0.714971
0.71496
0.71495
0.714939
0.714929
0.714918
0.714907
0.714897
0.714886
0.714875
0.714865
0.714854
0.714844
0.714833
0.714822
0.714812
0.714801
0.71479
0.71478
0.714769
0.714759
0.714748
0.714737
0.714727
0.714716
0.714706
0.714695
0.714684
0.714674
0.714663
0.714652
0.714642
0.714631
0.714621
0.71461
0.714599
0.714589
0.714578
0.714567
0.714557
0.714546
0.714536
0.714525
0.714514
0.714504
0.714493
0.714482
0.714472
0.714461
0.714451
0.71444
0.714429
0.714419
0.714408
0.714398
0.714387
0.714376
0.714366
0.714355
0.714344
0.714334
0.714323
0.714313
0.714302
0.714291
0.712598
0.712615
0.712614
0.712618
0.712618
0.71262
0.71262
0.71262
0.71262
0.712619
0.712617
0.712616
0.712614
0.712613
0.712613
0.712614
0.712617
0.712623
0.712632
0.712646
0.712664
0.712688
0.712717
0.712754
0.712797
0.712847
0.712904
0.712967
0.713038
0.713114
0.713196
0.713282
0.713371
0.713464
0.713557
0.713651
0.713743
0.713833
0.71392
0.714001
0.714076
0.714145
0.714206
0.714259
0.714304
0.71434
0.714369
0.714391
0.714406
0.714416
0.714423
0.714427
0.71443
0.714433
0.714437
0.714443
0.714452
0.714464
0.714479
0.714498
0.71452
0.714545
0.714572
0.714601
0.714631
0.714662
0.714692
0.714721
0.714749
0.714775
0.714799
0.71482
0.714839
0.714857
0.714873
0.714889
0.714906
0.714923
0.714942
0.714962
0.714985
0.715011
0.715038
0.715067
0.715098
0.71513
0.715162
0.715193
0.715224
0.715253
0.715279
0.715302
0.715322
0.715338
0.715349
0.715357
0.715361
0.715361
0.715359
0.715354
0.715347
0.715338
0.715329
0.715318
0.715307
0.715296
0.715284
0.715273
0.715261
0.71525
0.715238
0.715227
0.715216
0.715205
0.715194
0.715183
0.715172
0.715162
0.715151
0.71514
0.71513
0.715119
0.715109
0.715098
0.715088
0.715077
0.715066
0.715056
0.715045
0.715035
0.715024
0.715014
0.715003
0.714992
0.714982
0.714971
0.71496
0.71495
0.714939
0.714929
0.714918
0.714907
0.714897
0.714886
0.714875
0.714865
0.714854
0.714844
0.714833
0.714822
0.714812
0.714801
0.71479
0.71478
0.714769
0.714759
0.714748
0.714737
0.714727
0.714716
0.714706
0.714695
0.714684
0.714674
0.714663
0.714652
0.714642
0.714631
0.714621
0.71461
0.714599
0.714589
0.714578
0.714567
0.714557
0.714546
0.714536
0.714525
0.714514
0.714504
0.714493
0.714482
0.714472
0.714461
0.714451
0.71444
0.714429
0.714419
0.714408
0.714398
0.714387
0.714376
0.714366
0.714355
0.714344
0.714334
0.714323
0.714313
0.714302
0.714291
0.712441
0.712582
0.7126
0.712622
0.712625
0.712628
0.712628
0.712628
0.712627
0.712625
0.712624
0.712622
0.712621
0.712621
0.712621
0.712623
0.712628
0.712635
0.712646
0.712662
0.712682
0.712708
0.712739
0.712778
0.712822
0.712874
0.712932
0.712996
0.713067
0.713142
0.713222
0.713306
0.713393
0.713481
0.713569
0.713656
0.71374
0.713821
0.713898
0.713968
0.714032
0.714088
0.714136
0.714176
0.714208
0.714232
0.714249
0.71426
0.714267
0.71427
0.714272
0.714272
0.714273
0.714277
0.714282
0.714292
0.714305
0.714322
0.714344
0.71437
0.7144
0.714434
0.714471
0.71451
0.714551
0.714593
0.714635
0.714677
0.714717
0.714756
0.714792
0.714825
0.714856
0.714885
0.71491
0.714934
0.714957
0.714978
0.715
0.715021
0.715044
0.715067
0.715092
0.715117
0.715143
0.71517
0.715197
0.715223
0.715248
0.715272
0.715293
0.715312
0.715327
0.715339
0.715347
0.715353
0.715355
0.715354
0.71535
0.715345
0.715338
0.71533
0.715321
0.715312
0.715302
0.715291
0.71528
0.71527
0.715259
0.715248
0.715237
0.715226
0.715216
0.715205
0.715194
0.715183
0.715173
0.715162
0.715151
0.715141
0.71513
0.71512
0.715109
0.715098
0.715088
0.715077
0.715067
0.715056
0.715045
0.715035
0.715024
0.715014
0.715003
0.714992
0.714982
0.714971
0.71496
0.71495
0.714939
0.714929
0.714918
0.714907
0.714897
0.714886
0.714875
0.714865
0.714854
0.714844
0.714833
0.714822
0.714812
0.714801
0.71479
0.71478
0.714769
0.714759
0.714748
0.714737
0.714727
0.714716
0.714706
0.714695
0.714684
0.714674
0.714663
0.714652
0.714642
0.714631
0.714621
0.71461
0.714599
0.714589
0.714578
0.714567
0.714557
0.714546
0.714536
0.714525
0.714514
0.714504
0.714493
0.714482
0.714472
0.714461
0.714451
0.71444
0.714429
0.714419
0.714408
0.714398
0.714387
0.714376
0.714366
0.714355
0.714344
0.714334
0.714323
0.714313
0.714302
0.714291
0.713183
0.713127
0.713064
0.712997
0.712923
0.712844
0.712756
0.712635
0.71319
0.713144
0.71308
0.713011
0.712937
0.712858
0.712766
0.712667
0.713195
0.713156
0.713098
0.713032
0.712962
0.71289
0.712818
0.712747
0.713206
0.713172
0.713119
0.713058
0.712993
0.712929
0.712865
0.712807
0.713219
0.713187
0.713138
0.713082
0.713023
0.712966
0.712912
0.712865
0.713234
0.713202
0.713154
0.7131
0.713046
0.712995
0.712948
0.712907
0.71325
0.713213
0.713164
0.713112
0.713061
0.713014
0.712971
0.712933
0.713258
0.713211
0.713162
0.713112
0.713065
0.71302
0.712978
0.712941
0.712569
0.712589
0.71261
0.712621
0.712628
0.712631
0.712632
0.712632
0.712632
0.712632
0.712632
0.712632
0.712633
0.712635
0.712638
0.712643
0.712651
0.712662
0.712676
0.712696
0.71272
0.712749
0.712785
0.712827
0.712875
0.712929
0.712989
0.713054
0.713125
0.7132
0.713278
0.713358
0.71344
0.713522
0.713603
0.713681
0.713755
0.713824
0.713888
0.713945
0.713994
0.714036
0.71407
0.714096
0.714115
0.714128
0.714135
0.714138
0.714139
0.714138
0.714138
0.714138
0.714141
0.714147
0.714156
0.71417
0.714188
0.714211
0.714239
0.714271
0.714308
0.714349
0.714393
0.71444
0.714489
0.71454
0.714591
0.714643
0.714693
0.714742
0.714789
0.714834
0.714875
0.714914
0.714949
0.714981
0.71501
0.715037
0.715063
0.715087
0.71511
0.715132
0.715154
0.715176
0.715198
0.71522
0.715241
0.715261
0.71528
0.715297
0.715312
0.715325
0.715335
0.715342
0.715347
0.715349
0.715349
0.715346
0.715342
0.715337
0.71533
0.715322
0.715314
0.715305
0.715296
0.715286
0.715277
0.715267
0.715257
0.715246
0.715236
0.715226
0.715215
0.715205
0.715194
0.715184
0.715173
0.715162
0.715152
0.715141
0.715131
0.71512
0.715109
0.715099
0.715088
0.715077
0.715067
0.715056
0.715045
0.715035
0.715024
0.715014
0.715003
0.714992
0.714982
0.714971
0.71496
0.71495
0.714939
0.714929
0.714918
0.714907
0.714897
0.714886
0.714875
0.714865
0.714854
0.714844
0.714833
0.714822
0.714812
0.714801
0.71479
0.71478
0.714769
0.714759
0.714748
0.714737
0.714727
0.714716
0.714706
0.714695
0.714684
0.714674
0.714663
0.714652
0.714642
0.714631
0.714621
0.71461
0.714599
0.714589
0.714578
0.714567
0.714557
0.714546
0.714536
0.714525
0.714514
0.714504
0.714493
0.714482
0.714472
0.714461
0.714451
0.71444
0.714429
0.714419
0.714408
0.714398
0.714387
0.714376
0.714366
0.714355
0.714344
0.714334
0.714323
0.714313
0.714302
0.714291
0.712593
0.712602
0.712615
0.712628
0.712637
0.712642
0.712645
0.712647
0.712649
0.712651
0.712653
0.712656
0.71266
0.712665
0.712673
0.712682
0.712695
0.712711
0.712732
0.712756
0.712786
0.712822
0.712863
0.712909
0.712961
0.713019
0.713081
0.713147
0.713217
0.71329
0.713365
0.71344
0.713515
0.713588
0.713658
0.713724
0.713785
0.71384
0.713889
0.71393
0.713964
0.713991
0.714011
0.714025
0.714035
0.71404
0.714042
0.714043
0.714043
0.714044
0.714046
0.71405
0.714056
0.714065
0.714079
0.714096
0.714118
0.714145
0.714176
0.714212
0.714253
0.714297
0.714346
0.714398
0.714452
0.714509
0.714567
0.714625
0.714683
0.71474
0.714794
0.714847
0.714897
0.714943
0.714986
0.715025
0.71506
0.715093
0.715122
0.715148
0.715173
0.715195
0.715215
0.715234
0.715252
0.715269
0.715284
0.715299
0.715311
0.715322
0.715331
0.715338
0.715343
0.715346
0.715347
0.715346
0.715343
0.71534
0.715335
0.715329
0.715322
0.715315
0.715307
0.715299
0.715291
0.715282
0.715273
0.715264
0.715255
0.715245
0.715235
0.715225
0.715215
0.715205
0.715194
0.715184
0.715173
0.715163
0.715152
0.715142
0.715131
0.71512
0.71511
0.715099
0.715088
0.715077
0.715067
0.715056
0.715045
0.715035
0.715024
0.715014
0.715003
0.714992
0.714982
0.714971
0.71496
0.71495
0.714939
0.714929
0.714918
0.714907
0.714897
0.714886
0.714875
0.714865
0.714854
0.714844
0.714833
0.714822
0.714812
0.714801
0.71479
0.71478
0.714769
0.714759
0.714748
0.714737
0.714727
0.714716
0.714706
0.714695
0.714684
0.714674
0.714663
0.714652
0.714642
0.714631
0.714621
0.71461
0.714599
0.714589
0.714578
0.714567
0.714557
0.714546
0.714536
0.714525
0.714514
0.714504
0.714493
0.714482
0.714472
0.714461
0.714451
0.71444
0.714429
0.714419
0.714408
0.714398
0.714387
0.714376
0.714366
0.714355
0.714344
0.714334
0.714323
0.714313
0.714302
0.714291
0.712694
0.712669
0.712664
0.712664
0.712667
0.712669
0.712672
0.712674
0.712677
0.712681
0.712686
0.712693
0.712701
0.712711
0.712724
0.71274
0.71276
0.712783
0.71281
0.712842
0.71288
0.712922
0.712969
0.713021
0.713077
0.713137
0.713201
0.713267
0.713335
0.713404
0.713473
0.71354
0.713605
0.713667
0.713723
0.713774
0.713819
0.713858
0.71389
0.713916
0.713936
0.713952
0.713965
0.713974
0.71398
0.713985
0.713988
0.713991
0.713994
0.713997
0.714002
0.714009
0.714018
0.71403
0.714046
0.714065
0.714088
0.714116
0.714148
0.714186
0.714228
0.714275
0.714325
0.71438
0.714437
0.714497
0.714558
0.714621
0.714683
0.714745
0.714805
0.714863
0.714918
0.71497
0.715018
0.715063
0.715103
0.715139
0.715171
0.715199
0.715224
0.715246
0.715266
0.715283
0.715297
0.71531
0.715321
0.71533
0.715337
0.715343
0.715346
0.715349
0.715349
0.715349
0.715346
0.715343
0.715339
0.715334
0.715329
0.715322
0.715316
0.715309
0.715302
0.715294
0.715286
0.715278
0.71527
0.715262
0.715253
0.715244
0.715234
0.715225
0.715215
0.715205
0.715195
0.715184
0.715174
0.715163
0.715153
0.715142
0.715131
0.715121
0.71511
0.715099
0.715088
0.715078
0.715067
0.715056
0.715046
0.715035
0.715024
0.715014
0.715003
0.714992
0.714982
0.714971
0.71496
0.71495
0.714939
0.714929
0.714918
0.714907
0.714897
0.714886
0.714875
0.714865
0.714854
0.714844
0.714833
0.714822
0.714812
0.714801
0.71479
0.71478
0.714769
0.714759
0.714748
0.714737
0.714727
0.714716
0.714706
0.714695
0.714684
0.714674
0.714663
0.714652
0.714642
0.714631
0.714621
0.71461
0.714599
0.714589
0.714578
0.714567
0.714557
0.714546
0.714536
0.714525
0.714514
0.714504
0.714493
0.714482
0.714472
0.714461
0.714451
0.71444
0.714429
0.714419
0.714408
0.714398
0.714387
0.714376
0.714366
0.714355
0.714344
0.714334
0.714323
0.714313
0.714302
0.714291
0.712761
0.712733
0.71272
0.712713
0.712711
0.71271
0.712711
0.712713
0.712717
0.712722
0.71273
0.71274
0.712752
0.712768
0.712786
0.712808
0.712835
0.712865
0.7129
0.712939
0.712983
0.713032
0.713085
0.713142
0.713202
0.713264
0.713327
0.713391
0.713454
0.713516
0.713575
0.713632
0.713684
0.71373
0.713771
0.713806
0.713836
0.713862
0.713885
0.713903
0.713918
0.713929
0.713938
0.713945
0.713952
0.713959
0.713965
0.713972
0.713979
0.713985
0.713992
0.714
0.71401
0.714022
0.714037
0.714056
0.71408
0.714108
0.714141
0.714179
0.714222
0.714269
0.714321
0.714377
0.714436
0.714498
0.714561
0.714626
0.714691
0.714756
0.714819
0.71488
0.714939
0.714994
0.715045
0.715092
0.715135
0.715173
0.715207
0.715236
0.715262
0.715284
0.715302
0.715317
0.715329
0.715339
0.715346
0.715351
0.715355
0.715357
0.715357
0.715356
0.715354
0.71535
0.715346
0.715341
0.715336
0.71533
0.715324
0.715318
0.715311
0.715304
0.715297
0.71529
0.715283
0.715276
0.715268
0.71526
0.715251
0.715243
0.715234
0.715224
0.715215
0.715205
0.715195
0.715184
0.715174
0.715164
0.715153
0.715142
0.715131
0.715121
0.71511
0.715099
0.715088
0.715078
0.715067
0.715056
0.715046
0.715035
0.715024
0.715014
0.715003
0.714992
0.714982
0.714971
0.71496
0.71495
0.714939
0.714929
0.714918
0.714907
0.714897
0.714886
0.714875
0.714865
0.714854
0.714844
0.714833
0.714822
0.714812
0.714801
0.71479
0.71478
0.714769
0.714759
0.714748
0.714737
0.714727
0.714716
0.714706
0.714695
0.714684
0.714674
0.714663
0.714652
0.714642
0.714631
0.714621
0.71461
0.714599
0.714589
0.714578
0.714567
0.714557
0.714546
0.714536
0.714525
0.714514
0.714504
0.714493
0.714482
0.714472
0.714461
0.714451
0.71444
0.714429
0.714419
0.714408
0.714398
0.714387
0.714376
0.714366
0.714355
0.714344
0.714334
0.714323
0.714313
0.714302
0.714291
0.712827
0.712799
0.712781
0.712769
0.712761
0.712757
0.712755
0.712756
0.712759
0.712765
0.712774
0.712787
0.712803
0.712822
0.712846
0.712874
0.712906
0.712943
0.712984
0.713029
0.713079
0.713133
0.71319
0.713249
0.71331
0.71337
0.713429
0.713486
0.713541
0.713593
0.713642
0.713688
0.71373
0.713766
0.713797
0.713821
0.713841
0.713856
0.713868
0.713881
0.713894
0.713909
0.713923
0.713937
0.713948
0.713958
0.713966
0.713972
0.713978
0.713984
0.713991
0.713999
0.714009
0.714021
0.714037
0.714057
0.714081
0.71411
0.714144
0.714182
0.714225
0.714273
0.714326
0.714382
0.714442
0.714505
0.71457
0.714635
0.714702
0.714768
0.714832
0.714895
0.714955
0.715011
0.715064
0.715113
0.715157
0.715196
0.71523
0.71526
0.715285
0.715306
0.715324
0.715338
0.715348
0.715356
0.715361
0.715364
0.715365
0.715365
0.715363
0.71536
0.715356
0.715351
0.715346
0.71534
0.715333
0.715327
0.715321
0.715314
0.715308
0.715301
0.715295
0.715288
0.715281
0.715274
0.715266
0.715259
0.715251
0.715242
0.715233
0.715224
0.715215
0.715205
0.715195
0.715185
0.715174
0.715164
0.715153
0.715142
0.715132
0.715121
0.71511
0.715099
0.715089
0.715078
0.715067
0.715056
0.715046
0.715035
0.715024
0.715014
0.715003
0.714992
0.714982
0.714971
0.71496
0.71495
0.714939
0.714929
0.714918
0.714907
0.714897
0.714886
0.714875
0.714865
0.714854
0.714844
0.714833
0.714822
0.714812
0.714801
0.71479
0.71478
0.714769
0.714759
0.714748
0.714737
0.714727
0.714716
0.714706
0.714695
0.714684
0.714674
0.714663
0.714652
0.714642
0.714631
0.714621
0.71461
0.714599
0.714589
0.714578
0.714567
0.714557
0.714546
0.714536
0.714525
0.714514
0.714504
0.714493
0.714482
0.714472
0.714461
0.714451
0.71444
0.714429
0.714419
0.714408
0.714398
0.714387
0.714376
0.714366
0.714355
0.714344
0.714334
0.714323
0.714313
0.714302
0.714291
0.712873
0.712846
0.712825
0.71281
0.712799
0.712791
0.712787
0.712786
0.712789
0.712795
0.712806
0.712821
0.712839
0.712862
0.71289
0.712921
0.712957
0.712997
0.713042
0.71309
0.713143
0.713198
0.713256
0.713315
0.713374
0.713431
0.713486
0.713538
0.713586
0.71363
0.71367
0.713704
0.713732
0.713754
0.713773
0.713793
0.713816
0.713839
0.713861
0.713881
0.713899
0.713913
0.713926
0.713936
0.713946
0.713954
0.713962
0.713969
0.713976
0.713983
0.713992
0.714001
0.714012
0.714026
0.714043
0.714063
0.714088
0.714117
0.714151
0.71419
0.714234
0.714283
0.714336
0.714393
0.714453
0.714516
0.714581
0.714647
0.714714
0.71478
0.714845
0.714908
0.714968
0.715025
0.715078
0.715126
0.71517
0.71521
0.715244
0.715273
0.715298
0.715319
0.715336
0.715348
0.715358
0.715365
0.715369
0.715371
0.715371
0.715369
0.715366
0.715362
0.715357
0.715351
0.715345
0.715338
0.715332
0.715325
0.715319
0.715312
0.715306
0.715299
0.715293
0.715287
0.71528
0.715273
0.715266
0.715258
0.71525
0.715242
0.715233
0.715224
0.715214
0.715205
0.715195
0.715185
0.715174
0.715164
0.715153
0.715142
0.715132
0.715121
0.71511
0.715099
0.715089
0.715078
0.715067
0.715056
0.715046
0.715035
0.715024
0.715014
0.715003
0.714992
0.714982
0.714971
0.71496
0.71495
0.714939
0.714929
0.714918
0.714907
0.714897
0.714886
0.714875
0.714865
0.714854
0.714844
0.714833
0.714822
0.714812
0.714801
0.71479
0.71478
0.714769
0.714759
0.714748
0.714737
0.714727
0.714716
0.714706
0.714695
0.714684
0.714674
0.714663
0.714652
0.714642
0.714631
0.714621
0.71461
0.714599
0.714589
0.714578
0.714567
0.714557
0.714546
0.714536
0.714525
0.714514
0.714504
0.714493
0.714482
0.714472
0.714461
0.714451
0.71444
0.714429
0.714419
0.714408
0.714398
0.714387
0.714376
0.714366
0.714355
0.714344
0.714334
0.714323
0.714313
0.714302
0.714291
0.7129
0.712873
0.712851
0.712833
0.712819
0.712809
0.712803
0.712802
0.712805
0.712812
0.712824
0.71284
0.71286
0.712885
0.712914
0.712947
0.712985
0.713027
0.713073
0.713122
0.713175
0.713229
0.713286
0.713341
0.713395
0.713445
0.71349
0.713531
0.713569
0.713607
0.713645
0.713683
0.713718
0.71375
0.713778
0.713803
0.713824
0.713844
0.713861
0.713877
0.713893
0.713907
0.71392
0.713932
0.713943
0.713952
0.713961
0.713969
0.713976
0.713984
0.713992
0.714002
0.714014
0.714029
0.714047
0.714068
0.714094
0.714124
0.714158
0.714198
0.714242
0.714291
0.714344
0.714401
0.714461
0.714524
0.714589
0.714655
0.714722
0.714788
0.714852
0.714915
0.714975
0.715032
0.715085
0.715133
0.715177
0.715215
0.715249
0.715279
0.715303
0.715324
0.71534
0.715352
0.715361
0.715367
0.715371
0.715372
0.715372
0.715369
0.715366
0.715361
0.715356
0.71535
0.715344
0.715338
0.715331
0.715325
0.715318
0.715312
0.715305
0.715299
0.715293
0.715286
0.715279
0.715272
0.715265
0.715258
0.71525
0.715241
0.715233
0.715224
0.715214
0.715205
0.715195
0.715184
0.715174
0.715164
0.715153
0.715142
0.715132
0.715121
0.71511
0.715099
0.715089
0.715078
0.715067
0.715056
0.715046
0.715035
0.715024
0.715014
0.715003
0.714992
0.714982
0.714971
0.71496
0.71495
0.714939
0.714929
0.714918
0.714907
0.714897
0.714886
0.714875
0.714865
0.714854
0.714844
0.714833
0.714822
0.714812
0.714801
0.71479
0.71478
0.714769
0.714759
0.714748
0.714737
0.714727
0.714716
0.714706
0.714695
0.714684
0.714674
0.714663
0.714652
0.714642
0.714631
0.714621
0.71461
0.714599
0.714589
0.714578
0.714567
0.714557
0.714546
0.714536
0.714525
0.714514
0.714504
0.714493
0.714482
0.714472
0.714461
0.714451
0.71444
0.714429
0.714419
0.714408
0.714398
0.714387
0.714376
0.714366
0.714355
0.714344
0.714334
0.714323
0.714313
0.714302
0.714291
0.712907
0.712878
0.712854
0.712834
0.712818
0.712807
0.712801
0.712799
0.712802
0.71281
0.712821
0.712837
0.712858
0.712882
0.71291
0.712943
0.712979
0.713019
0.713062
0.713109
0.713159
0.713211
0.713265
0.713319
0.713373
0.713425
0.713475
0.713522
0.713566
0.713608
0.713648
0.713684
0.713716
0.713744
0.71377
0.713793
0.713816
0.713837
0.713857
0.713875
0.713891
0.713906
0.713919
0.71393
0.71394
0.713949
0.713958
0.713966
0.713974
0.713982
0.713991
0.714002
0.714015
0.71403
0.714049
0.714071
0.714097
0.714128
0.714164
0.714204
0.714249
0.714298
0.714352
0.714409
0.714469
0.714533
0.714598
0.714664
0.71473
0.714796
0.714861
0.714923
0.714983
0.715039
0.715091
0.715139
0.715182
0.715221
0.715254
0.715283
0.715307
0.715326
0.715342
0.715354
0.715362
0.715368
0.715371
0.715372
0.715371
0.715369
0.715365
0.715361
0.715355
0.71535
0.715343
0.715337
0.715331
0.715324
0.715318
0.715312
0.715305
0.715299
0.715293
0.715286
0.715279
0.715272
0.715265
0.715258
0.71525
0.715241
0.715233
0.715224
0.715214
0.715205
0.715195
0.715184
0.715174
0.715164
0.715153
0.715142
0.715132
0.715121
0.71511
0.715099
0.715089
0.715078
0.715067
0.715056
0.715046
0.715035
0.715024
0.715014
0.715003
0.714992
0.714982
0.714971
0.71496
0.71495
0.714939
0.714929
0.714918
0.714907
0.714897
0.714886
0.714875
0.714865
0.714854
0.714844
0.714833
0.714822
0.714812
0.714801
0.71479
0.71478
0.714769
0.714759
0.714748
0.714737
0.714727
0.714716
0.714706
0.714695
0.714684
0.714674
0.714663
0.714652
0.714642
0.714631
0.714621
0.71461
0.714599
0.714589
0.714578
0.714567
0.714557
0.714546
0.714536
0.714525
0.714514
0.714504
0.714493
0.714482
0.714472
0.714461
0.714451
0.71444
0.714429
0.714419
0.714408
0.714398
0.714387
0.714376
0.714366
0.714355
0.714344
0.714334
0.714323
0.714313
0.714302
0.714291
)
;

boundaryField
{
    inlet
    {
        type            zeroGradient;
    }
    outlet
    {