/*--------------------------------*- C++ -*----------------------------------*\
| =========                 |                                                 |
| \\      /  F ield         | OpenFOAM: The Open Source CFD Toolbox           |
|  \\    /   O peration     | Version:  4.1                                   |
|   \\  /    A nd           | Web:      www.OpenFOAM.org                      |
|    \\/     M anipulation  |                                                 |
\*---------------------------------------------------------------------------*/
FoamFile
{
    version     2.0;
    format      ascii;
    class       volVectorField;
    location    "600";
    object      U;
}
// * * * * * * * * * * * * * * * * * * * * * * * * * * * * * * * * * * * * * //

dimensions      [0 1 -1 0 0 0 0];

internalField   nonuniform List<vector> 
3264
(
(-2.64718e-06 -4.91334e-07 0)
(-0.000133151 3.05546e-05 0)
(-0.000389787 4.86579e-05 0)
(-0.000677098 5.09955e-05 0)
(-0.000979127 5.27209e-05 0)
(-0.00128526 5.2126e-05 0)
(-0.00159016 5.34264e-05 0)
(-0.0018952 5.40702e-05 0)
(-0.0021958 5.51753e-05 0)
(-0.00249267 5.58031e-05 0)
(-0.00278326 5.63645e-05 0)
(-0.00306777 5.66156e-05 0)
(-0.00334516 5.67197e-05 0)
(-0.00361552 5.66399e-05 0)
(-0.00387855 5.64509e-05 0)
(-0.00413439 5.61672e-05 0)
(-0.00438307 5.58295e-05 0)
(-0.00462477 5.54593e-05 0)
(-0.00485965 5.50825e-05 0)
(-0.00508792 5.47173e-05 0)
(-0.0053098 5.43815e-05 0)
(-0.0055255 5.40889e-05 0)
(-0.00573521 5.38515e-05 0)
(-0.0059391 5.36781e-05 0)
(-0.0061373 5.35747e-05 0)
(-0.00632991 5.35437e-05 0)
(-0.00651694 5.35834e-05 0)
(-0.00669834 5.36874e-05 0)
(-0.00687396 5.38434e-05 0)
(-0.00704355 5.40329e-05 0)
(-0.00720672 5.42302e-05 0)
(-0.00736296 5.44021e-05 0)
(-0.0075116 5.45073e-05 0)
(-0.00765181 5.44965e-05 0)
(-0.00778258 5.43131e-05 0)
(-0.00790275 5.38934e-05 0)
(-0.00801096 5.31687e-05 0)
(-0.00810572 5.20662e-05 0)
(-0.00818537 5.05123e-05 0)
(-0.00824812 4.84344e-05 0)
(-0.00829211 4.57641e-05 0)
(-0.00831536 4.24403e-05 0)
(-0.0083159 3.84123e-05 0)
(-0.00829174 3.36424e-05 0)
(-0.00824097 2.81086e-05 0)
(-0.00816175 2.18064e-05 0)
(-0.0080524 1.47503e-05 0)
(-0.00791143 6.9749e-06 0)
(-0.00773758 -1.46552e-06 0)
(-0.00752986 -1.04972e-05 0)
(-0.00728759 -2.00283e-05 0)
(-0.00701042 -2.99506e-05 0)
(-0.00669836 -4.01418e-05 0)
(-0.00635181 -5.04684e-05 0)
(-0.00597153 -6.07886e-05 0)
(-0.00555869 -7.09555e-05 0)
(-0.00511481 -8.08206e-05 0)
(-0.00464181 -9.02373e-05 0)
(-0.00414195 -9.90639e-05 0)
(-0.00361781 -0.000107168 0)
(-0.00307227 -0.000114427 0)
(-0.00250847 -0.000120734 0)
(-0.00192976 -0.000126 0)
(-0.00133968 -0.000130151 0)
(-0.000741873 -0.000133139 0)
(-0.00014007 -0.000134933 0)
(0.000461977 -0.000135526 0)
(0.00106055 -0.000134934 0)
(0.00165202 -0.000133195 0)
(0.00223287 -0.000130367 0)
(0.00279979 -0.000126526 0)
(0.00334968 -0.000121766 0)
(0.00387972 -0.000116197 0)
(0.00438738 -0.000109936 0)
(0.00487045 -0.00010311 0)
(0.00532709 -9.58512e-05 0)
(0.0057558 -8.82908e-05 0)
(0.00615545 -8.05584e-05 0)
(0.0065253 -7.27773e-05 0)
(0.00686494 -6.50629e-05 0)
(0.00717431 -5.75191e-05 0)
(0.00745367 -5.02377e-05 0)
(0.00770356 -4.32963e-05 0)
(0.00792482 -3.67578e-05 0)
(0.00811847 -3.06703e-05 0)
(0.00828577 -2.50678e-05 0)
(0.00842811 -1.99703e-05 0)
(0.008547 -1.53856e-05 0)
(0.00864406 -1.13104e-05 0)
(0.00872096 -7.73189e-06 0)
(0.00877938 -4.62983e-06 0)
(0.00882101 -1.97782e-06 0)
(0.00884752 2.54818e-07 0)
(0.00886054 2.10165e-06 0)
(0.00886161 3.59775e-06 0)
(0.00885222 4.77853e-06 0)
(0.00883378 5.6789e-06 0)
(0.00880759 6.33245e-06 0)
(0.00877488 6.77094e-06 0)
(0.00873675 7.02397e-06 0)
(0.00869423 7.11871e-06 0)
(0.00864824 7.07985e-06 0)
(0.00859962 6.92956e-06 0)
(0.0085491 6.68762e-06 0)
(0.00849733 6.3715e-06 0)
(0.00844491 5.99655e-06 0)
(0.00839233 5.57617e-06 0)
(0.00834002 5.12197e-06 0)
(0.00828836 4.64398e-06 0)
(0.00823766 4.15081e-06 0)
(0.00818819 3.64982e-06 0)
(0.00814017 3.14724e-06 0)
(0.00809375 2.64833e-06 0)
(0.0080491 2.15748e-06 0)
(0.0080063 1.67831e-06 0)
(0.00796543 1.21378e-06 0)
(0.00792655 7.6627e-07 0)
(0.00788968 3.37631e-07 0)
(0.00785483 -7.07327e-08 0)
(0.007822 -4.57811e-07 0)
(0.00779117 -8.2294e-07 0)
(0.00776231 -1.16575e-06 0)
(0.00773538 -1.48615e-06 0)
(0.00771033 -1.78423e-06 0)
(0.00768712 -2.06031e-06 0)
(0.00766568 -2.31486e-06 0)
(0.00764597 -2.54848e-06 0)
(0.00762791 -2.76187e-06 0)
(0.00761146 -2.95584e-06 0)
(0.00759655 -3.13127e-06 0)
(0.00758312 -3.28909e-06 0)
(0.00757112 -3.43026e-06 0)
(0.00756048 -3.5558e-06 0)
(0.00755117 -3.66671e-06 0)
(0.00754312 -3.76403e-06 0)
(0.00753629 -3.84878e-06 0)
(0.00753063 -3.92198e-06 0)
(0.00752611 -3.98464e-06 0)
(0.00752269 -4.03773e-06 0)
(0.00752033 -4.08221e-06 0)
(0.007519 -4.11903e-06 0)
(0.00751868 -4.14908e-06 0)
(0.00751934 -4.17323e-06 0)
(0.00752096 -4.19232e-06 0)
(0.00752352 -4.20715e-06 0)
(0.00752701 -4.21846e-06 0)
(0.00753141 -4.22699e-06 0)
(0.00753671 -4.23342e-06 0)
(0.00754291 -4.23838e-06 0)
(0.00755 -4.24248e-06 0)
(0.00755797 -4.24628e-06 0)
(0.00756683 -4.2503e-06 0)
(0.00757657 -4.25502e-06 0)
(0.0075872 -4.26088e-06 0)
(0.00759871 -4.2683e-06 0)
(0.00761111 -4.27763e-06 0)
(0.0076244 -4.28921e-06 0)
(0.00763858 -4.30332e-06 0)
(0.00765367 -4.32021e-06 0)
(0.00766966 -4.34011e-06 0)
(0.00768655 -4.36318e-06 0)
(0.00770436 -4.38959e-06 0)
(0.00772309 -4.41943e-06 0)
(0.00774274 -4.45277e-06 0)
(0.00776331 -4.48966e-06 0)
(0.0077848 -4.53009e-06 0)
(0.00780722 -4.57404e-06 0)
(0.00783056 -4.62144e-06 0)
(0.00785482 -4.67219e-06 0)
(0.00788 -4.72614e-06 0)
(0.00790608 -4.78314e-06 0)
(0.00793306 -4.84297e-06 0)
(0.00796094 -4.90541e-06 0)
(0.00798969 -4.97018e-06 0)
(0.0080193 -5.03698e-06 0)
(0.00804975 -5.10548e-06 0)
(0.00808103 -5.17531e-06 0)
(0.0081131 -5.24608e-06 0)
(0.00814594 -5.31736e-06 0)
(0.00817951 -5.3887e-06 0)
(0.0082138 -5.4596e-06 0)
(0.00824875 -5.52954e-06 0)
(0.00828432 -5.59797e-06 0)
(0.00832049 -5.66431e-06 0)
(0.00835718 -5.72795e-06 0)
(0.00839437 -5.78826e-06 0)
(0.00843198 -5.84472e-06 0)
(0.00846998 -5.89671e-06 0)
(0.00850829 -5.94496e-06 0)
(0.00854686 -5.98729e-06 0)
(0.00858563 -6.03593e-06 0)
(0.00862455 -6.06555e-06 0)
(0.00866351 -6.17937e-06 0)
(0.00870284 -6.15949e-06 0)
(0.00874138 -6.651e-06 0)
(0.00878306 -6.4815e-06 0)
(0.00881778 -8.15276e-06 0)
(0.00887281 -9.21971e-06 0)
(0.00889105 -1.01367e-05 0)
(0.00899018 -3.08149e-05 0)
(-8.33817e-05 0.000136367 0)
(-0.000583096 0.000379252 0)
(-0.00131182 0.000518409 0)
(-0.00208685 0.000562608 0)
(-0.00286714 0.000583716 0)
(-0.00363585 0.000585597 0)
(-0.00437968 0.000585741 0)
(-0.00510156 0.000579286 0)
(-0.00579433 0.000570639 0)
(-0.00646023 0.000558795 0)
(-0.00709661 0.000545554 0)
(-0.00770496 0.000531113 0)
(-0.00828497 0.000516203 0)
(-0.00883785 0.000501071 0)
(-0.00936417 0.000486011 0)
(-0.00986496 0.000471163 0)
(-0.010341 0.000456643 0)
(-0.0107932 0.000442511 0)
(-0.0112222 0.000428801 0)
(-0.0116287 0.000415519 0)
(-0.0120132 0.00040265 0)
(-0.0123762 0.00039016 0)
(-0.012718 0.000377993 0)
(-0.0130387 0.000366074 0)
(-0.0133384 0.000354303 0)
(-0.0136167 0.000342556 0)
(-0.0138735 0.000330684 0)
(-0.014108 0.000318512 0)
(-0.0143195 0.000305837 0)
(-0.0145071 0.00029243 0)
(-0.0146693 0.000278038 0)
(-0.0148049 0.000262386 0)
(-0.014912 0.000245187 0)
(-0.0149888 0.00022614 0)
(-0.0150331 0.000204946 0)
(-0.0150427 0.000181312 0)
(-0.0150151 0.00015496 0)
(-0.0149478 0.000125643 0)
(-0.0148383 9.31499e-05 0)
(-0.014684 5.73167e-05 0)
(-0.0144823 1.80373e-05 0)
(-0.0142309 -2.47299e-05 0)
(-0.0139273 -7.09555e-05 0)
(-0.0135697 -0.000120535 0)
(-0.0131562 -0.000173286 0)
(-0.0126853 -0.00022895 0)
(-0.0121559 -0.000287192 0)
(-0.0115674 -0.000347606 0)
(-0.0109195 -0.000409721 0)
(-0.0102123 -0.000473008 0)
(-0.00944656 -0.000536891 0)
(-0.00862342 -0.000600753 0)
(-0.00774454 -0.00066395 0)
(-0.0068121 -0.000725821 0)
(-0.00582872 -0.000785697 0)
(-0.00479753 -0.000842919 0)
(-0.00372208 -0.00089684 0)
(-0.00260637 -0.000946846 0)
(-0.00145477 -0.000992356 0)
(-0.000271998 -0.00103284 0)
(0.000936913 -0.00106783 0)
(0.00216668 -0.00109692 0)
(0.0034118 -0.00111977 0)
(0.00466662 -0.00113613 0)
(0.00592541 -0.00114584 0)
(0.00718239 -0.0011488 0)
(0.00843179 -0.00114503 0)
(0.00966795 -0.00113463 0)
(0.0108853 -0.00111778 0)
(0.0120786 -0.00109476 0)
(0.0132428 -0.00106592 0)
(0.014373 -0.00103167 0)
(0.015465 -0.000992526 0)
(0.0165147 -0.000949017 0)
(0.0175185 -0.000901739 0)
(0.0184734 -0.000851312 0)
(0.0193768 -0.000798378 0)
(0.0202267 -0.000743585 0)
(0.0210213 -0.000687578 0)
(0.0217597 -0.00063098 0)
(0.0224412 -0.000574392 0)
(0.0230657 -0.000518372 0)
(0.0236336 -0.000463434 0)
(0.0241457 -0.00041004 0)
(0.0246031 -0.000358593 0)
(0.0250073 -0.000309438 0)
(0.0253601 -0.000262855 0)
(0.0256637 -0.000219065 0)
(0.0259204 -0.000178228 0)
(0.0261326 -0.000140447 0)
(0.0263031 -0.000105774 0)
(0.0264345 -7.42114e-05 0)
(0.0265298 -4.57215e-05 0)
(0.0265917 -2.02288e-05 0)
(0.026623 2.37208e-06 0)
(0.0266266 2.22113e-05 0)
(0.0266052 3.9438e-05 0)
(0.0265615 5.42151e-05 0)
(0.0264979 6.67144e-05 0)
(0.026417 7.71127e-05 0)
(0.026321 8.55883e-05 0)
(0.026212 9.23171e-05 0)
(0.0260921 9.74711e-05 0)
(0.0259631 0.000101216 0)
(0.0258268 0.000103708 0)
(0.0256848 0.000105098 0)
(0.0255383 0.000105523 0)
(0.0253888 0.000105112 0)
(0.0252374 0.000103984 0)
(0.025085 0.000102247 0)
(0.0249327 9.99983e-05 0)
(0.0247811 9.73276e-05 0)
(0.0246311 9.43139e-05 0)
(0.0244831 9.10277e-05 0)
(0.0243376 8.75316e-05 0)
(0.0241952 8.38805e-05 0)
(0.0240561 8.01223e-05 0)
(0.0239206 7.62985e-05 0)
(0.023789 7.24448e-05 0)
(0.0236614 6.85913e-05 0)
(0.023538 6.47636e-05 0)
(0.0234188 6.09827e-05 0)
(0.0233039 5.72658e-05 0)
(0.0231934 5.36265e-05 0)
(0.0230872 5.00754e-05 0)
(0.0229854 4.66202e-05 0)
(0.0228878 4.32665e-05 0)
(0.0227945 4.00175e-05 0)
(0.0227054 3.68746e-05 0)
(0.0226205 3.38377e-05 0)
(0.0225396 3.09054e-05 0)
(0.0224628 2.8075e-05 0)
(0.0223899 2.53431e-05 0)
(0.0223208 2.27054e-05 0)
(0.0222555 2.0157e-05 0)
(0.022194 1.76925e-05 0)
(0.0221362 1.53062e-05 0)
(0.0220819 1.29923e-05 0)
(0.0220312 1.07446e-05 0)
(0.0219841 8.55718e-06 0)
(0.0219404 6.42391e-06 0)
(0.0219001 4.33888e-06 0)
(0.0218632 2.29632e-06 0)
(0.0218296 2.90685e-07 0)
(0.0217995 -1.68335e-06 0)
(0.0217726 -3.63079e-06 0)
(0.021749 -5.55635e-06 0)
(0.0217287 -7.46442e-06 0)
(0.0217117 -9.35902e-06 0)
(0.021698 -1.12438e-05 0)
(0.0216876 -1.31221e-05 0)
(0.0216804 -1.49968e-05 0)
(0.0216766 -1.68704e-05 0)
(0.021676 -1.87451e-05 0)
(0.0216787 -2.06228e-05 0)
(0.0216847 -2.25047e-05 0)
(0.0216939 -2.43919e-05 0)
(0.0217065 -2.6285e-05 0)
(0.0217224 -2.81844e-05 0)
(0.0217416 -3.00899e-05 0)
(0.0217641 -3.20011e-05 0)
(0.0217899 -3.39171e-05 0)
(0.021819 -3.58367e-05 0)
(0.0218514 -3.77585e-05 0)
(0.0218871 -3.96803e-05 0)
(0.021926 -4.16001e-05 0)
(0.0219682 -4.35151e-05 0)
(0.0220136 -4.54224e-05 0)
(0.0220621 -4.73185e-05 0)
(0.0221139 -4.91999e-05 0)
(0.0221687 -5.10624e-05 0)
(0.0222266 -5.29017e-05 0)
(0.0222875 -5.47132e-05 0)
(0.0223513 -5.64917e-05 0)
(0.022418 -5.82322e-05 0)
(0.0224875 -5.99289e-05 0)
(0.0225598 -6.15762e-05 0)
(0.0226346 -6.3168e-05 0)
(0.022712 -6.46982e-05 0)
(0.0227918 -6.61605e-05 0)
(0.022874 -6.75485e-05 0)
(0.0229582 -6.88558e-05 0)
(0.0230446 -7.00759e-05 0)
(0.0231328 -7.12024e-05 0)
(0.0232228 -7.2229e-05 0)
(0.0233144 -7.31497e-05 0)
(0.0234074 -7.39583e-05 0)
(0.0235017 -7.46502e-05 0)
(0.0235971 -7.52202e-05 0)
(0.0236934 -7.56667e-05 0)
(0.0237903 -7.59971e-05 0)
(0.0238878 -7.61841e-05 0)
(0.0239857 -7.64066e-05 0)
(0.0240836 -7.61887e-05 0)
(0.0241817 -7.71864e-05 0)
(0.0242796 -7.56971e-05 0)
(0.0243759 -8.04445e-05 0)
(0.0244791 -7.87663e-05 0)
(0.0245589 -8.27046e-05 0)
(0.0247 -0.00011824 0)
(-0.000178922 0.000645187 0)
(-0.00104343 0.00125444 0)
(-0.00216867 0.00153358 0)
(-0.00330651 0.00157528 0)
(-0.00439557 0.0015708 0)
(-0.00542523 0.00152796 0)
(-0.00637984 0.00148487 0)
(-0.00727051 0.00143313 0)
(-0.00809384 0.0013806 0)
(-0.00885801 0.00132563 0)
(-0.00956439 0.00127075 0)
(-0.0102181 0.00121617 0)
(-0.0108217 0.0011627 0)
(-0.0113784 0.00111056 0)
(-0.0118906 0.00105997 0)
(-0.0123606 0.00101094 0)
(-0.0127902 0.000963447 0)
(-0.0131808 0.000917402 0)
(-0.0135338 0.000872666 0)
(-0.0138501 0.000829068 0)
(-0.0141305 0.000786409 0)
(-0.0143755 0.000744459 0)
(-0.0145853 0.000702958 0)
(-0.0147599 0.000661617 0)
(-0.0148991 0.000620112 0)
(-0.0150024 0.000578088 0)
(-0.0150693 0.000535159 0)
(-0.0150988 0.000490907 0)
(-0.0150899 0.000444886 0)
(-0.0150413 0.000396631 0)
(-0.0149516 0.000345661 0)
(-0.014819 0.000291493 0)
(-0.014642 0.000233649 0)
(-0.0144185 0.000171672 0)
(-0.0141468 0.000105137 0)
(-0.0138248 3.36708e-05 0)
(-0.0134506 -4.30415e-05 0)
(-0.0130223 -0.000125236 0)
(-0.012538 -0.00021306 0)
(-0.011996 -0.000306561 0)
(-0.011395 -0.000405677 0)
(-0.0107335 -0.000510231 0)
(-0.0100106 -0.000619927 0)
(-0.00922553 -0.000734352 0)
(-0.00837795 -0.000852972 0)
(-0.00746783 -0.000975142 0)
(-0.00649553 -0.00110011 0)
(-0.00546182 -0.00122704 0)
(-0.00436788 -0.001355 0)
(-0.00321535 -0.00148299 0)
(-0.00200625 -0.00160996 0)
(-0.000743075 -0.0017348 0)
(0.00057128 -0.0018564 0)
(0.0019335 -0.00197362 0)
(0.00333987 -0.00208535 0)
(0.0047863 -0.00219049 0)
(0.00626834 -0.00228797 0)
(0.00778122 -0.00237681 0)
(0.00931988 -0.00245606 0)
(0.010879 -0.00252489 0)
(0.0124531 -0.00258256 0)
(0.0140363 -0.00262843 0)
(0.015623 -0.002662 0)
(0.0172072 -0.0026829 0)
(0.0187831 -0.00269089 0)
(0.0203446 -0.0026859 0)
(0.0218862 -0.00266799 0)
(0.0234021 -0.00263738 0)
(0.0248869 -0.00259442 0)
(0.0263355 -0.00253963 0)
(0.027743 -0.00247365 0)
(0.0291048 -0.00239725 0)
(0.030417 -0.00231131 0)
(0.0316757 -0.0022168 0)
(0.0328778 -0.00211477 0)
(0.0340204 -0.00200633 0)
(0.0351012 -0.00189264 0)
(0.0361186 -0.00177485 0)
(0.0370711 -0.00165414 0)
(0.0379579 -0.00153165 0)
(0.0387786 -0.00140849 0)
(0.0395334 -0.00128572 0)
(0.0402227 -0.00116431 0)
(0.0408474 -0.00104518 0)
(0.0414087 -0.000929136 0)
(0.0419083 -0.000816908 0)
(0.0423479 -0.000709116 0)
(0.0427296 -0.000606282 0)
(0.0430558 -0.000508829 0)
(0.043329 -0.000417082 0)
(0.0435519 -0.000331273 0)
(0.0437271 -0.000251546 0)
(0.0438575 -0.000177965 0)
(0.043946 -0.000110519 0)
(0.0439954 -4.91339e-05 0)
(0.0440088 6.32378e-06 0)
(0.043989 5.60349e-05 0)
(0.0439388 0.000100221 0)
(0.0438609 0.000139138 0)
(0.0437582 0.000173065 0)
(0.043633 0.0002023 0)
(0.043488 0.000227155 0)
(0.0433254 0.000247947 0)
(0.0431476 0.000264995 0)
(0.0429566 0.000278614 0)
(0.0427545 0.000289114 0)
(0.0425429 0.000296797 0)
(0.0423238 0.00030195 0)
(0.0420985 0.000304847 0)
(0.0418687 0.000305749 0)
(0.0416356 0.000304899 0)
(0.0414003 0.000302522 0)
(0.0411641 0.000298828 0)
(0.0409277 0.000294009 0)
(0.0406922 0.00028824 0)
(0.0404582 0.000281681 0)
(0.0402264 0.000274473 0)
(0.0399974 0.000266745 0)
(0.0397717 0.00025861 0)
(0.0395497 0.000250168 0)
(0.0393319 0.000241507 0)
(0.0391183 0.000232701 0)
(0.0389095 0.000223817 0)
(0.0387054 0.000214907 0)
(0.0385064 0.000206019 0)
(0.0383125 0.00019719 0)
(0.0381238 0.00018845 0)
(0.0379405 0.000179822 0)
(0.0377624 0.000171324 0)
(0.0375898 0.00016297 0)
(0.0374225 0.000154766 0)
(0.0372606 0.000146716 0)
(0.0371041 0.000138822 0)
(0.036953 0.000131081 0)
(0.0368072 0.000123489 0)
(0.0366668 0.000116038 0)
(0.0365318 0.000108721 0)
(0.036402 0.000101529 0)
(0.0362776 9.44511e-05 0)
(0.0361585 8.74769e-05 0)
(0.0360446 8.05954e-05 0)
(0.035936 7.37954e-05 0)
(0.0358327 6.70661e-05 0)
(0.0357347 6.03966e-05 0)
(0.035642 5.37767e-05 0)
(0.0355547 4.71969e-05 0)
(0.0354726 4.06479e-05 0)
(0.0353959 3.41216e-05 0)
(0.0353246 2.76106e-05 0)
(0.0352586 2.11082e-05 0)
(0.0351981 1.46087e-05 0)
(0.035143 8.10748e-06 0)
(0.0350934 1.60068e-06 0)
(0.0350493 -4.91452e-06 0)
(0.0350108 -1.144e-05 0)
(0.0349777 -1.79767e-05 0)
(0.0349503 -2.45245e-05 0)
(0.0349284 -3.10825e-05 0)
(0.0349122 -3.76488e-05 0)
(0.0349016 -4.42206e-05 0)
(0.0348966 -5.07942e-05 0)
(0.0348972 -5.7365e-05 0)
(0.0349034 -6.39274e-05 0)
(0.0349153 -7.04753e-05 0)
(0.0349328 -7.70014e-05 0)
(0.0349558 -8.34977e-05 0)
(0.0349844 -8.99553e-05 0)
(0.0350184 -9.63647e-05 0)
(0.0350579 -0.000102715 0)
(0.0351029 -0.000108996 0)
(0.0351531 -0.000115194 0)
(0.0352085 -0.000121298 0)
(0.0352692 -0.000127294 0)
(0.0353349 -0.000133167 0)
(0.0354055 -0.000138903 0)
(0.0354809 -0.000144487 0)
(0.0355611 -0.000149903 0)
(0.0356458 -0.000155134 0)
(0.0357349 -0.000160164 0)
(0.0358282 -0.000164976 0)
(0.0359256 -0.000169554 0)
(0.0360269 -0.00017388 0)
(0.0361318 -0.000177937 0)
(0.0362401 -0.000181708 0)
(0.0363517 -0.000185178 0)
(0.0364663 -0.000188331 0)
(0.0365837 -0.00019115 0)
(0.0367036 -0.000193622 0)
(0.0368257 -0.000195733 0)
(0.0369498 -0.000197475 0)
(0.0370755 -0.000198831 0)
(0.0372027 -0.000199821 0)
(0.037331 -0.000200441 0)
(0.03746 -0.00020064 0)
(0.0375896 -0.000201067 0)
(0.0377187 -0.000199776 0)
(0.0378487 -0.000203005 0)
(0.0379763 -0.00019883 0)
(0.0380979 -0.000204734 0)
(0.0382499 -0.000225437 0)
(-0.000305676 0.00126188 0)
(-0.00151686 0.00231568 0)
(-0.00287114 0.00272412 0)
(-0.00413861 0.00273442 0)
(-0.00523793 0.00266273 0)
(-0.00621824 0.00253385 0)
(-0.00706569 0.00240535 0)
(-0.00781387 0.00227078 0)
(-0.00846425 0.00214112 0)
(-0.00903355 0.0020149 0)
(-0.00952695 0.00189442 0)
(-0.00995337 0.00177927 0)
(-0.0103176 0.00166955 0)
(-0.0106248 0.0015648 0)
(-0.0108785 0.00146462 0)
(-0.0110819 0.0013685 0)
(-0.0112374 0.00127593 0)
(-0.011347 0.00118641 0)
(-0.0114119 0.00109943 0)
(-0.0114335 0.0010145 0)
(-0.0114123 0.000931104 0)
(-0.0113489 0.000848749 0)
(-0.0112434 0.000766916 0)
(-0.0110956 0.000685074 0)
(-0.0109054 0.00060268 0)
(-0.0106722 0.000519171 0)
(-0.0103953 0.00043397 0)
(-0.0100738 0.000346484 0)
(-0.00970676 0.000256115 0)
(-0.0092931 0.000162264 0)
(-0.0088316 6.43412e-05 0)
(-0.00832102 -3.82225e-05 0)
(-0.00776006 -0.000145961 0)
(-0.00714745 -0.000259358 0)
(-0.00648193 -0.000378833 0)
(-0.00576232 -0.000504726 0)
(-0.00498754 -0.000637281 0)
(-0.00415661 -0.000776631 0)
(-0.00326876 -0.000922791 0)
(-0.00232338 -0.00107564 0)
(-0.00132009 -0.00123492 0)
(-0.000258777 -0.00140024 0)
(0.000860423 -0.00157103 0)
(0.00203706 -0.00174662 0)
(0.00327038 -0.00192616 0)
(0.0045593 -0.0021087 0)
(0.00590237 -0.00229315 0)
(0.00729782 -0.00247832 0)
(0.0087435 -0.0026629 0)
(0.0102369 -0.00284553 0)
(0.0117752 -0.00302478 0)
(0.0133551 -0.00319916 0)
(0.0149731 -0.00336718 0)
(0.0166253 -0.00352732 0)
(0.0183074 -0.0036781 0)
(0.020015 -0.00381806 0)
(0.0217431 -0.00394582 0)
(0.0234867 -0.00406006 0)
(0.0252406 -0.00415957 0)
(0.0269993 -0.00424325 0)
(0.0287571 -0.00431016 0)
(0.0305083 -0.00435949 0)
(0.0322472 -0.00439062 0)
(0.0339681 -0.00440311 0)
(0.0356652 -0.00439672 0)
(0.037333 -0.00437141 0)
(0.0389661 -0.00432735 0)
(0.0405592 -0.00426493 0)
(0.0421074 -0.00418473 0)
(0.0436063 -0.00408754 0)
(0.0450515 -0.00397434 0)
(0.0464393 -0.00384627 0)
(0.0477664 -0.00370465 0)
(0.04903 -0.0035509 0)
(0.0502275 -0.00338656 0)
(0.0513573 -0.00321325 0)
(0.0524179 -0.00303262 0)
(0.0534084 -0.00284636 0)
(0.0543286 -0.00265615 0)
(0.0551784 -0.00246362 0)
(0.0559583 -0.00227034 0)
(0.0566693 -0.00207781 0)
(0.0573126 -0.00188743 0)
(0.0578898 -0.00170048 0)
(0.0584027 -0.00151812 0)
(0.0588535 -0.00134135 0)
(0.0592443 -0.00117106 0)
(0.0595778 -0.001008 0)
(0.0598564 -0.000852768 0)
(0.0600829 -0.000705836 0)
(0.0602601 -0.000567551 0)
(0.0603906 -0.000438139 0)
(0.0604773 -0.000317719 0)
(0.0605231 -0.000206309 0)
(0.0605306 -0.00010384 0)
(0.0605026 -1.01636e-05 0)
(0.0604417 7.49335e-05 0)
(0.0603507 0.000151723 0)
(0.0602319 0.000220523 0)
(0.0600879 0.000281689 0)
(0.0599209 0.000335607 0)
(0.0597333 0.000382681 0)
(0.0595271 0.000423332 0)
(0.0593045 0.000457987 0)
(0.0590674 0.000487076 0)
(0.0588175 0.000511024 0)
(0.0585567 0.000530252 0)
(0.0582864 0.000545167 0)
(0.0580083 0.000556165 0)
(0.0577238 0.000563624 0)
(0.057434 0.000567906 0)
(0.0571403 0.000569352 0)
(0.0568438 0.000568285 0)
(0.0565454 0.000565003 0)
(0.056246 0.000559787 0)
(0.0559466 0.000552894 0)
(0.0556478 0.00054456 0)
(0.0553503 0.000535003 0)
(0.0550548 0.000524417 0)
(0.0547617 0.000512979 0)
(0.0544715 0.000500847 0)
(0.0541847 0.00048816 0)
(0.0539017 0.000475043 0)
(0.0536226 0.000461601 0)
(0.0533479 0.000447929 0)
(0.0530777 0.000434106 0)
(0.0528123 0.000420197 0)
(0.0525518 0.00040626 0)
(0.0522964 0.000392338 0)
(0.0520461 0.000378467 0)
(0.0518012 0.000364674 0)
(0.0515616 0.000350978 0)
(0.0513275 0.000337393 0)
(0.0510989 0.000323925 0)
(0.050876 0.000310578 0)
(0.0506586 0.000297349 0)
(0.050447 0.000284232 0)
(0.0502412 0.00027122 0)
(0.0500411 0.000258303 0)
(0.0498469 0.000245468 0)
(0.0496586 0.000232702 0)
(0.0494763 0.000219992 0)
(0.0493 0.000207323 0)
(0.0491298 0.000194682 0)
(0.0489657 0.000182056 0)
(0.0488078 0.000169431 0)
(0.0486562 0.000156795 0)
(0.048511 0.000144139 0)
(0.0483722 0.000131452 0)
(0.0482399 0.000118726 0)
(0.0481142 0.000105956 0)
(0.0479951 9.31354e-05 0)
(0.0478827 8.02622e-05 0)
(0.0477772 6.73345e-05 0)
(0.0476785 5.43526e-05 0)
(0.0475868 4.13184e-05 0)
(0.047502 2.82353e-05 0)
(0.0474244 1.51087e-05 0)
(0.0473538 1.94546e-06 0)
(0.0472904 -1.1246e-05 0)
(0.0472342 -2.44556e-05 0)
(0.0471852 -3.76718e-05 0)
(0.0471434 -5.08817e-05 0)
(0.047109 -6.40708e-05 0)
(0.0470818 -7.72232e-05 0)
(0.0470618 -9.03219e-05 0)
(0.0470491 -0.000103348 0)
(0.0470436 -0.000116283 0)
(0.0470452 -0.000129105 0)
(0.047054 -0.000141792 0)
(0.0470698 -0.00015432 0)
(0.0470925 -0.000166667 0)
(0.0471222 -0.000178806 0)
(0.0471585 -0.000190711 0)
(0.0472015 -0.000202355 0)
(0.0472511 -0.000213711 0)
(0.0473069 -0.000224751 0)
(0.0473689 -0.000235444 0)
(0.047437 -0.000245763 0)
(0.0475109 -0.000255678 0)
(0.0475903 -0.000265158 0)
(0.0476752 -0.000274176 0)
(0.0477653 -0.0002827 0)
(0.0478602 -0.000290704 0)
(0.0479599 -0.000298159 0)
(0.0480639 -0.000305037 0)
(0.048172 -0.000311313 0)
(0.048284 -0.000316961 0)
(0.0483995 -0.000321958 0)
(0.0485183 -0.000326279 0)
(0.0486399 -0.000329909 0)
(0.0487641 -0.000332821 0)
(0.0488906 -0.000335021 0)
(0.0490188 -0.000336472 0)
(0.0491484 -0.000337318 0)
(0.0492789 -0.00033708 0)
(0.0494099 -0.000337981 0)
(0.0495389 -0.000333816 0)
(0.049667 -0.000338902 0)
(0.0498078 -0.000339867 0)
(-0.000405105 0.00246972 0)
(-0.00171923 0.00379663 0)
(-0.00298741 0.00414164 0)
(-0.0040503 0.00389049 0)
(-0.00482702 0.00361755 0)
(-0.00542842 0.00331524 0)
(-0.00585139 0.0030515 0)
(-0.00615543 0.00280523 0)
(-0.00634973 0.00258147 0)
(-0.00646034 0.00237396 0)
(-0.00649565 0.00218152 0)
(-0.00646752 0.00200163 0)
(-0.00638164 0.00183266 0)
(-0.00624391 0.00167299 0)
(-0.0060579 0.00152124 0)
(-0.00582675 0.00137619 0)
(-0.00555255 0.00123671 0)
(-0.00523698 0.00110182 0)
(-0.00488115 0.00097058 0)
(-0.00448581 0.00084215 0)
(-0.00405139 0.000715718 0)
(-0.00357802 0.000590512 0)
(-0.00306561 0.000465784 0)
(-0.00251386 0.000340802 0)
(-0.0019223 0.000214844 0)
(-0.00129033 8.71951e-05 0)
(-0.000617211 -4.28493e-05 0)
(9.78779e-05 -0.000175984 0)
(0.00085582 -0.000312889 0)
(0.00165754 -0.000454217 0)
(0.00250397 -0.000600591 0)
(0.00339604 -0.000752583 0)
(0.00433463 -0.000910711 0)
(0.00532055 -0.00107541 0)
(0.00635452 -0.00124704 0)
(0.00743714 -0.00142585 0)
(0.00856887 -0.00161196 0)
(0.00975 -0.00180537 0)
(0.0109806 -0.00200593 0)
(0.0122606 -0.00221336 0)
(0.0135896 -0.00242719 0)
(0.0149671 -0.00264681 0)
(0.0163921 -0.00287144 0)
(0.0178635 -0.00310013 0)
(0.01938 -0.00333179 0)
(0.0209397 -0.00356519 0)
(0.0225406 -0.00379894 0)
(0.0241804 -0.00403154 0)
(0.0258564 -0.0042614 0)
(0.0275656 -0.00448681 0)
(0.0293047 -0.00470602 0)
(0.03107 -0.00491723 0)
(0.0328577 -0.00511859 0)
(0.0346634 -0.00530828 0)
(0.0364828 -0.00548449 0)
(0.0383109 -0.00564545 0)
(0.0401429 -0.00578948 0)
(0.0419735 -0.00591501 0)
(0.0437973 -0.00602056 0)
(0.045609 -0.00610485 0)
(0.0474028 -0.00616676 0)
(0.0491733 -0.00620535 0)
(0.0509149 -0.00621994 0)
(0.052622 -0.00621006 0)
(0.0542894 -0.00617552 0)
(0.0559119 -0.00611637 0)
(0.0574847 -0.00603296 0)
(0.0590032 -0.00592589 0)
(0.0604634 -0.00579604 0)
(0.0618614 -0.00564454 0)
(0.0631941 -0.00547277 0)
(0.0644587 -0.00528233 0)
(0.0656529 -0.00507501 0)
(0.0667751 -0.00485273 0)
(0.0678242 -0.00461759 0)
(0.0687995 -0.00437172 0)
(0.069701 -0.00411734 0)
(0.070529 -0.00385666 0)
(0.0712844 -0.00359186 0)
(0.0719685 -0.00332505 0)
(0.072583 -0.00305828 0)
(0.0731297 -0.00279344 0)
(0.0736109 -0.0025323 0)
(0.0740292 -0.00227647 0)
(0.074387 -0.00202736 0)
(0.0746872 -0.00178625 0)
(0.0749327 -0.00155419 0)
(0.0751263 -0.00133208 0)
(0.0752711 -0.00112063 0)
(0.0753699 -0.000920389 0)
(0.0754257 -0.000731736 0)
(0.0754414 -0.000554914 0)
(0.0754196 -0.000390028 0)
(0.0753632 -0.000237065 0)
(0.0752748 -9.59035e-05 0)
(0.0751568 3.36695e-05 0)
(0.0750116 0.000151947 0)
(0.0748417 0.000259287 0)
(0.0746492 0.000356103 0)
(0.0744361 0.000442852 0)
(0.0742045 0.000520024 0)
(0.0739562 0.00058813 0)
(0.0736931 0.000647701 0)
(0.0734167 0.000699272 0)
(0.0731286 0.000743383 0)
(0.0728303 0.000780567 0)
(0.0725232 0.000811351 0)
(0.0722085 0.000836248 0)
(0.0718874 0.000855756 0)
(0.0715611 0.000870355 0)
(0.0712306 0.000880502 0)
(0.0708967 0.000886633 0)
(0.0705605 0.00088916 0)
(0.0702226 0.000888471 0)
(0.0698839 0.000884928 0)
(0.069545 0.000878869 0)
(0.0692065 0.000870607 0)
(0.068869 0.000860428 0)
(0.0685329 0.000848596 0)
(0.0681988 0.00083535 0)
(0.067867 0.000820907 0)
(0.0675379 0.000805461 0)
(0.0672118 0.000789186 0)
(0.066889 0.000772235 0)
(0.0665698 0.000754743 0)
(0.0662544 0.000736827 0)
(0.0659429 0.000718587 0)
(0.0656356 0.000700109 0)
(0.0653327 0.000681464 0)
(0.0650342 0.000662709 0)
(0.0647403 0.000643892 0)
(0.0644511 0.000625048 0)
(0.0641666 0.000606203 0)
(0.0638871 0.000587376 0)
(0.0636126 0.000568577 0)
(0.0633431 0.000549809 0)
(0.0630787 0.000531073 0)
(0.0628196 0.000512363 0)
(0.0625658 0.000493668 0)
(0.0623174 0.000474977 0)
(0.0620745 0.000456276 0)
(0.0618371 0.000437549 0)
(0.0616054 0.000418779 0)
(0.0613795 0.000399949 0)
(0.0611594 0.000381044 0)
(0.0609452 0.000362047 0)
(0.0607371 0.000342944 0)
(0.0605352 0.000323722 0)
(0.0603396 0.000304368 0)
(0.0601503 0.000284874 0)
(0.0599676 0.000265233 0)
(0.0597915 0.000245439 0)
(0.0596222 0.00022549 0)
(0.0594597 0.000205387 0)
(0.0593042 0.000185132 0)
(0.0591558 0.000164731 0)
(0.0590145 0.000144193 0)
(0.0588806 0.000123526 0)
(0.0587541 0.000102747 0)
(0.058635 8.18686e-05 0)
(0.0585236 6.09108e-05 0)
(0.0584197 3.9894e-05 0)
(0.0583236 1.8841e-05 0)
(0.0582352 -2.22312e-06 0)
(0.0581546 -2.32711e-05 0)
(0.0580819 -4.42738e-05 0)
(0.058017 -6.52003e-05 0)
(0.0579599 -8.60175e-05 0)
(0.0579107 -0.000106691 0)
(0.0578693 -0.000127185 0)
(0.0578357 -0.000147462 0)
(0.0578098 -0.000167482 0)
(0.0577916 -0.000187206 0)
(0.0577809 -0.000206593 0)
(0.0577777 -0.0002256 0)
(0.0577818 -0.000244185 0)
(0.0577931 -0.000262304 0)
(0.0578116 -0.000279912 0)
(0.0578369 -0.000296966 0)
(0.0578689 -0.000313422 0)
(0.0579075 -0.000329235 0)
(0.0579523 -0.000344362 0)
(0.0580033 -0.00035876 0)
(0.0580602 -0.000372386 0)
(0.0581226 -0.000385202 0)
(0.0581904 -0.000397166 0)
(0.0582633 -0.000408241 0)
(0.058341 -0.00041839 0)
(0.0584231 -0.000427579 0)
(0.0585095 -0.000435773 0)
(0.0585998 -0.000442938 0)
(0.0586936 -0.000449037 0)
(0.0587906 -0.000454046 0)
(0.0588905 -0.000457876 0)
(0.0589928 -0.000460581 0)
(0.059097 -0.000461861 0)
(0.0592024 -0.000462283 0)
(0.0593079 -0.000458986 0)
(0.0594141 -0.000461383 0)
(0.059525 -0.00044553 0)
(-0.000693687 0.00309426 0)
(-0.0020919 0.00472263 0)
(-0.00255472 0.00495174 0)
(-0.00279262 0.00450471 0)
(-0.0026274 0.00403228 0)
(-0.00237821 0.00356553 0)
(-0.00198314 0.00316144 0)
(-0.00152652 0.00280326 0)
(-0.000999492 0.00248655 0)
(-0.000427449 0.00220265 0)
(0.000187835 0.00194501 0)
(0.000837245 0.00170877 0)
(0.0015184 0.00148963 0)
(0.00222765 0.00128452 0)
(0.00296355 0.00109071 0)
(0.00372466 0.000906125 0)
(0.00451038 0.00072891 0)
(0.00532036 0.000557546 0)
(0.0061546 0.000390674 0)
(0.00701331 0.000227101 0)
(0.00789694 6.57369e-05 0)
(0.00880604 -9.44198e-05 0)
(0.00974133 -0.000254306 0)
(0.0107036 -0.000414808 0)
(0.0116938 -0.00057677 0)
(0.0127128 -0.000740998 0)
(0.0137616 -0.000908269 0)
(0.0148412 -0.00107932 0)
(0.0159526 -0.00125485 0)
(0.0170968 -0.00143551 0)
(0.0182745 -0.00162191 0)
(0.0194867 -0.00181456 0)
(0.0207341 -0.00201393 0)
(0.0220173 -0.00222038 0)
(0.0233369 -0.00243416 0)
(0.024693 -0.00265541 0)
(0.0260858 -0.00288413 0)
(0.0275154 -0.00312017 0)
(0.0289814 -0.00336323 0)
(0.0304833 -0.00361286 0)
(0.0320205 -0.00386841 0)
(0.0335919 -0.00412906 0)
(0.0351963 -0.00439384 0)
(0.0368322 -0.00466159 0)
(0.0384976 -0.00493096 0)
(0.0401906 -0.00520048 0)
(0.0419087 -0.00546851 0)
(0.0436492 -0.00573328 0)
(0.045409 -0.00599291 0)
(0.0471848 -0.00624539 0)
(0.0489731 -0.00648869 0)
(0.0507698 -0.00672068 0)
(0.0525707 -0.00693923 0)
(0.0543715 -0.00714219 0)
(0.0561673 -0.00732746 0)
(0.0579533 -0.00749301 0)
(0.0597244 -0.00763687 0)
(0.0614753 -0.00775723 0)
(0.0632006 -0.00785244 0)
(0.0648951 -0.00792102 0)
(0.0665533 -0.00796174 0)
(0.0681699 -0.00797361 0)
(0.0697399 -0.00795594 0)
(0.0712582 -0.00790833 0)
(0.0727204 -0.00783071 0)
(0.074122 -0.00772335 0)
(0.0754593 -0.00758685 0)
(0.0767289 -0.00742216 0)
(0.077928 -0.00723056 0)
(0.0790542 -0.00701365 0)
(0.0801059 -0.0067733 0)
(0.081082 -0.00651166 0)
(0.0819821 -0.00623109 0)
(0.0828063 -0.00593411 0)
(0.0835552 -0.00562337 0)
(0.0842301 -0.0053016 0)
(0.0848328 -0.00497155 0)
(0.0853653 -0.00463594 0)
(0.0858301 -0.00429744 0)
(0.08623 -0.00395858 0)
(0.086568 -0.00362176 0)
(0.0868473 -0.0032892 0)
(0.0870711 -0.00296292 0)
(0.0872428 -0.00264473 0)
(0.0873657 -0.00233621 0)
(0.0874431 -0.00203872 0)
(0.0874783 -0.00175337 0)
(0.0874743 -0.00148109 0)
(0.0874341 -0.00122257 0)
(0.0873607 -0.000978312 0)
(0.0872567 -0.000748641 0)
(0.0871247 -0.000533711 0)
(0.0869672 -0.000333532 0)