/*--------------------------------*- C++ -*----------------------------------*\
| =========                 |                                                 |
| \\      /  F ield         | OpenFOAM: The Open Source CFD Toolbox           |
|  \\    /   O peration     | Version:  4.1                                   |
|   \\  /    A nd           | Web:      www.OpenFOAM.org                      |
|    \\/     M anipulation  |                                                 |
\*---------------------------------------------------------------------------*/
FoamFile
{
    version     2.0;
    format      ascii;
    class       volVectorField;
    location    "4650";
    object      U;
}
// * * * * * * * * * * * * * * * * * * * * * * * * * * * * * * * * * * * * * //

dimensions      [0 1 -1 0 0 0 0];

internalField   nonuniform List<vector> 
1275
(
(0.07641 -5.70222e-05 0)
(0.0766115 -0.000118102 0)
(0.0764734 -0.000216541 0)
(0.0767146 -0.000275073 0)
(0.0767022 -0.000328223 0)
(0.0770163 -0.000420386 0)
(0.0771231 -0.000440189 0)
(0.0775459 -0.000603274 0)
(0.0777878 -0.000627334 0)
(0.0784322 -0.000855228 0)
(0.112436 -3.97543e-05 0)
(0.112616 -0.000129975 0)
(0.112484 -0.000258676 0)
(0.112671 -0.000341838 0)
(0.112622 -0.000452058 0)
(0.112852 -0.000552325 0)
(0.112874 -0.000665827 0)
(0.113168 -0.000801758 0)
(0.113242 -0.000980884 0)
(0.113587 -0.00112949 0)
(0.136447 -3.23867e-05 0)
(0.136616 -0.000149478 0)
(0.136478 -0.000281752 0)
(0.13663 -0.000401075 0)
(0.136549 -0.000519713 0)
(0.136712 -0.000662422 0)
(0.136681 -0.000777327 0)
(0.13687 -0.0009629 0)
(0.136875 -0.00109941 0)
(0.137073 -0.00131587 0)
(0.148452 -2.80798e-05 0)
(0.148612 -0.000150393 0)
(0.14846 -0.000281426 0)
(0.148579 -0.000406354 0)
(0.14846 -0.000538264 0)
(0.148557 -0.00067775 0)
(0.14846 -0.000822004 0)
(0.148547 -0.000984909 0)
(0.148447 -0.00116498 0)
(0.148509 -0.00133909 0)
(0.148453 -2.29426e-05 0)
(0.148607 -0.000147164 0)
(0.148438 -0.00025885 0)
(0.148526 -0.000392403 0)
(0.148369 -0.000507493 0)
(0.14841 -0.000656893 0)
(0.148255 -0.000778983 0)
(0.148255 -0.000948674 0)
(0.148086 -0.00108582 0)
(0.148035 -0.00126047 0)
(0.136449 -1.57059e-05 0)
(0.136598 -0.000124323 0)
(0.136407 -0.000208668 0)
(0.136467 -0.000328834 0)
(0.136271 -0.000426279 0)
(0.136259 -0.000557063 0)
(0.136045 -0.000667648 0)
(0.135969 -0.000808915 0)
(0.135717 -0.000935439 0)
(0.135569 -0.0010775 0)
(0.112439 -3.35476e-06 0)
(0.112585 -9.51217e-05 0)
(0.112369 -0.000141254 0)
(0.112403 -0.000247983 0)
(0.112171 -0.000311787 0)
(0.112114 -0.000425878 0)
(0.111849 -0.000499421 0)
(0.111708 -0.000617622 0)
(0.111391 -0.000698636 0)
(0.111162 -0.000810187 0)
(0.0764173 2.71803e-05 0)
(0.076563 -3.48121e-05 0)
(0.0763161 -3.74156e-05 0)
(0.0763446 -0.000114876 0)
(0.0760818 -0.000145591 0)
(0.0760106 -0.000224564 0)
(0.0757058 -0.000265921 0)
(0.0755354 -0.000342884 0)
(0.0751676 -0.000389617 0)
(0.0748966 -0.000459739 0)
(0.0284323 6.12678e-05 0)
(0.0286344 3.07355e-05 0)
(0.0284831 4.7422e-05 0)
(0.0286014 2.94964e-06 0)
(0.0284149 3.02227e-09 0)
(0.0284239 -3.74738e-05 0)
(0.028187 -4.1021e-05 0)
(0.0280937 -7.09733e-05 0)
(0.0277996 -7.23955e-05 0)
(0.027616 -9.3614e-05 0)
(0.0758465 -0.00230563 0)
(0.0765905 -0.0023895 0)
(0.0773435 -0.0024824 0)
(0.0781083 -0.00257956 0)
(0.0788835 -0.00268503 0)
(0.079673 -0.00279687 0)
(0.0804758 -0.0029174 0)
(0.0812951 -0.00304592 0)
(0.0821308 -0.00318398 0)
(0.0829853 -0.00333152 0)
(0.0838591 -0.00348974 0)
(0.0847541 -0.00365894 0)
(0.0856711 -0.00384017 0)
(0.0866118 -0.00403392 0)
(0.0875769 -0.00424118 0)
(0.0885678 -0.00446258 0)
(0.0895852 -0.00469905 0)
(0.0906303 -0.00495131 0)
(0.0917035 -0.00522023 0)
(0.0928054 -0.00550654 0)
(0.0939362 -0.00581104 0)
(0.095096 -0.00613441 0)
(0.0962844 -0.00647732 0)
(0.0975006 -0.0068403 0)
(0.0987437 -0.0072238 0)
(0.100012 -0.00762811 0)
(0.101303 -0.00805337 0)
(0.102615 -0.00849946 0)
(0.103944 -0.00896605 0)
(0.105287 -0.00945248 0)
(0.106637 -0.00995778 0)
(0.107991 -0.0104806 0)
(0.109342 -0.011019 0)
(0.110682 -0.0115709 0)
(0.112005 -0.0121333 0)
(0.113301 -0.012703 0)
(0.114562 -0.0132759 0)
(0.115776 -0.0138476 0)
(0.116935 -0.014413 0)
(0.118027 -0.0149665 0)
(0.11904 -0.015502 0)
(0.119964 -0.0160129 0)
(0.120788 -0.0164926 0)
(0.1215 -0.016934 0)
(0.122091 -0.0173301 0)
(0.12255 -0.0176743 0)
(0.122871 -0.0179599 0)
(0.123045 -0.018181 0)
(0.123066 -0.0183324 0)
(0.122932 -0.0184097 0)
(0.12264 -0.0184097 0)
(0.12219 -0.0183301 0)
(0.121584 -0.0181701 0)
(0.120827 -0.0179303 0)
(0.119924 -0.0176127 0)
(0.118886 -0.0172206 0)
(0.117721 -0.0167584 0)
(0.116442 -0.0162321 0)
(0.115063 -0.0156481 0)
(0.113597 -0.0150141 0)
(0.112062 -0.0143378 0)
(0.110473 -0.0136275 0)
(0.108845 -0.0128914 0)
(0.107197 -0.0121376 0)
(0.105543 -0.0113739 0)
(0.1039 -0.0106073 0)
(0.10228 -0.00984465 0)
(0.100699 -0.00909172 0)
(0.099167 -0.00835359 0)
(0.0976948 -0.00763476 0)
(0.096293 -0.00693828 0)
(0.094966 -0.00626774 0)
(0.0937246 -0.00562345 0)
(0.0925654 -0.00500966 0)
(0.0915034 -0.00442182 0)
(0.0905226 -0.00386904 0)
(0.0896476 -0.00333599 0)
(0.0888483 -0.00284679 0)
(0.0789152 -0.00117626 0)
(0.0787269 -0.00130189 0)
(0.0792046 -0.00139073 0)
(0.0794438 -0.00149288 0)
(0.0799965 -0.00155871 0)
(0.0804425 -0.00163809 0)
(0.0810339 -0.00169096 0)
(0.0815729 -0.00174747 0)
(0.0821832 -0.00178709 0)
(0.082764 -0.00182587 0)
(0.0833804 -0.00185444 0)
(0.083977 -0.00188098 0)
(0.0845907 -0.00190149 0)
(0.0851892 -0.00192012 0)
(0.0857942 -0.00193535 0)
(0.0863863 -0.00194926 0)
(0.0869791 -0.00196143 0)
(0.0875604 -0.00197295 0)
(0.088139 -0.00198386 0)
(0.0887073 -0.00199472 0)
(0.0892712 -0.00200576 0)
(0.0898258 -0.0020173 0)
(0.0903752 -0.0020296 0)
(0.0909165 -0.00204285 0)
(0.0914524 -0.00205735 0)
(0.0919814 -0.00207319 0)
(0.0925053 -0.00209069 0)
(0.0930233 -0.00210987 0)
(0.0935371 -0.00213109 0)
(0.094046 -0.00215431 0)
(0.0945515 -0.00217996 0)
(0.0950535 -0.0022079 0)
(0.0955527 -0.0022387 0)
(0.0960502 -0.00227208 0)
(0.0965452 -0.00230877 0)
(0.0970411 -0.00234839 0)
(0.0975333 -0.00239174 0)
(0.0980317 -0.00243857 0)
(0.0985212 -0.00248937 0)
(0.0990287 -0.00254463 0)
(0.0995119 -0.00260353 0)
(0.100041 -0.00266899 0)
(0.100505 -0.00273613 0)
(0.101083 -0.00281493 0)
(0.101493 -0.0028882 0)
(0.102073 -0.00298149 0)
(0.10261 -0.00307385 0)
(0.103141 -0.00317463 0)
(0.103688 -0.00328189 0)
(0.104239 -0.00339805 0)
(0.104803 -0.00352207 0)
(0.105375 -0.00365568 0)
(0.10596 -0.00379852 0)
(0.106555 -0.00395188 0)
(0.107164 -0.00411584 0)
(0.107785 -0.00429142 0)
(0.10842 -0.00447899 0)
(0.109068 -0.00467942 0)
(0.109731 -0.00489321 0)
(0.110408 -0.00512116 0)
(0.1111 -0.00536384 0)
(0.111806 -0.00562197 0)
(0.112527 -0.0058961 0)
(0.113261 -0.00618688 0)
(0.114007 -0.00649479 0)
(0.114765 -0.00682033 0)
(0.115534 -0.00716383 0)
(0.116311 -0.00752557 0)
(0.117094 -0.00790566 0)
(0.11788 -0.00830406 0)
(0.118667 -0.00872053 0)
(0.119451 -0.00915462 0)
(0.120227 -0.00960559 0)
(0.12099 -0.0100724 0)
(0.121735 -0.0105538 0)
(0.122456 -0.011048 0)
(0.123146 -0.0115529 0)
(0.123797 -0.012066 0)
(0.124402 -0.0125842 0)
(0.124951 -0.0131041 0)
(0.125436 -0.0136217 0)
(0.125846 -0.0141326 0)
(0.126172 -0.0146318 0)
(0.126404 -0.0151141 0)
(0.126531 -0.0155735 0)
(0.126544 -0.0160041 0)
(0.126433 -0.0163997 0)
(0.126189 -0.0167538 0)
(0.125804 -0.0170603 0)
(0.12527 -0.017313 0)
(0.124582 -0.0175063 0)
(0.123736 -0.0176351 0)
(0.122728 -0.0176952 0)
(0.121558 -0.017683 0)
(0.120228 -0.0175964 0)
(0.118742 -0.0174343 0)
(0.117104 -0.0171969 0)
(0.115324 -0.0168856 0)
(0.11341 -0.0165033 0)
(0.111376 -0.016054 0)
(0.109234 -0.0155428 0)
(0.107001 -0.0149759 0)
(0.104694 -0.01436 0)
(0.102331 -0.013703 0)
(0.0999308 -0.0130128 0)
(0.0975125 -0.0122978 0)
(0.0950957 -0.0115663 0)
(0.0926991 -0.0108265 0)
(0.090341 -0.010086 0)
(0.0880383 -0.00935204 0)
(0.0858066 -0.0086307 0)
(0.0836599 -0.00792744 0)
(0.0816101 -0.00724663 0)
(0.0796678 -0.00659169 0)
(0.0778406 -0.00596528 0)
(0.0761359 -0.00536872 0)
(0.0745563 -0.0048036 0)
(0.073107 -0.00426888 0)
(0.0717855 -0.00376644 0)
(0.0705958 -0.00329185 0)
(0.0695307 -0.0028496 0)
(0.0685928 -0.00243041 0)
(0.067775 -0.00204101 0)
(0.113674 -0.00165064 0)
(0.11378 -0.00175473 0)
(0.114009 -0.00194378 0)
(0.114167 -0.00199235 0)
(0.114437 -0.0020722 0)
(0.114646 -0.00210756 0)
(0.114925 -0.00215279 0)
(0.115165 -0.00218137 0)
(0.115446 -0.00221183 0)
(0.115702 -0.00223404 0)
(0.115982 -0.00225563 0)
(0.116247 -0.0022721 0)
(0.116524 -0.00228751 0)
(0.11679 -0.00229948 0)
(0.117062 -0.00231068 0)
(0.117325 -0.00231967 0)
(0.117591 -0.00232837 0)
(0.11785 -0.00233589 0)
(0.118108 -0.00234365 0)
(0.118361 -0.00235108 0)
(0.118612 -0.00235925 0)
(0.118858 -0.0023678 0)
(0.119101 -0.00237755 0)
(0.11934 -0.00238826 0)
(0.119577 -0.0024006 0)
(0.11981 -0.0024144 0)
(0.120041 -0.00243022 0)
(0.120268 -0.00244791 0)
(0.120493 -0.00246803 0)
(0.120716 -0.00249036 0)
(0.120938 -0.00251555 0)
(0.121157 -0.00254325 0)
(0.121375 -0.00257433 0)
(0.121592 -0.00260811 0)
(0.121809 -0.00264595 0)
(0.122024 -0.00268655 0)
(0.122242 -0.00273215 0)
(0.122455 -0.0027803 0)
(0.122676 -0.00283491 0)
(0.122889 -0.00289125 0)
(0.123114 -0.00295649 0)
(0.123326 -0.00302147 0)
(0.123557 -0.00309945 0)
(0.123773 -0.00317352 0)
(0.124004 -0.00326545 0)
(0.124234 -0.00335323 0)
(0.124466 -0.00345455 0)
(0.1247 -0.00356065 0)
(0.124939 -0.00367595 0)
(0.12518 -0.00379916 0)
(0.125427 -0.00393142 0)
(0.125675 -0.00407307 0)
(0.125929 -0.00422457 0)
(0.126185 -0.0043866 0)
(0.126445 -0.00455955 0)
(0.126708 -0.00474411 0)
(0.126975 -0.0049407 0)
(0.127243 -0.00514997 0)
(0.127514 -0.00537237 0)
(0.127785 -0.00560848 0)
(0.128057 -0.00585873 0)
(0.128327 -0.00612359 0)
(0.128595 -0.00640342 0)
(0.128858 -0.00669856 0)
(0.129115 -0.00700921 0)
(0.129363 -0.00733552 0)
(0.1296 -0.00767748 0)
(0.129823 -0.00803495 0)
(0.130028 -0.0084076 0)
(0.130211 -0.00879492 0)
(0.130368 -0.00919618 0)
(0.130494 -0.00961038 0)
(0.130584 -0.0100362 0)
(0.130631 -0.0104722 0)
(0.130629 -0.0109162 0)
(0.130572 -0.0113662 0)
(0.130452 -0.0118193 0)
(0.130261 -0.0122725 0)
(0.129991 -0.0127223 0)
(0.129633 -0.0131648 0)
(0.129179 -0.0135956 0)
(0.12862 -0.0140102 0)
(0.127947 -0.0144035 0)
(0.127151 -0.0147702 0)
(0.126225 -0.0151048 0)
(0.12516 -0.0154018 0)
(0.123951 -0.0156556 0)
(0.122592 -0.0158609 0)
(0.121077 -0.0160127 0)
(0.119405 -0.0161064 0)
(0.117573 -0.016138 0)
(0.115583 -0.0161043 0)
(0.113436 -0.0160029 0)
(0.111139 -0.0158326 0)
(0.108696 -0.0155931 0)
(0.106119 -0.0152854 0)
(0.103419 -0.0149116 0)
(0.100608 -0.0144754 0)
(0.0977043 -0.0139813 0)
(0.0947246 -0.0134355 0)
(0.0916887 -0.0128446 0)
(0.0886174 -0.0122167 0)
(0.0855322 -0.0115598 0)
(0.0824551 -0.0108827 0)
(0.0794079 -0.0101938 0)
(0.0764121 -0.00950142 0)
(0.0734881 -0.00881321 0)
(0.0706551 -0.0081362 0)
(0.0679305 -0.00747642 0)
(0.06533 -0.00683911 0)
(0.0628666 -0.00622835 0)
(0.0605514 -0.0056474 0)
(0.058392 -0.00509842 0)
(0.0563947 -0.00458271 0)
(0.0545611 -0.00410081 0)
(0.0528936 -0.00365215 0)
(0.0513881 -0.00323636 0)
(0.050044 -0.00285086 0)
(0.0488526 -0.00249572 0)
(0.0478121 -0.00216564 0)
(0.0469106 -0.00186332 0)
(0.0461448 -0.0015791 0)
(0.0455041 -0.00132073 0)
(0.137119 -0.00154883 0)
(0.137106 -0.00167798 0)
(0.137151 -0.00184157 0)
(0.137137 -0.00193641 0)
(0.137202 -0.00204988 0)
(0.137221 -0.00212369 0)
(0.137295 -0.00220307 0)
(0.137338 -0.00225791 0)
(0.137413 -0.0023123 0)
(0.137468 -0.00235045 0)
(0.137539 -0.00238631 0)
(0.137596 -0.00241118 0)
(0.13766 -0.00243376 0)
(0.137714 -0.002449 0)
(0.13777 -0.00246261 0)
(0.137817 -0.00247155 0)
(0.137864 -0.00247968 0)
(0.137903 -0.00248512 0)
(0.13794 -0.00249054 0)
(0.137971 -0.00249476 0)
(0.137999 -0.00249964 0)
(0.138021 -0.00250446 0)
(0.138039 -0.00251052 0)
(0.138053 -0.00251737 0)
(0.138063 -0.00252596 0)
(0.138068 -0.00253603 0)
(0.13807 -0.00254826 0)
(0.138068 -0.00256252 0)
(0.138063 -0.00257933 0)
(0.138054 -0.00259864 0)
(0.138041 -0.00262088 0)
(0.138026 -0.00264605 0)
(0.138007 -0.0026745 0)
(0.137985 -0.00270636 0)
(0.13796 -0.0027418 0)
(0.137933 -0.00278123 0)
(0.137902 -0.00282445 0)
(0.13787 -0.00287246 0)
(0.137833 -0.00292426 0)
(0.137795 -0.00298201 0)
(0.137753 -0.00304322 0)
(0.137709 -0.00311203 0)
(0.137663 -0.00318364 0)
(0.137611 -0.00326466 0)
(0.13756 -0.00334842 0)
(0.137501 -0.00344157 0)
(0.137443 -0.00354136 0)
(0.137377 -0.00364806 0)
(0.13731 -0.00376301 0)
(0.137236 -0.00388585 0)
(0.137159 -0.00401762 0)
(0.137075 -0.00415835 0)
(0.136985 -0.00430875 0)
(0.136888 -0.0044691 0)
(0.136783 -0.00463991 0)
(0.136668 -0.00482158 0)
(0.136544 -0.00501453 0)
(0.136408 -0.00521915 0)
(0.136259 -0.00543578 0)
(0.136096 -0.00566475 0)
(0.135916 -0.00590631 0)
(0.135717 -0.00616066 0)
(0.135497 -0.00642791 0)
(0.135254 -0.0067081 0)
(0.134984 -0.00700113 0)
(0.134683 -0.00730678 0)
(0.13435 -0.00762467 0)
(0.133979 -0.00795427 0)
(0.133566 -0.00829482 0)
(0.133107 -0.00864539 0)
(0.132596 -0.00900476 0)
(0.132028 -0.00937148 0)
(0.131397 -0.00974381 0)
(0.130697 -0.0101197 0)
(0.129922 -0.0104967 0)
(0.129064 -0.0108723 0)
(0.128117 -0.0112433 0)
(0.127073 -0.0116065 0)
(0.125925 -0.011958 0)
(0.124666 -0.0122941 0)
(0.123288 -0.0126103 0)
(0.121785 -0.0129023 0)
(0.120149 -0.0131654 0)
(0.118376 -0.0133949 0)
(0.11646 -0.0135859 0)
(0.114397 -0.0137339 0)
(0.112185 -0.0138343 0)
(0.109821 -0.0138831 0)
(0.107307 -0.0138767 0)
(0.104644 -0.0138121 0)
(0.101837 -0.0136871 0)
(0.0988923 -0.0135007 0)
(0.095819 -0.0132527 0)
(0.0926283 -0.0129443 0)
(0.0893341 -0.0125778 0)
(0.0859525 -0.012157 0)
(0.0825015 -0.0116865 0)
(0.0790015 -0.0111723 0)
(0.075474 -0.0106211 0)
(0.0719423 -0.0100402 0)
(0.0684305 -0.00943761 0)
(0.0649631 -0.00882128 0)
(0.0615648 -0.00819931 0)
(0.0582597 -0.00757967 0)
(0.0550707 -0.00696993 0)
(0.0520187 -0.00637717 0)
(0.0491222 -0.00580764 0)
(0.0463965 -0.00526669 0)
(0.043853 -0.00475837 0)
(0.0414995 -0.00428555 0)
(0.0393394 -0.00384964 0)
(0.0373731 -0.00345088 0)
(0.0355965 -0.0030883 0)
(0.0340044 -0.00275998 0)
(0.0325873 -0.00246356 0)
(0.0313375 -0.00219571 0)
(0.030242 -0.00195393 0)
(0.0292931 -0.00173401 0)
(0.0284763 -0.00153452 0)
(0.0277859 -0.00135046 0)
(0.0272071 -0.00118227 0)
(0.0267355 -0.00102435 0)
(0.0263595 -0.000878169 0)
(0.148384 -0.00159474 0)
(0.148329 -0.00174068 0)
(0.148229 -0.00192414 0)
(0.148136 -0.00202017 0)
(0.148047 -0.00213483 0)
(0.147942 -0.00219586 0)
(0.147849 -0.00226563 0)
(0.147737 -0.00230347 0)
(0.147634 -0.00234487 0)
(0.147515 -0.00236678 0)
(0.147399 -0.00238986 0)
(0.147272 -0.00240075 0)
(0.147144 -0.00241197 0)
(0.147007 -0.00241559 0)
(0.146868 -0.00241947 0)
(0.146721 -0.00241881 0)
(0.146571 -0.00241868 0)
(0.146415 -0.00241615 0)
(0.146255 -0.00241454 0)
(0.146089 -0.00241204 0)
(0.145919 -0.00241089 0)
(0.145743 -0.00240995 0)
(0.145564 -0.00241075 0)
(0.145379 -0.00241257 0)
(0.14519 -0.0024165 0)
(0.144996 -0.00242207 0)
(0.144798 -0.00243007 0)
(0.144595 -0.00244018 0)
(0.144388 -0.00245306 0)
(0.144175 -0.00246843 0)
(0.143959 -0.00248692 0)
(0.143736 -0.0025082 0)
(0.14351 -0.00253302 0)
(0.143277 -0.00256084 0)
(0.14304 -0.00259274 0)
(0.142797 -0.00262777 0)
(0.142548 -0.00266757 0)
(0.142293 -0.00271047 0)
(0.142031 -0.00275912 0)
(0.141763 -0.00281061 0)
(0.141488 -0.00286916 0)
(0.141205 -0.00293006 0)
(0.140914 -0.00299957 0)
(0.140615 -0.00307106 0)
(0.140306 -0.00315211 0)
(0.139988 -0.00323638 0)
(0.139659 -0.00332917 0)
(0.139318 -0.0034274 0)
(0.138966 -0.00353384 0)
(0.1386 -0.00364706 0)
(0.13822 -0.00376864 0)
(0.137824 -0.00389801 0)
(0.137413 -0.00403613 0)
(0.136982 -0.00418287 0)
(0.136532 -0.00433884 0)
(0.136061 -0.00450409 0)
(0.135566 -0.00467902 0)
(0.135046 -0.00486374 0)
(0.134499 -0.00505848 0)
(0.133922 -0.00526329 0)
(0.133312 -0.00547825 0)
(0.132667 -0.00570329 0)
(0.131983 -0.00593829 0)
(0.131258 -0.00618298 0)
(0.130487 -0.006437 0)
(0.129667 -0.00669982 0)
(0.128793 -0.00697077 0)
(0.127862 -0.00724899 0)
(0.126868 -0.00753341 0)
(0.125807 -0.00782277 0)
(0.124674 -0.00811556 0)
(0.123463 -0.00841002 0)
(0.122168 -0.00870413 0)
(0.120783 -0.0089956 0)
(0.119304 -0.00928188 0)
(0.117724 -0.0095601 0)
(0.116036 -0.00982717 0)
(0.114236 -0.0100797 0)
(0.112318 -0.0103142 0)
(0.110277 -0.0105268 0)
(0.108108 -0.0107136 0)
(0.105808 -0.0108707 0)
(0.103373 -0.0109941 0)
(0.100802 -0.01108 0)
(0.0980938 -0.0111247 0)
(0.0952506 -0.0111249 0)
(0.0922746 -0.0110779 0)
(0.0891706 -0.0109814 0)
(0.0859454 -0.0108342 0)
(0.082608 -0.0106355 0)
(0.0791699 -0.0103858 0)
(0.0756448 -0.0100864 0)
(0.072049 -0.00973966 0)
(0.0684011 -0.00934896 0)
(0.0647223 -0.00891859 0)
(0.0610355 -0.00845389 0)
(0.057366 -0.0079611 0)
(0.0537404 -0.00744739 0)
(0.0501861 -0.00692064 0)
(0.0467308 -0.00638931 0)
(0.043401 -0.00586204 0)
(0.0402215 -0.00534733 0)
(0.0372134 -0.00485301 0)
(0.0343939 -0.00438585 0)
(0.0317749 -0.00395113 0)
(0.029363 -0.00355246 0)
(0.0271596 -0.00319151 0)
(0.0251612 -0.00286827 0)
(0.0233601 -0.00258111 0)
(0.021746 -0.00232731 0)
(0.0203063 -0.00210337 0)
(0.0190279 -0.00190553 0)
(0.0178966 -0.00173012 0)
(0.0169001 -0.00157358 0)
(0.016025 -0.00143319 0)
(0.0152614 -0.001306 0)
(0.0145974 -0.00119061 0)
(0.0140262 -0.00108425 0)
(0.0135376 -0.000987028 0)
(0.013127 -0.000895627 0)
(0.012786 -0.000811792 0)
(0.0125112 -0.000731088 0)
(0.0122968 -0.000656766 0)
(0.147835 -0.00142585 0)
(0.147685 -0.00155237 0)
(0.147458 -0.00168871 0)
(0.147245 -0.00177655 0)
(0.147001 -0.00187624 0)
(0.146755 -0.0019371 0)
(0.146496 -0.00200551 0)
(0.146229 -0.00204607 0)
(0.145955 -0.00209003 0)
(0.145672 -0.00211473 0)
(0.145383 -0.00214042 0)
(0.145086 -0.00215307 0)
(0.144784 -0.0021657 0)
(0.144474 -0.00216976 0)
(0.144159 -0.00217367 0)
(0.143837 -0.00217221 0)
(0.14351 -0.00217086 0)
(0.143178 -0.00216647 0)
(0.142841 -0.00216263 0)
(0.142498 -0.00215742 0)
(0.14215 -0.00215322 0)
(0.141798 -0.00214886 0)
(0.141441 -0.00214595 0)
(0.141079 -0.00214376 0)
(0.140712 -0.00214341 0)
(0.14034 -0.00214444 0)
(0.139963 -0.00214763 0)
(0.13958 -0.00215274 0)
(0.139193 -0.00216028 0)
(0.138799 -0.00217016 0)
(0.1384 -0.00218276 0)
(0.137995 -0.00219806 0)
(0.137583 -0.00221633 0)
(0.137164 -0.00223767 0)
(0.136738 -0.00226221 0)
(0.136303 -0.00229023 0)
(0.135861 -0.00232166 0)
(0.13541 -0.00235705 0)
(0.134949 -0.00239599 0)
(0.134478 -0.00243948 0)
(0.133997 -0.00248665 0)
(0.133503 -0.00253897 0)
(0.132998 -0.00259526 0)
(0.132478 -0.00265704 0)
(0.131946 -0.00272359 0)
(0.131396 -0.00279536 0)
(0.130831 -0.00287334 0)
(0.130248 -0.00295636 0)
(0.129646 -0.00304609 0)
(0.129023 -0.00314144 0)
(0.128378 -0.00324374 0)
(0.127709 -0.00335231 0)
(0.127016 -0.00346805 0)
(0.126294 -0.00359059 0)
(0.125543 -0.0037205 0)
(0.12476 -0.00385759 0)
(0.123943 -0.00400217 0)
(0.123089 -0.00415408 0)
(0.122196 -0.00431345 0)
(0.12126 -0.00448007 0)
(0.12028 -0.00465385 0)
(0.11925 -0.00483446 0)
(0.118169 -0.00502158 0)
(0.117032 -0.0052147 0)
(0.115836 -0.00541323 0)
(0.114576 -0.00561639 0)
(0.113249 -0.00582328 0)
(0.111849 -0.00603281 0)
(0.110374 -0.00624369 0)
(0.108818 -0.00645446 0)
(0.107177 -0.00666344 0)
(0.105446 -0.00686873 0)
(0.103621 -0.00706823 0)
(0.101698 -0.00725962 0)
(0.0996721 -0.0074404 0)
(0.0975397 -0.00760789 0)
(0.0952976 -0.00775925 0)
(0.0929429 -0.00789153 0)
(0.0904736 -0.00800176 0)
(0.0878884 -0.0080869 0)
(0.0851871 -0.00814401 0)
(0.0823708 -0.00817027 0)
(0.0794419 -0.00816306 0)
(0.0764044 -0.00812003 0)
(0.0732642 -0.00803924 0)
(0.0700291 -0.00791919 0)
(0.0667091 -0.00775899 0)
(0.0633166 -0.00755846 0)
(0.0598664 -0.00731824 0)
(0.056376 -0.00703995 0)
(0.0528655 -0.00672626 0)
(0.0493574 -0.00638099 0)
(0.0458767 -0.00600912 0)
(0.0424499 -0.00561676 0)
(0.0391044 -0.00521099 0)
(0.0358674 -0.00479966 0)
(0.0327645 -0.00439099 0)
(0.0298188 -0.00399312 0)
(0.027049 -0.00361352 0)
(0.024469 -0.00325847 0)
(0.0220868 -0.00293248 0)
(0.0199046 -0.0026381 0)
(0.0179193 -0.00237579 0)
(0.0161231 -0.00214425 0)
(0.0145048 -0.00194082 0)
(0.013051 -0.00176215 0)
(0.0117477 -0.00160462 0)
(0.0105809 -0.00146498 0)
(0.00953687 -0.00134046 0)
(0.00860359 -0.00122894 0)
(0.00776937 -0.00112891 0)
(0.00702462 -0.00103923 0)
(0.00635976 -0.000959186 0)
(0.00576781 -0.000887896 0)
(0.00524101 -0.000824903 0)
(0.00477475 -0.000768982 0)
(0.00436256 -0.000719852 0)
(0.0040017 -0.00067571 0)
(0.00368652 -0.000636706 0)
(0.00341553 -0.000600527 0)
(0.00318397 -0.000567925 0)
(0.00299071 -0.000536466 0)
(0.00283251 -0.000507072 0)
(0.135264 -0.00122062 0)
(0.135023 -0.00133935 0)
(0.13468 -0.00146054 0)
(0.134368 -0.00154313 0)
(0.133995 -0.00162815 0)
(0.133634 -0.00167851 0)
(0.133234 -0.00173059 0)
(0.132835 -0.00175677 0)
(0.132411 -0.00178387 0)
(0.131985 -0.0017932 0)
(0.13154 -0.00180297 0)
(0.131092 -0.00180118 0)
(0.130631 -0.00179976 0)
(0.130166 -0.00179118 0)
(0.129691 -0.00178315 0)
(0.129212 -0.00177102 0)
(0.128726 -0.00175976 0)
(0.128237 -0.00174648 0)
(0.127742 -0.00173439 0)
(0.127243 -0.00172172 0)
(0.126739 -0.00171054 0)
(0.126232 -0.00169975 0)
(0.125721 -0.00169069 0)
(0.125205 -0.00168269 0)
(0.124686 -0.00167665 0)
(0.124162 -0.00167212 0)
(0.123634 -0.00166972 0)
(0.123101 -0.00166916 0)
(0.122563 -0.00167092 0)
(0.12202 -0.00167473 0)
(0.121471 -0.00168106 0)
(0.120916 -0.00168961 0)
(0.120353 -0.00170089 0)
(0.119784 -0.00171452 0)
(0.119206 -0.00173115 0)
(0.11862 -0.0017502 0)
(0.118025 -0.00177262 0)
(0.117419 -0.00179745 0)
(0.116802 -0.00182613 0)
(0.116174 -0.00185713 0)
(0.115533 -0.00189257 0)
(0.114878 -0.00193023 0)
(0.114207 -0.00197288 0)
(0.113521 -0.00201784 0)
(0.112817 -0.00206803 0)
(0.112095 -0.00212108 0)
(0.111353 -0.0021792 0)
(0.110588 -0.00224076 0)
(0.109801 -0.00230742 0)
(0.108988 -0.002378 0)
(0.108148 -0.00245368 0)
(0.107279 -0.00253365 0)
(0.10638 -0.00261872 0)
(0.105447 -0.00270833 0)
(0.104479 -0.00280295 0)
(0.103473 -0.00290219 0)
(0.102427 -0.00300626 0)
(0.101337 -0.00311481 0)
(0.100202 -0.00322784 0)
(0.0990172 -0.00334496 0)
(0.0977809 -0.00346595 0)
(0.0964896 -0.00359031 0)
(0.0951401 -0.0037176 0)
(0.093729 -0.00384717 0)
(0.0922531 -0.00397834 0)
(0.0907091 -0.00411021 0)
(0.0890935 -0.00424186 0)
(0.0874032 -0.00437213 0)
(0.085635 -0.00449979 0)
(0.0837859 -0.00462343 0)
(0.0818531 -0.0047415 0)
(0.0798343 -0.0048523 0)
(0.0777273 -0.00495401 0)
(0.0755306 -0.00504468 0)
(0.0732434 -0.00512227 0)
(0.0708652 -0.00518465 0)
(0.068397 -0.0052297 0)
(0.0658403 -0.00525529 0)
(0.0631981 -0.00525937 0)
(0.0604747 -0.00524005 0)
(0.0576759 -0.00519567 0)
(0.0548096 -0.00512487 0)
(0.0518852 -0.00502671 0)
(0.0489146 -0.00490079 0)
(0.0459117 -0.00474732 0)
(0.0428927 -0.0045673 0)
(0.039876 -0.00436256 0)
(0.0368815 -0.00413591 0)
(0.0339309 -0.00389112 0)
(0.0310466 -0.0036329 0)
(0.0282509 -0.00336671 0)
(0.0255649 -0.00309849 0)
(0.0230078 -0.00283426 0)
(0.0205956 -0.00257963 0)
(0.0183399 -0.00233936 0)
(0.0162478 -0.00211695 0)
(0.0143212 -0.00191435 0)
(0.0125578 -0.00173201 0)
(0.0109518 -0.00156896 0)
(0.00949459 -0.00142325 0)
(0.00817645 -0.00129237 0)
(0.00698662 -0.0011738 0)
(0.00591382 -0.00106543 0)
(0.00494676 -0.000965993 0)
(0.00407438 -0.000875076 0)
(0.00328654 -0.000793046 0)
(0.00257403 -0.000720523 0)
(0.00192917 -0.000657985 0)
(0.00134507 -0.00060535 0)
(0.000816187 -0.000561941 0)
(0.000337011 -0.000526645 0)
(-9.67726e-05 -0.000498066 0)
(-0.000490119 -0.000475 0)
(-0.000846495 -0.000456129 0)
(-0.00117041 -0.000440803 0)
(-0.00146437 -0.000427873 0)
(-0.00173225 -0.000417323 0)
(-0.00197559 -0.000407879 0)
(-0.00219744 -0.000400144 0)
(-0.00239866 -0.000392493 0)
(-0.00258128 -0.000386119 0)
(-0.00274602 -0.000379069 0)
(-0.00289374 -0.000372866 0)
(0.110781 -0.000896893 0)
(0.110455 -0.000980031 0)
(0.110013 -0.00105165 0)
(0.109604 -0.00110505 0)
(0.109114 -0.00115519 0)
(0.108642 -0.00118573 0)
(0.108115 -0.00121613 0)
(0.107597 -0.00123044 0)
(0.107043 -0.00124516 0)
(0.106493 -0.00124809 0)
(0.105918 -0.00125128 0)
(0.105346 -0.00124641 0)
(0.104757 -0.00124169 0)
(0.10417 -0.00123179 0)
(0.103572 -0.00122213 0)
(0.102975 -0.0012094 0)
(0.102371 -0.00119713 0)
(0.101768 -0.00118333 0)
(0.101161 -0.00117026 0)
(0.100555 -0.00115672 0)
(0.0999458 -0.0011442 0)
(0.0993372 -0.00113195 0)
(0.0987267 -0.00112095 0)
(0.0981163 -0.00111075 0)
(0.0975041 -0.00110197 0)
(0.0968915 -0.00109436 0)
(0.0962768 -0.00108833 0)
(0.0956608 -0.00108371 0)
(0.0950422 -0.00108079 0)
(0.0944211 -0.00107948 0)
(0.0937965 -0.00107995 0)
(0.0931682 -0.0010822 0)
(0.0925352 -0.00108631 0)
(0.0918971 -0.00109234 0)
(0.0912528 -0.00110029 0)
(0.0906017 -0.00111032 0)
(0.0899428 -0.00112231 0)
(0.0892752 -0.00113656 0)
(0.0885979 -0.0011528 0)
(0.0879098 -0.00117149 0)
(0.0872098 -0.00119223 0)
(0.0864967 -0.00121553 0)
(0.0857692 -0.00124106 0)
(0.085026 -0.00126912 0)
(0.0842658 -0.00129978 0)
(0.0834869 -0.00133272 0)
(0.0826881 -0.0013687 0)
(0.0818673 -0.00140685 0)
(0.0810233 -0.00144814 0)
(0.0801539 -0.00149167 0)
(0.0792576 -0.00153825 0)
(0.0783321 -0.00158716 0)
(0.0773757 -0.00163894 0)
(0.0763861 -0.00169306 0)
(0.0753613 -0.0017498 0)
(0.0742989 -0.00180872 0)
(0.0731969 -0.00186991 0)
(0.0720527 -0.00193294 0)
(0.0708643 -0.00199771 0)
(0.069629 -0.00206377 0)
(0.0683448 -0.00213084 0)
(0.0670091 -0.0021984 0)
(0.06562 -0.00226598 0)
(0.0641752 -0.00233294 0)
(0.0626729 -0.00239863 0)
(0.0611112 -0.00246227 0)
(0.0594888 -0.00252303 0)
(0.0578043 -0.00257997 0)
(0.0560571 -0.0026321 0)
(0.054247 -0.0026783 0)
(0.0523741 -0.00271747 0)
(0.0504396 -0.00274838 0)
(0.0484451 -0.00276985 0)
(0.0463934 -0.00278067 0)
(0.0442881 -0.00277968 0)
(0.042134 -0.00276585 0)
(0.0399372 -0.00273828 0)
(0.0377051 -0.00269631 0)
(0.0354464 -0.00263959 0)
(0.0331713 -0.00256812 0)
(0.0308914 -0.00248237 0)
(0.0286195 -0.00238324 0)
(0.0263697 -0.0022722 0)
(0.0241565 -0.00215116 0)
(0.0219949 -0.00202251 0)
(0.0198994 -0.00188899 0)
(0.0178837 -0.0017535 0)
(0.0159597 -0.00161899 0)
(0.0141371 -0.00148819 0)
(0.0124229 -0.00136342 0)
(0.0108215 -0.00124632 0)
(0.00933507 -0.00113774 0)
(0.0079633 -0.00103761 0)
(0.00670409 -0.000944966 0)
(0.00555353 -0.000858238 0)
(0.0045061 -0.000775763 0)
(0.00355498 -0.000696463 0)
(0.0026925 -0.000620396 0)
(0.00191072 -0.000548817 0)
(0.00120211 -0.000483682 0)
(0.000559793 -0.000426772 0)
(-2.2135e-05 -0.000378987 0)
(-0.000548956 -0.000340073 0)
(-0.00102537 -0.000308945 0)
(-0.00145604 -0.000284176 0)
(-0.00184545 -0.000264491 0)
(-0.0021984 -0.000248908 0)
(-0.00251935 -0.000236722 0)
(-0.00281296 -0.000227357 0)
(-0.00308303 -0.000220276 0)
(-0.00333343 -0.000215038 0)
(-0.00356674 -0.000211221 0)
(-0.00378589 -0.000208683 0)
(-0.00399232 -0.000207163 0)
(-0.00418832 -0.000206818 0)
(-0.00437455 -0.000207318 0)
(-0.00455288 -0.000208976 0)
(-0.00472348 -0.000211169 0)
(-0.0048878 -0.000214325 0)
(-0.0050458 -0.000217548 0)
(-0.00519836 -0.000221368 0)
(-0.00534553 -0.000224859 0)
(-0.00548743 -0.000228465 0)
(0.0744551 -0.000508335 0)
(0.0740824 -0.000562153 0)
(0.0735763 -0.000601577 0)
(0.0731182 -0.000634255 0)
(0.0725637 -0.000657853 0)
(0.0720422 -0.000671196 0)
(0.0714552 -0.000679129 0)
(0.0708913 -0.00067799 0)
(0.0702853 -0.000673881 0)
(0.0696965 -0.000663352 0)
(0.0690825 -0.00065148 0)
(0.0684822 -0.000635752 0)
(0.0678685 -0.00061978 0)
(0.0672667 -0.000601928 0)
(0.0666593 -0.000584561 0)
(0.0660627 -0.000566669 0)
(0.0654654 -0.000549727 0)
(0.0648781 -0.000533116 0)
(0.064293 -0.000517721 0)
(0.0637171 -0.000503156 0)
(0.0631449 -0.000489935 0)
(0.0625807 -0.000477805 0)
(0.0620207 -0.000467054 0)
(0.0614675 -0.000457505 0)
(0.0609183 -0.000449316 0)
(0.0603744 -0.000442351 0)
(0.0598337 -0.000436699 0)
(0.0592967 -0.000432242 0)
(0.0587618 -0.000429047 0)
(0.0582289 -0.000426992 0)
(0.0576965 -0.00042616 0)
(0.0571644 -0.000426397 0)
(0.0566312 -0.00042784 0)
(0.0560964 -0.000430267 0)
(0.0555585 -0.00043392 0)
(0.0550171 -0.000438452 0)
(0.0544707 -0.000444274 0)
(0.0539187 -0.000450843 0)
(0.0533595 -0.000458811 0)
(0.0527925 -0.000467374 0)
(0.0522162 -0.000477464 0)
(0.0516297 -0.000488012 0)
(0.0510315 -0.000500166 0)
(0.0504208 -0.00051273 0)
(0.0497958 -0.000526841 0)
(0.0491557 -0.000541447 0)
(0.0484989 -0.000557427 0)
(0.0478241 -0.000573954 0)
(0.04713 -0.000591716 0)
(0.0464151 -0.000610036 0)
(0.0456782 -0.000629417 0)
(0.0449176 -0.000649315 0)
(0.0441322 -0.00067005 0)
(0.0433202 -0.000691186 0)
(0.0424807 -0.00071288 0)
(0.041612 -0.000734764 0)
(0.0407132 -0.00075686 0)
(0.0397827 -0.000778828 0)
(0.0388197 -0.000800577 0)
(0.0378232 -0.000821766 0)
(0.0367924 -0.000842208 0)
(0.0357267 -0.000861543 0)
(0.0346259 -0.000879505 0)
(0.0334898 -0.000895709 0)
(0.0323188 -0.000909829 0)
(0.0311136 -0.000921461 0)
(0.0298753 -0.000930251 0)
(0.0286055 -0.000935802 0)
(0.0273065 -0.000937768 0)
(0.025981 -0.000935803 0)
(0.0246324 -0.000929628 0)
(0.0232649 -0.000919007 0)
(0.0218831 -0.000903802 0)
(0.0204924 -0.000883962 0)
(0.0190989 -0.000859574 0)
(0.017709 -0.000830857 0)
(0.0163297 -0.000798199 0)
(0.014968 -0.00076215 0)
(0.0136312 -0.000723432 0)
(0.0123264 -0.000682904 0)
(0.0110604 -0.000641528 0)
(0.00983947 -0.000600277 0)
(0.00866929 -0.000560028 0)
(0.00755472 -0.000521416 0)
(0.00649976 -0.000484698 0)
(0.0055074 -0.000449657 0)
(0.0045796 -0.000415614 0)
(0.00371723 -0.00038161 0)
(0.00292005 -0.000346742 0)
(0.00218676 -0.000310575 0)
(0.00151508 -0.000273446 0)
(0.000901961 -0.000236497 0)
(0.000343815 -0.000201375 0)
(-0.000163097 -0.000169709 0)
(-0.000622348 -0.000142621 0)
(-0.00103709 -0.000120483 0)
(-0.00141006 -0.000103015 0)
(-0.0017438 -8.95912e-05 0)
(-0.00204113 -7.95251e-05 0)
(-0.00230536 -7.21857e-05 0)
(-0.00254045 -6.69236e-05 0)
(-0.00275056 -6.30084e-05 0)
(-0.00293981 -5.96693e-05 0)
(-0.00311165 -5.62982e-05 0)
(-0.00326903 -5.26333e-05 0)
(-0.00341416 -4.88377e-05 0)
(-0.00354911 -4.53788e-05 0)
(-0.00367549 -4.28041e-05 0)
(-0.00379512 -4.15418e-05 0)
(-0.00390925 -4.17452e-05 0)
(-0.00401947 -4.33735e-05 0)
(-0.00412654 -4.61383e-05 0)
(-0.00423175 -4.98139e-05 0)