/*--------------------------------*- C++ -*----------------------------------*\
| =========                 |                                                 |
| \\      /  F ield         | OpenFOAM: The Open Source CFD Toolbox           |
|  \\    /   O peration     | Version:  4.1                                   |
|   \\  /    A nd           | Web:      www.OpenFOAM.org                      |
|    \\/     M anipulation  |                                                 |
\*---------------------------------------------------------------------------*/
FoamFile
{
    version     2.0;
    format      ascii;
    class       volScalarField;
    location    "413";
    object      p;
}
// * * * * * * * * * * * * * * * * * * * * * * * * * * * * * * * * * * * * * //

dimensions      [1 -1 -2 0 0 0 0];

internalField   nonuniform List<scalar> 
3264
(
0.712483
0.712482
0.712481
0.71248
0.71248
0.712481
0.712482
0.712484
0.712486
0.71249
0.712494
0.712499
0.712505
0.712513
0.712521
0.71253
0.71254
0.712552
0.712564
0.712578
0.712592
0.712608
0.712625
0.712644
0.712663
0.712684
0.712707
0.712731
0.712757
0.712784
0.712814
0.712845
0.712879
0.712915
0.712953
0.712993
0.713036
0.713082
0.71313
0.71318
0.713233
0.713288
0.713345
0.713405
0.713466
0.713528
0.713592
0.713657
0.713722
0.713786
0.713851
0.713915
0.713977
0.714038
0.714096
0.714152
0.714206
0.714256
0.714303
0.714346
0.714385
0.714421
0.714453
0.714481
0.714506
0.714527
0.714544
0.714559
0.71457
0.714579
0.714586
0.714591
0.714594
0.714595
0.714596
0.714595
0.714594
0.714593
0.714591
0.71459
0.714588
0.714587
0.714586
0.714585
0.714585
0.714585
0.714586
0.714587
0.714589
0.714591
0.714594
0.714596
0.714599
0.714603
0.714606
0.71461
0.714614
0.714618
0.714621
0.714625
0.714629
0.714633
0.714636
0.714639
0.714642
0.714645
0.714648
0.71465
0.714652
0.714654
0.714656
0.714657
0.714658
0.714659
0.714659
0.71466
0.71466
0.71466
0.714659
0.714659
0.714658
0.714658
0.714657
0.714655
0.714654
0.714653
0.714651
0.71465
0.714648
0.714647
0.714645
0.714643
0.714641
0.714639
0.714638
0.714636
0.714634
0.714632
0.71463
0.714628
0.714626
0.714625
0.714623
0.714621
0.714619
0.714617
0.714615
0.714613
0.714611
0.714609
0.714607
0.714605
0.714602
0.714599
0.714597
0.714594
0.71459
0.714587
0.714583
0.714579
0.714574
0.71457
0.714565
0.714559
0.714554
0.714548
0.714541
0.714535
0.714528
0.714521
0.714513
0.714506
0.714498
0.71449
0.714481
0.714473
0.714464
0.714456
0.714447
0.714438
0.71443
0.714421
0.714412
0.714404
0.714395
0.714387
0.714379
0.714371
0.714363
0.714355
0.714348
0.71434
0.714333
0.714326
0.71432
0.714313
0.714307
0.714301
0.714295
0.71429
0.712485
0.712483
0.712483
0.712482
0.712482
0.712483
0.712484
0.712486
0.712488
0.712492
0.712496
0.712501
0.712507
0.712514
0.712522
0.712532
0.712542
0.712553
0.712565
0.712579
0.712594
0.712609
0.712626
0.712645
0.712664
0.712685
0.712708
0.712732
0.712757
0.712785
0.712814
0.712845
0.712878
0.712914
0.712951
0.712991
0.713034
0.713079
0.713126
0.713176
0.713229
0.713284
0.713341
0.7134
0.71346
0.713523
0.713586
0.71365
0.713715
0.71378
0.713844
0.713908
0.71397
0.714031
0.714089
0.714145
0.714199
0.714249
0.714296
0.714339
0.714379
0.714415
0.714447
0.714475
0.7145
0.714521
0.714539
0.714553
0.714565
0.714574
0.714581
0.714586
0.71459
0.714592
0.714593
0.714593
0.714592
0.714591
0.71459
0.714589
0.714587
0.714587
0.714586
0.714586
0.714586
0.714586
0.714587
0.714589
0.714591
0.714593
0.714596
0.714599
0.714602
0.714605
0.714609
0.714612
0.714616
0.71462
0.714624
0.714628
0.714631
0.714635
0.714638
0.714641
0.714644
0.714647
0.714649
0.714652
0.714654
0.714655
0.714657
0.714658
0.714659
0.71466
0.71466
0.714661
0.714661
0.71466
0.71466
0.714659
0.714659
0.714658
0.714657
0.714656
0.714654
0.714653
0.714651
0.71465
0.714648
0.714646
0.714644
0.714643
0.714641
0.714639
0.714637
0.714635
0.714633
0.714631
0.714629
0.714627
0.714626
0.714624
0.714622
0.71462
0.714618
0.714616
0.714614
0.714612
0.71461
0.714608
0.714606
0.714603
0.714601
0.714598
0.714595
0.714592
0.714589
0.714586
0.714582
0.714578
0.714574
0.714569
0.714564
0.714559
0.714553
0.714547
0.714541
0.714535
0.714528
0.714521
0.714513
0.714506
0.714498
0.71449
0.714482
0.714473
0.714465
0.714456
0.714447
0.714439
0.71443
0.714421
0.714412
0.714404
0.714395
0.714387
0.714379
0.71437
0.714363
0.714355
0.714347
0.71434
0.714333
0.714326
0.714319
0.714313
0.714307
0.714301
0.714294
0.71429
0.712486
0.712484
0.712483
0.712483
0.712482
0.712483
0.712483
0.712485
0.712487
0.712491
0.712495
0.7125
0.712506
0.712513
0.712521
0.71253
0.712541
0.712552
0.712564
0.712578
0.712592
0.712608
0.712625
0.712643
0.712663
0.712683
0.712706
0.71273
0.712755
0.712782
0.712811
0.712842
0.712875
0.71291
0.712948
0.712987
0.71303
0.713074
0.713122
0.713172
0.713224
0.713278
0.713335
0.713394
0.713455
0.713517
0.71358
0.713645
0.713709
0.713774
0.713838
0.713902
0.713964
0.714024
0.714083
0.714139
0.714192
0.714242
0.714289
0.714332
0.714372
0.714408
0.71444
0.714468
0.714492
0.714514
0.714531
0.714546
0.714558
0.714567
0.714574
0.71458
0.714583
0.714585
0.714586
0.714587
0.714586
0.714586
0.714585
0.714584
0.714583
0.714583
0.714582
0.714583
0.714583
0.714584
0.714585
0.714587
0.714589
0.714592
0.714595
0.714598
0.714602
0.714605
0.714609
0.714613
0.714617
0.714621
0.714625
0.714629
0.714632
0.714636
0.714639
0.714643
0.714646
0.714648
0.714651
0.714653
0.714655
0.714657
0.714658
0.714659
0.71466
0.714661
0.714661
0.714662
0.714662
0.714661
0.714661
0.71466
0.714659
0.714658
0.714657
0.714656
0.714655
0.714653
0.714652
0.71465
0.714648
0.714646
0.714645
0.714643
0.714641
0.714639
0.714637
0.714635
0.714633
0.714631
0.714629
0.714627
0.714625
0.714623
0.714621
0.714619
0.714617
0.714615
0.714614
0.714612
0.714609
0.714607
0.714605
0.714603
0.7146
0.714598
0.714595
0.714592
0.714589
0.714585
0.714581
0.714577
0.714573
0.714568
0.714564
0.714558
0.714553
0.714547
0.714541
0.714534
0.714528
0.714521
0.714513
0.714506
0.714498
0.71449
0.714482
0.714473
0.714465
0.714456
0.714447
0.714439
0.71443
0.714421
0.714412
0.714404
0.714395
0.714387
0.714379
0.714371
0.714363
0.714355
0.714347
0.71434
0.714333
0.714326
0.714319
0.714313
0.714306
0.7143
0.714294
0.71429
0.712481
0.71248
0.712479
0.71248
0.712479
0.71248
0.712481
0.712483
0.712485
0.712488
0.712493
0.712498
0.712504
0.712511
0.712519
0.712528
0.712539
0.71255
0.712562
0.712576
0.71259
0.712606
0.712623
0.712641
0.71266
0.712681
0.712703
0.712727
0.712752
0.712779
0.712807
0.712838
0.712871
0.712906
0.712943
0.712982
0.713024
0.713069
0.713116
0.713165
0.713217
0.713271
0.713328
0.713387
0.713447
0.713509
0.713572
0.713636
0.7137
0.713764
0.713828
0.713891
0.713953
0.714013
0.714071
0.714127
0.714179
0.714229
0.714275
0.714317
0.714356
0.714392
0.714423
0.714451
0.714475
0.714496
0.714513
0.714528
0.71454
0.714549
0.714556
0.714562
0.714566
0.714569
0.71457
0.714571
0.714572
0.714572
0.714572
0.714572
0.714572
0.714572
0.714573
0.714574
0.714575
0.714577
0.714579
0.714582
0.714585
0.714588
0.714591
0.714595
0.714599
0.714604
0.714608
0.714612
0.714617
0.714621
0.714626
0.71463
0.714634
0.714638
0.714641
0.714645
0.714648
0.714651
0.714653
0.714656
0.714658
0.71466
0.714661
0.714662
0.714663
0.714664
0.714664
0.714664
0.714664
0.714664
0.714663
0.714662
0.714661
0.71466
0.714659
0.714658
0.714656
0.714655
0.714653
0.714651
0.714649
0.714647
0.714645
0.714643
0.714641
0.714639
0.714637
0.714635
0.714633
0.714631
0.714629
0.714627
0.714625
0.714623
0.714621
0.714619
0.714617
0.714615
0.714613
0.714611
0.714609
0.714606
0.714604
0.714602
0.714599
0.714596
0.714593
0.71459
0.714587
0.714584
0.71458
0.714576
0.714571
0.714567
0.714562
0.714557
0.714551
0.714546
0.714539
0.714533
0.714526
0.714519
0.714512
0.714505
0.714497
0.714489
0.714481
0.714473
0.714464
0.714456
0.714447
0.714439
0.71443
0.714421
0.714413
0.714404
0.714396
0.714387
0.714379
0.714371
0.714363
0.714355
0.714348
0.71434
0.714333
0.714326
0.714319
0.714312
0.714306
0.7143
0.714294
0.714289
0.712478
0.712478
0.712475
0.712476
0.712474
0.712475
0.712476
0.712478
0.71248
0.712484
0.712488
0.712494
0.7125
0.712508
0.712516
0.712525
0.712536
0.712547
0.712559
0.712573
0.712588
0.712603
0.71262
0.712638
0.712658
0.712678
0.7127
0.712724
0.712749
0.712776
0.712804
0.712835
0.712867
0.712902
0.712939
0.712978
0.71302
0.713064
0.713111
0.713161
0.713212
0.713266
0.713323
0.713381
0.713441
0.713502
0.713565
0.713628
0.713692
0.713755
0.713818
0.71388
0.713941
0.714
0.714056
0.71411
0.714162
0.71421
0.714254
0.714295
0.714333
0.714367
0.714397
0.714423
0.714446
0.714466
0.714483
0.714497
0.714509
0.714518
0.714525
0.714531
0.714535
0.714539
0.714541
0.714543
0.714544
0.714546
0.714547
0.714548
0.71455
0.714551
0.714553
0.714556
0.714559
0.714562
0.714565
0.714569
0.714573
0.714578
0.714582
0.714587
0.714592
0.714598
0.714603
0.714608
0.714614
0.714619
0.714624
0.714629
0.714633
0.714638
0.714642
0.714646
0.71465
0.714653
0.714656
0.714659
0.714661
0.714663
0.714665
0.714666
0.714667
0.714668
0.714668
0.714668
0.714668
0.714668
0.714667
0.714666
0.714665
0.714664
0.714663
0.714661
0.71466
0.714658
0.714656
0.714654
0.714652
0.71465
0.714648
0.714646
0.714644
0.714641
0.714639
0.714637
0.714635
0.714632
0.71463
0.714628
0.714626
0.714624
0.714621
0.714619
0.714617
0.714615
0.714613
0.71461
0.714608
0.714606
0.714603
0.7146
0.714598
0.714595
0.714592
0.714589
0.714585
0.714581
0.714578
0.714573
0.714569
0.714564
0.714559
0.714554
0.714549
0.714543
0.714537
0.71453
0.714524
0.714517
0.71451
0.714502
0.714495
0.714487
0.714479
0.714471
0.714463
0.714455
0.714446
0.714438
0.71443
0.714421
0.714413
0.714404
0.714396
0.714388
0.71438
0.714372
0.714364
0.714356
0.714348
0.714341
0.714334
0.714326
0.71432
0.714313
0.714306
0.7143
0.714293
0.714288
0.712446
0.712461
0.712461
0.712467
0.712468
0.71247
0.712472
0.712474
0.712477
0.712481
0.712486
0.712492
0.712498
0.712506
0.712514
0.712523
0.712534
0.712545
0.712558
0.712571
0.712586
0.712602
0.712619
0.712637
0.712656
0.712677
0.712699
0.712722
0.712748
0.712774
0.712803
0.712833
0.712866
0.712901
0.712938
0.712977
0.713019
0.713064
0.71311
0.71316
0.713211
0.713265
0.713321
0.713379
0.713438
0.713499
0.713561
0.713623
0.713685
0.713747
0.713808
0.713869
0.713927
0.713984
0.714038
0.71409
0.714138
0.714184
0.714226
0.714264
0.714299
0.714331
0.714358
0.714383
0.714404
0.714423
0.714438
0.714451
0.714462
0.714471
0.714479
0.714485
0.71449
0.714494
0.714498
0.714501
0.714504
0.714507
0.71451
0.714513
0.714517
0.714521
0.714525
0.714529
0.714534
0.714539
0.714544
0.71455
0.714556
0.714562
0.714568
0.714574
0.714581
0.714588
0.714594
0.714601
0.714607
0.714614
0.71462
0.714626
0.714631
0.714637
0.714642
0.714647
0.714651
0.714655
0.714659
0.714662
0.714665
0.714668
0.71467
0.714672
0.714673
0.714674
0.714675
0.714675
0.714675
0.714675
0.714674
0.714673
0.714672
0.714671
0.71467
0.714668
0.714666
0.714664
0.714662
0.71466
0.714658
0.714656
0.714653
0.714651
0.714648
0.714646
0.714643
0.714641
0.714638
0.714636
0.714633
0.714631
0.714628
0.714626
0.714623
0.714621
0.714618
0.714616
0.714613
0.714611
0.714608
0.714605
0.714602
0.7146
0.714596
0.714593
0.71459
0.714586
0.714582
0.714578
0.714574
0.71457
0.714565
0.71456
0.714555
0.71455
0.714544
0.714538
0.714532
0.714526
0.714519
0.714513
0.714506
0.714499
0.714491
0.714484
0.714476
0.714468
0.714461
0.714453
0.714445
0.714437
0.714429
0.714421
0.714412
0.714404
0.714396
0.714388
0.71438
0.714373
0.714365
0.714357
0.71435
0.714342
0.714335
0.714328
0.714321
0.714314
0.714307
0.7143
0.714293
0.714287
0.712445
0.712462
0.71246
0.712464
0.712464
0.712466
0.712469
0.712472
0.712475
0.71248
0.712485
0.712491
0.712497
0.712505
0.712514
0.712523
0.712534
0.712545
0.712558
0.712572
0.712587
0.712602
0.71262
0.712638
0.712657
0.712678
0.712701
0.712724
0.71275
0.712777
0.712806
0.712837
0.71287
0.712905
0.712943
0.712983
0.713025
0.71307
0.713117
0.713166
0.713218
0.713271
0.713327
0.713384
0.713443
0.713502
0.713562
0.713623
0.713683
0.713743
0.713802
0.713859
0.713914
0.713968
0.714019
0.714067
0.714111
0.714153
0.714191
0.714226
0.714258
0.714286
0.71431
0.714332
0.714351
0.714367
0.714381
0.714393
0.714404
0.714413
0.71442
0.714427
0.714433
0.714439
0.714444
0.714449
0.714454
0.71446
0.714465
0.714471
0.714477
0.714483
0.714489
0.714496
0.714503
0.71451
0.714518
0.714525
0.714533
0.714541
0.71455
0.714558
0.714566
0.714574
0.714582
0.71459
0.714598
0.714606
0.714613
0.714621
0.714628
0.714634
0.71464
0.714646
0.714652
0.714657
0.714662
0.714666
0.71467
0.714673
0.714676
0.714678
0.71468
0.714682
0.714683
0.714684
0.714684
0.714684
0.714684
0.714683
0.714682
0.714681
0.71468
0.714678
0.714676
0.714674
0.714672
0.714669
0.714667
0.714664
0.714662
0.714659
0.714656
0.714654
0.714651
0.714648
0.714645
0.714642
0.714639
0.714636
0.714633
0.71463
0.714628
0.714625
0.714622
0.714619
0.714616
0.714612
0.714609
0.714606
0.714603
0.714599
0.714596
0.714592
0.714588
0.714584
0.71458
0.714575
0.71457
0.714566
0.714561
0.714555
0.71455
0.714544
0.714539
0.714533
0.714526
0.71452
0.714513
0.714507
0.7145
0.714493
0.714486
0.714479
0.714472
0.714465
0.714457
0.71445
0.714442
0.714435
0.714427
0.71442
0.714412
0.714404
0.714397
0.714389
0.714382
0.714374
0.714367
0.714359
0.714352
0.714344
0.714337
0.71433
0.714322
0.714315
0.714308
0.7143
0.714293
0.714286
0.712291
0.71243
0.712446
0.712467
0.71247
0.712474
0.712475
0.712478
0.71248
0.712484
0.712489
0.712494
0.712501
0.712508
0.712517
0.712526
0.712537
0.712549
0.712562
0.712575
0.712591
0.712607
0.712624
0.712643
0.712663
0.712685
0.712708
0.712732
0.712758
0.712787
0.712816
0.712848
0.712882
0.712918
0.712957
0.712998
0.713041
0.713086
0.713133
0.713183
0.713235
0.713288
0.713343
0.713399
0.713457
0.713515
0.713573
0.713631
0.713688
0.713745
0.7138
0.713854
0.713905
0.713954
0.714
0.714043
0.714083
0.71412
0.714153
0.714183
0.71421
0.714234
0.714256
0.714274
0.714291
0.714305
0.714318
0.714329
0.714339
0.714348
0.714357
0.714365
0.714372
0.71438
0.714387
0.714395
0.714403
0.714411
0.714419
0.714427
0.714435
0.714444
0.714453
0.714462
0.714472
0.714481
0.714491
0.714501
0.714511
0.714521
0.714531
0.714541
0.714551
0.71456
0.71457
0.714579
0.714589
0.714598
0.714607
0.714615
0.714623
0.714631
0.714639
0.714646
0.714652
0.714659
0.714664
0.71467
0.714674
0.714679
0.714682
0.714686
0.714688
0.714691
0.714693
0.714694
0.714695
0.714695
0.714695
0.714695
0.714694
0.714693
0.714692
0.714691
0.714689
0.714687
0.714684
0.714682
0.714679
0.714676
0.714673
0.71467
0.714667
0.714664
0.714661
0.714658
0.714654
0.714651
0.714648
0.714644
0.714641
0.714637
0.714634
0.71463
0.714627
0.714623
0.714619
0.714615
0.714612
0.714608
0.714604
0.714599
0.714595
0.714591
0.714586
0.714581
0.714576
0.714571
0.714566
0.714561
0.714555
0.71455
0.714544
0.714538
0.714532
0.714526
0.714519
0.714513
0.714506
0.7145
0.714493
0.714487
0.71448
0.714473
0.714466
0.71446
0.714453
0.714446
0.714439
0.714432
0.714425
0.714418
0.714411
0.714404
0.714397
0.71439
0.714383
0.714376
0.714368
0.714361
0.714354
0.714347
0.714339
0.714332
0.714325
0.714317
0.714309
0.714302
0.714293
0.714286
0.713016
0.71296
0.712897
0.71283
0.712758
0.71268
0.712593
0.712476
0.713022
0.712976
0.712913
0.712844
0.712771
0.712693
0.712603
0.712506
0.713026
0.712987
0.712929
0.712864
0.712794
0.712723
0.712652
0.712583
0.713036
0.713002
0.712949
0.712888
0.712824
0.712759
0.712696
0.712638
0.713048
0.713016
0.712967
0.71291
0.712851
0.712794
0.71274
0.712692
0.713062
0.713029
0.712981
0.712927
0.712873
0.712821
0.712773
0.71273
0.713078
0.71304
0.71299
0.712938
0.712886
0.712838
0.712794
0.712754
0.713085
0.713038
0.712988
0.712938
0.712889
0.712843
0.7128
0.712761
0.712415
0.712435
0.712456
0.712467
0.712472
0.712476
0.712478
0.712481
0.712484
0.712488
0.712493
0.712498
0.712505
0.712513
0.712522
0.712532
0.712543
0.712555
0.712569
0.712583
0.712599
0.712616
0.712634
0.712654
0.712675
0.712698
0.712722
0.712748
0.712776
0.712806
0.712837
0.712871
0.712906
0.712944
0.712984
0.713026
0.71307
0.713116
0.713164
0.713214
0.713266
0.713319
0.713373
0.713428
0.713484
0.713539
0.713595
0.71365
0.713703
0.713756
0.713806
0.713854
0.7139
0.713943
0.713984
0.714021
0.714055
0.714086
0.714114
0.71414
0.714162
0.714182
0.7142
0.714217
0.714231
0.714244
0.714256
0.714268
0.714278
0.714288
0.714298
0.714308
0.714318
0.714328
0.714338
0.714348
0.714358
0.714369
0.714379
0.71439
0.714401
0.714412
0.714423
0.714435
0.714446
0.714457
0.714469
0.714481
0.714492
0.714504
0.714515
0.714526
0.714538
0.714549
0.71456
0.71457
0.714581
0.714591
0.714601
0.714611
0.71462
0.714629
0.714637
0.714646
0.714653
0.71466
0.714667
0.714673
0.714679
0.714684
0.714689
0.714693
0.714697
0.7147
0.714703
0.714705
0.714706
0.714707
0.714708
0.714708
0.714708
0.714707
0.714706
0.714704
0.714703
0.714701
0.714698
0.714696
0.714693
0.71469
0.714687
0.714684
0.71468
0.714677
0.714673
0.714669
0.714665
0.714662
0.714658
0.714654
0.71465
0.714645
0.714641
0.714637
0.714633
0.714628
0.714624
0.714619
0.714615
0.71461
0.714605
0.7146
0.714595
0.71459
0.714584
0.714579
0.714573
0.714568
0.714562
0.714556
0.71455
0.714544
0.714537
0.714531
0.714525
0.714518
0.714512
0.714506
0.714499
0.714493
0.714486
0.71448
0.714473
0.714467
0.714461
0.714454
0.714448
0.714442
0.714436
0.714429
0.714423
0.714417
0.71441
0.714404
0.714397
0.714391
0.714384
0.714377
0.714371
0.714364
0.714357
0.714349
0.714342
0.714335
0.714327
0.714319
0.714311
0.714303
0.714295
0.714286
0.712435
0.712446
0.712459
0.712471
0.712479
0.712484
0.712487
0.71249
0.712493
0.712497
0.712502
0.712508
0.712515
0.712523
0.712532
0.712543
0.712554
0.712567
0.712581
0.712597
0.712614
0.712632
0.712652
0.712674
0.712696
0.712721
0.712747
0.712775
0.712805
0.712837
0.71287
0.712906
0.712943
0.712983
0.713025
0.713068
0.713114
0.713161
0.71321
0.71326
0.713311
0.713364
0.713417
0.71347
0.713523
0.713575
0.713627
0.713677
0.713726
0.713773
0.713818
0.71386
0.713899
0.713936
0.71397
0.714001
0.714029
0.714055
0.714078
0.714099
0.714118
0.714136
0.714152
0.714166
0.71418
0.714193
0.714206
0.714218
0.71423
0.714242
0.714254
0.714266
0.714278
0.71429
0.714302
0.714314
0.714327
0.714339
0.714352
0.714365
0.714377
0.71439
0.714403
0.714416
0.714428
0.714441
0.714454
0.714467
0.71448
0.714492
0.714505
0.714517
0.714529
0.714541
0.714553
0.714565
0.714576
0.714587
0.714598
0.714608
0.714619
0.714628
0.714638
0.714647
0.714655
0.714663
0.714671
0.714678
0.714684
0.71469
0.714696
0.714701
0.714705
0.714709
0.714712
0.714715
0.714717
0.714719
0.71472
0.71472
0.71472
0.71472
0.714719
0.714718
0.714717
0.714715
0.714712
0.71471
0.714707
0.714704
0.714701
0.714697
0.714693
0.714689
0.714685
0.714681
0.714677
0.714672
0.714668
0.714663
0.714659
0.714654
0.714649
0.714644
0.714639
0.714634
0.714629
0.714623
0.714618
0.714612
0.714607
0.714601
0.714595
0.714589
0.714583
0.714577
0.71457
0.714564
0.714558
0.714551
0.714545
0.714538
0.714531
0.714525
0.714518
0.714512
0.714505
0.714499
0.714492
0.714486
0.71448
0.714474
0.714468
0.714462
0.714456
0.71445
0.714444
0.714438
0.714433
0.714427
0.714421
0.714415
0.71441
0.714404
0.714398
0.714392
0.714385
0.714379
0.714373
0.714366
0.714359
0.714352
0.714345
0.714337
0.71433
0.714322
0.714314
0.714305
0.714297
0.714288
0.71253
0.712507
0.7125
0.7125
0.712501
0.712502
0.712504
0.712505
0.712508
0.712511
0.712516
0.712521
0.712528
0.712537
0.712547
0.712558
0.71257
0.712584
0.7126
0.712617
0.712635
0.712655
0.712677
0.7127
0.712725
0.712752
0.71278
0.712811
0.712843
0.712877
0.712913
0.712951
0.712991
0.713033
0.713076
0.713122
0.713168
0.713216
0.713265
0.713315
0.713366
0.713417
0.713467
0.713518
0.713567
0.713615
0.713662
0.713708
0.713751
0.713791
0.71383
0.713865
0.713899
0.713929
0.713957
0.713983
0.714006
0.714028
0.714048
0.714066
0.714084
0.7141
0.714116
0.714131
0.714145
0.714159
0.714173
0.714187
0.714201
0.714214
0.714228
0.714241
0.714255
0.714269
0.714282
0.714296
0.71431
0.714323
0.714337
0.714351
0.714364
0.714378
0.714392
0.714405
0.714419
0.714433
0.714446
0.71446
0.714473
0.714486
0.714499
0.714512
0.714525
0.714538
0.71455
0.714562
0.714574
0.714586
0.714597
0.714608
0.714619
0.714629
0.714639
0.714649
0.714658
0.714667
0.714675
0.714682
0.71469
0.714696
0.714702
0.714708
0.714713
0.714717
0.714721
0.714724
0.714727
0.714729
0.71473
0.714731
0.714732
0.714732
0.714731
0.71473
0.714729
0.714727
0.714725
0.714722
0.714719
0.714716
0.714712
0.714709
0.714705
0.714701
0.714696
0.714692
0.714687
0.714682
0.714677
0.714672
0.714667
0.714661
0.714656
0.71465
0.714645
0.714639
0.714633
0.714627
0.714621
0.714614
0.714608
0.714601
0.714595
0.714588
0.714581
0.714575
0.714568
0.714561
0.714554
0.714547
0.71454
0.714533
0.714526
0.714519
0.714513
0.714506
0.714499
0.714493
0.714487
0.714481
0.714475
0.714469
0.714463
0.714457
0.714452
0.714446
0.714441
0.714436
0.71443
0.714425
0.71442
0.714415
0.714409
0.714404
0.714398
0.714393
0.714387
0.714381
0.714374
0.714368
0.714361
0.714354
0.714347
0.71434
0.714332
0.714324
0.714316
0.714307
0.714298
0.714289
0.712592
0.712564
0.712549
0.712541
0.712536
0.712533
0.712531
0.71253
0.71253
0.712532
0.712536
0.71254
0.712547
0.712555
0.712565
0.712576
0.71259
0.712604
0.712621
0.712639
0.712659
0.712681
0.712704
0.712729
0.712757
0.712785
0.712816
0.712849
0.712884
0.71292
0.712959
0.712999
0.713041
0.713084
0.713129
0.713175
0.713222
0.713271
0.713319
0.713368
0.713417
0.713465
0.713513
0.71356
0.713605
0.713649
0.71369
0.71373
0.713767
0.713803
0.713835
0.713866
0.713894
0.71392
0.713944
0.713967
0.713988
0.714008
0.714027
0.714045
0.714063
0.714079
0.714095
0.714111
0.714127
0.714142
0.714157
0.714172
0.714187
0.714202
0.714216
0.714231
0.714245
0.714259
0.714274
0.714288
0.714302
0.714316
0.714331
0.714345
0.714359
0.714373
0.714387
0.714401
0.714415
0.714429
0.714443
0.714457
0.71447
0.714484
0.714497
0.714511
0.714524
0.714537
0.714549
0.714562
0.714574
0.714586
0.714598
0.714609
0.714621
0.714631
0.714642
0.714652
0.714661
0.71467
0.714679
0.714687
0.714694
0.714701
0.714708
0.714714
0.714719
0.714724
0.714728
0.714731
0.714734
0.714737
0.714739
0.71474
0.71474
0.714741
0.71474
0.714739
0.714738
0.714736
0.714734
0.714731
0.714728
0.714725
0.714722
0.714718
0.714713
0.714709
0.714704
0.714699
0.714694
0.714689
0.714684
0.714678
0.714673
0.714667
0.714661
0.714655
0.714648
0.714642
0.714635
0.714629
0.714622
0.714615
0.714608
0.714601
0.714594
0.714587
0.71458
0.714573
0.714565
0.714558
0.714551
0.714544
0.714536
0.714529
0.714522
0.714515
0.714509
0.714502
0.714495
0.714489
0.714483
0.714477
0.714471
0.714465
0.71446
0.714455
0.714449
0.714444
0.714439
0.714434
0.714429
0.714424
0.714419
0.714414
0.714409
0.714404
0.714399
0.714393
0.714388
0.714382
0.714376
0.714369
0.714363
0.714356
0.714349
0.714341
0.714333
0.714325
0.714317
0.714308
0.714299
0.714291
0.712652
0.712623
0.712603
0.712588
0.712577
0.712569
0.712562
0.712558
0.712555
0.712554
0.712556
0.712559
0.712565
0.712573
0.712582
0.712594
0.712608
0.712623
0.71264
0.71266
0.712681
0.712704
0.712729
0.712756
0.712785
0.712816
0.712848
0.712883
0.712919
0.712958
0.712998
0.713039
0.713082
0.713127
0.713172
0.713219
0.713266
0.713313
0.71336
0.713407
0.713453
0.713499
0.713543
0.713586
0.713627
0.713667
0.713704
0.71374
0.713773
0.713805
0.713834
0.713861
0.713887
0.713911
0.713934
0.713956
0.713976
0.713996
0.714016
0.714034
0.714053
0.71407
0.714087
0.714104
0.71412
0.714136
0.714152
0.714167
0.714183
0.714198
0.714212
0.714227
0.714242
0.714256
0.714271
0.714285
0.7143
0.714314
0.714329
0.714343
0.714357
0.714372
0.714386
0.7144
0.714414
0.714428
0.714442
0.714456
0.71447
0.714484
0.714497
0.714511
0.714524
0.714537
0.71455
0.714563
0.714575
0.714588
0.714599
0.714611
0.714622
0.714633
0.714644
0.714654
0.714664
0.714673
0.714682
0.71469
0.714698
0.714705
0.714712
0.714718
0.714724
0.714729
0.714733
0.714737
0.71474
0.714742
0.714744
0.714746
0.714746
0.714747
0.714746
0.714746
0.714744
0.714742
0.71474
0.714738
0.714735
0.714731
0.714727
0.714723
0.714719
0.714714
0.71471
0.714704
0.714699
0.714694
0.714688
0.714682
0.714676
0.71467
0.714663
0.714657
0.71465
0.714643
0.714637
0.71463
0.714622
0.714615
0.714608
0.714601
0.714593
0.714586
0.714578
0.714571
0.714564
0.714556
0.714549
0.714541
0.714534
0.714527
0.71452
0.714513
0.714506
0.7145
0.714493
0.714487
0.714481
0.714475
0.714469
0.714464
0.714458
0.714453
0.714448
0.714443
0.714438
0.714434
0.714429
0.714424
0.714419
0.714415
0.71441
0.714405
0.7144
0.714394
0.714389
0.714383
0.714377
0.71437
0.714364
0.714357
0.71435
0.714342
0.714334
0.714326
0.714318
0.714309
0.7143
0.714291
0.712694
0.712664
0.712641
0.712622
0.712606
0.712594
0.712583
0.712576
0.712571
0.712568
0.712568
0.712571
0.712576
0.712583
0.712593
0.712605
0.712619
0.712635
0.712653
0.712673
0.712695
0.712719
0.712745
0.712773
0.712803
0.712835
0.712869
0.712904
0.712942
0.712981
0.713021
0.713063
0.713106
0.713151
0.713196
0.713241
0.713287
0.713333
0.713379
0.713424
0.713468
0.713511
0.713553
0.713593
0.713631
0.713668
0.713703
0.713736
0.713768
0.713797
0.713826
0.713853
0.713879
0.713903
0.713927
0.71395
0.713972
0.713992
0.714012
0.714032
0.71405
0.714068
0.714085
0.714102
0.714118
0.714134
0.71415
0.714166
0.714181
0.714196
0.714211
0.714226
0.714241
0.714256
0.71427
0.714285
0.7143
0.714314
0.714329
0.714343
0.714357
0.714372
0.714386
0.7144
0.714415
0.714429
0.714443
0.714457
0.714471
0.714485
0.714498
0.714512
0.714525
0.714539
0.714552
0.714565
0.714577
0.714589
0.714601
0.714613
0.714625
0.714636
0.714646
0.714657
0.714666
0.714676
0.714685
0.714693
0.714701
0.714708
0.714715
0.714721
0.714727
0.714732
0.714736
0.71474
0.714743
0.714746
0.714748
0.714749
0.71475
0.71475
0.71475
0.714749
0.714748
0.714746
0.714744
0.714741
0.714738
0.714734
0.714731
0.714726
0.714722
0.714717
0.714712
0.714707
0.714701
0.714695
0.714689
0.714683
0.714677
0.714671
0.714664
0.714657
0.714651
0.714644
0.714636
0.714629
0.714622
0.714615
0.714607
0.7146
0.714592
0.714585
0.714577
0.71457
0.714562
0.714555
0.714548
0.71454
0.714533
0.714526
0.714519
0.714512
0.714505
0.714499
0.714492
0.714486
0.71448
0.714474
0.714469
0.714463
0.714458
0.714453
0.714448
0.714443
0.714438
0.714434
0.714429
0.714425
0.71442
0.714415
0.71441
0.714405
0.7144
0.714395
0.714389
0.714383
0.714377
0.714371
0.714364
0.714357
0.71435
0.714343
0.714335
0.714327
0.714318
0.714309
0.7143
0.714291
0.712719
0.712689
0.712663
0.71264
0.712622
0.712606
0.712593
0.712584
0.712578
0.712574
0.712574
0.712576
0.712581
0.712588
0.712598
0.71261
0.712624
0.71264
0.712659
0.712679
0.712702
0.712726
0.712753
0.712781
0.712811
0.712844
0.712878
0.712913
0.712951
0.71299
0.71303
0.713072
0.713115
0.713158
0.713202
0.713247
0.713292
0.713336
0.71338
0.713424
0.713466
0.713508
0.713548
0.713588
0.713626
0.713663
0.713698
0.713732
0.713764
0.713794
0.713823
0.713851
0.713877
0.713902
0.713925
0.713948
0.71397
0.71399
0.71401
0.714029
0.714048
0.714066
0.714084
0.714101
0.714117
0.714134
0.714149
0.714165
0.714181
0.714196
0.714211
0.714226
0.714241
0.714256
0.71427
0.714285
0.7143
0.714314
0.714329
0.714343
0.714358
0.714372
0.714387
0.714401
0.714415
0.714429
0.714444
0.714458
0.714472
0.714486
0.714499
0.714513
0.714526
0.71454
0.714553
0.714566
0.714578
0.714591
0.714603
0.714614
0.714626
0.714637
0.714648
0.714658
0.714668
0.714677
0.714686
0.714695
0.714703
0.71471
0.714717
0.714723
0.714729
0.714734
0.714738
0.714742
0.714745
0.714748
0.71475
0.714751
0.714752
0.714752
0.714752
0.714751
0.714749
0.714748
0.714745
0.714742
0.714739
0.714736
0.714732
0.714727
0.714723
0.714718
0.714713
0.714707
0.714702
0.714696
0.71469
0.714684
0.714677
0.714671
0.714664
0.714657
0.71465
0.714643
0.714636
0.714629
0.714621
0.714614
0.714607
0.714599
0.714592
0.714584
0.714577
0.714569
0.714562
0.714554
0.714547
0.71454
0.714533
0.714526
0.714519
0.714512
0.714505
0.714499
0.714492
0.714486
0.71448
0.714475
0.714469
0.714464
0.714458
0.714453
0.714448
0.714443
0.714439
0.714434
0.714429
0.714425
0.71442
0.714415
0.714411
0.714406
0.7144
0.714395
0.71439
0.714384
0.714378
0.714371
0.714365
0.714358
0.71435
0.714343
0.714335
0.714327
0.714318
0.714309
0.7143
0.714291
0.712725
0.712693
0.712665
0.71264
0.71262
0.712603
0.712589
0.71258
0.712573
0.71257
0.712569
0.712571
0.712576
0.712584
0.712593
0.712605
0.71262
0.712636
0.712654
0.712675
0.712697
0.712722
0.712748
0.712776
0.712806
0.712838
0.712872
0.712908
0.712945
0.712983
0.713023
0.713064
0.713107
0.71315
0.713194
0.713238
0.713283
0.713328
0.713372
0.713416
0.713459
0.713501
0.713542
0.713582
0.713621
0.713658
0.713693
0.713727
0.713759
0.71379
0.713819
0.713847
0.713873
0.713898
0.713922
0.713946
0.713968
0.713989
0.714009
0.714028
0.714047
0.714065
0.714083
0.7141
0.714117
0.714133
0.714149
0.714165
0.714181
0.714196
0.714211
0.714226
0.714241
0.714256
0.714271
0.714286
0.7143
0.714315
0.71433
0.714344
0.714359
0.714373
0.714388
0.714402
0.714416
0.714431
0.714445
0.714459
0.714473
0.714487
0.714501
0.714515
0.714528
0.714542
0.714555
0.714568
0.71458
0.714593
0.714605
0.714617
0.714628
0.714639
0.71465
0.71466
0.71467
0.71468
0.714689
0.714697
0.714705
0.714713
0.714719
0.714726
0.714731
0.714736
0.714741
0.714744
0.714747
0.71475
0.714752
0.714753
0.714754
0.714754
0.714753
0.714752
0.714751
0.714749
0.714746
0.714743
0.71474
0.714736
0.714732
0.714728
0.714723
0.714718
0.714713
0.714707
0.714701
0.714695
0.714689
0.714683
0.714676
0.71467
0.714663
0.714656
0.714649
0.714642
0.714635
0.714628
0.714621
0.714613
0.714606
0.714598
0.714591
0.714584
0.714576
0.714569
0.714561
0.714554
0.714547
0.714539
0.714532
0.714525
0.714519
0.714512
0.714505
0.714499
0.714493
0.714487
0.714481
0.714475
0.714469
0.714464
0.714459
0.714454
0.714449
0.714444
0.714439
0.714435
0.71443
0.714426
0.714421
0.714416
0.714411
0.714406
0.714401
0.714396
0.71439
0.714384
0.714378
0.714371
0.714365
0.714358
0.71435
0.714343
0.714335
0.714326
0.714318
0.714309
0.7143
0.714291
)
;

boundaryField
{
    inlet
    {
        type            zeroGradient;
    }
    outlet
    {
        type            fixedValue;