/*--------------------------------*- C++ -*----------------------------------*\
| =========                 |                                                 |
| \\      /  F ield         | OpenFOAM: The Open Source CFD Toolbox           |
|  \\    /   O peration     | Version:  4.1                                   |
|   \\  /    A nd           | Web:      www.OpenFOAM.org                      |
|    \\/     M anipulation  |                                                 |
\*---------------------------------------------------------------------------*/
FoamFile
{
    version     2.0;
    format      ascii;
    class       volVectorField;
    location    "46";
    object      U;
}
// * * * * * * * * * * * * * * * * * * * * * * * * * * * * * * * * * * * * * //

dimensions      [0 1 -1 0 0 0 0];

internalField   nonuniform List<vector> 
3264
(
(0.000114466 -0.000256106 0)
(-0.000541454 -6.8744e-05 0)
(-0.00200232 0.00018566 0)
(-0.00405386 0.000508151 0)
(-0.00664654 0.000821833 0)
(-0.00946726 0.00105109 0)
(-0.0122372 0.00115366 0)
(-0.0147046 0.00113679 0)
(-0.0167203 0.00103215 0)
(-0.0182046 0.000872259 0)
(-0.0191335 0.000682594 0)
(-0.0195147 0.0004807 0)
(-0.0193755 0.000278201 0)
(-0.018753 8.24142e-05 0)
(-0.017689 -0.000102235 0)
(-0.0162268 -0.000273164 0)
(-0.0144101 -0.000428691 0)
(-0.0122828 -0.000567294 0)
(-0.009891 -0.000687 0)
(-0.00728444 -0.000785069 0)
(-0.00451957 -0.00085797 0)
(-0.00166178 -0.00090178 0)
(0.00121352 -0.000913002 0)
(0.00402191 -0.000889733 0)
(0.00667462 -0.000832896 0)
(0.00908666 -0.000747049 0)
(0.0111877 -0.00064025 0)
(0.012932 -0.000522811 0)
(0.0143052 -0.000405305 0)
(0.0153234 -0.000296636 0)
(0.0160279 -0.000202845 0)
(0.0164741 -0.000126858 0)
(0.0167222 -6.89448e-05 0)
(0.0168284 -2.75161e-05 0)
(0.0168405 6.08834e-08 0)
(0.0167955 1.67843e-05 0)
(0.0167204 2.55421e-05 0)
(0.0166335 2.88324e-05 0)
(0.0165461 2.86461e-05 0)
(0.0164649 2.64616e-05 0)
(0.016393 2.33072e-05 0)
(0.0163314 1.98502e-05 0)
(0.0162799 1.64902e-05 0)
(0.0162377 1.34402e-05 0)
(0.0162035 1.07913e-05 0)
(0.0161761 8.56077e-06 0)
(0.0161544 6.7242e-06 0)
(0.0161373 5.23743e-06 0)
(0.0161239 4.04952e-06 0)
(0.0161135 3.1102e-06 0)
(0.0161054 2.37371e-06 0)
(0.0160991 1.80032e-06 0)
(0.0160943 1.35665e-06 0)
(0.0160906 1.01528e-06 0)
(0.0160878 7.54006e-07 0)
(0.0160857 5.55081e-07 0)
(0.0160841 4.04449e-07 0)
(0.0160829 2.91047e-07 0)
(0.016082 2.06222e-07 0)
(0.0160814 1.43233e-07 0)
(0.0160809 9.6856e-08 0)
(0.0160805 6.30514e-08 0)
(0.0160803 3.87115e-08 0)
(0.0160801 2.14525e-08 0)
(0.01608 9.4535e-09 0)
(0.0160799 1.32952e-09 0)
(0.0160799 -3.96813e-09 0)
(0.0160798 -7.22919e-09 0)
(0.0160798 -9.04483e-09 0)
(0.0160798 -9.85448e-09 0)
(0.0160798 -9.98209e-09 0)
(0.0160798 -9.66411e-09 0)
(0.0160798 -9.07107e-09 0)
(0.0160799 -8.32413e-09 0)
(0.0160799 -7.50768e-09 0)
(0.0160799 -6.67904e-09 0)
(0.0160799 -5.87573e-09 0)
(0.0160799 -5.12097e-09 0)
(0.0160799 -4.42782e-09 0)
(0.0160799 -3.80227e-09 0)
(0.0160799 -3.24545e-09 0)
(0.0160799 -2.75537e-09 0)
(0.0160799 -2.32807e-09 0)
(0.0160799 -1.95845e-09 0)
(0.0160799 -1.64094e-09 0)
(0.0160799 -1.36984e-09 0)
(0.0160799 -1.1396e-09 0)
(0.0160799 -9.4501e-10 0)
(0.0160799 -7.81265e-10 0)
(0.0160799 -6.44023e-10 0)
(0.0160799 -5.29411e-10 0)
(0.0160799 -4.34027e-10 0)
(0.01608 -3.54903e-10 0)
(0.01608 -2.89471e-10 0)
(0.01608 -2.35523e-10 0)
(0.01608 -1.91162e-10 0)
(0.01608 -1.54782e-10 0)
(0.01608 -1.25018e-10 0)
(0.01608 -1.00726e-10 0)
(0.01608 -8.09514e-11 0)
(0.01608 -6.48947e-11 0)
(0.01608 -5.18895e-11 0)
(0.01608 -4.13845e-11 0)
(0.01608 -3.29214e-11 0)
(0.01608 -2.61169e-11 0)
(0.01608 -2.06579e-11 0)
(0.01608 -1.62844e-11 0)
(0.01608 -1.27893e-11 0)
(0.01608 -1.00069e-11 0)
(0.01608 -7.80087e-12 0)
(0.01608 -6.06113e-12 0)
(0.01608 -4.69128e-12 0)
(0.01608 -3.61237e-12 0)
(0.01608 -2.76585e-12 0)
(0.01608 -2.09944e-12 0)
(0.01608 -1.57829e-12 0)
(0.01608 -1.17197e-12 0)
(0.01608 -8.57713e-13 0)
(0.01608 -6.20381e-13 0)
(0.01608 -4.42757e-13 0)
(0.01608 -3.14391e-13 0)
(0.01608 -2.19653e-13 0)
(0.01608 -1.49694e-13 0)
(0.01608 -9.68873e-14 0)
(0.01608 -5.58871e-14 0)
(0.01608 -2.57407e-14 0)
(0.01608 -4.12687e-15 0)
(0.01608 9.70453e-15 0)
(0.01608 1.66041e-14 0)
(0.01608 1.90952e-14 0)
(0.01608 1.99105e-14 0)
(0.01608 2.03074e-14 0)
(0.01608 2.09829e-14 0)
(0.01608 2.04159e-14 0)
(0.01608 2.06442e-14 0)
(0.01608 2.024e-14 0)
(0.01608 2.20042e-14 0)
(0.01608 2.25571e-14 0)
(0.01608 2.06512e-14 0)
(0.01608 1.69712e-14 0)
(0.01608 9.78387e-15 0)
(0.01608 4.06718e-15 0)
(0.01608 -8.89306e-16 0)
(0.01608 -3.85595e-15 0)
(0.01608 -3.44946e-15 0)
(0.01608 -1.96823e-15 0)
(0.01608 1.83392e-15 0)
(0.01608 6.18887e-15 0)
(0.01608 9.01719e-15 0)
(0.01608 1.18917e-14 0)
(0.01608 1.2075e-14 0)
(0.01608 1.21292e-14 0)
(0.01608 1.00196e-14 0)
(0.01608 6.0255e-15 0)
(0.01608 2.73197e-16 0)
(0.01608 -6.65195e-15 0)
(0.01608 -1.19903e-14 0)
(0.01608 -1.41651e-14 0)
(0.01608 -1.39129e-14 0)
(0.01608 -1.22156e-14 0)
(0.01608 -9.46397e-15 0)
(0.01608 -5.41988e-15 0)
(0.01608 -1.05179e-15 0)
(0.01608 2.47653e-15 0)
(0.01608 3.68709e-15 0)
(0.01608 2.91984e-15 0)
(0.01608 1.57622e-15 0)
(0.01608 9.07251e-16 0)
(0.01608 5.60934e-17 0)
(0.01608 4.23738e-16 0)
(0.01608 1.27062e-15 0)
(0.01608 3.55424e-15 0)
(0.01608 7.99391e-15 0)
(0.01608 1.18279e-14 0)
(0.01608 1.45483e-14 0)
(0.01608 1.55467e-14 0)
(0.01608 1.47334e-14 0)
(0.01608 1.29777e-14 0)
(0.01608 1.07991e-14 0)
(0.01608 1.00395e-14 0)
(0.01608 1.05744e-14 0)
(0.01608 1.3585e-14 0)
(0.01608 2.19201e-14 0)
(0.01608 3.26204e-14 0)
(0.01608 4.49423e-14 0)
(0.01608 5.98245e-14 0)
(0.01608 7.84017e-14 0)
(0.01608 1.02645e-13 0)
(0.01608 1.32231e-13 0)
(0.01608 1.72922e-13 0)
(0.01608 2.26612e-13 0)
(0.01608 2.9191e-13 0)
(0.01608 3.78158e-13 0)
(0.01608 4.15087e-13 0)
(0.01608 5.33041e-13 0)
(0.01608 2.22554e-13 0)
(0.01608 -9.0144e-14 0)
(0.01608 -7.5334e-13 0)
(0.01608 -9.1407e-12 0)
(0.01608 -5.81342e-12 0)
(-0.000508242 0.000761549 0)
(-0.00358813 0.00233448 0)
(-0.00769442 0.00342189 0)
(-0.0119277 0.0042142 0)
(-0.0159641 0.00457649 0)
(-0.0194266 0.00446322 0)
(-0.0221611 0.00397257 0)
(-0.0241075 0.00323871 0)
(-0.0252785 0.00237435 0)
(-0.0257118 0.00145709 0)
(-0.0254565 0.000537457 0)
(-0.0245644 -0.000353397 0)
(-0.0230864 -0.00119674 0)
(-0.0210715 -0.00198186 0)
(-0.018566 -0.00270295 0)
(-0.0156138 -0.0033567 0)
(-0.0122578 -0.00394024 0)
(-0.00854067 -0.00444924 0)
(-0.00450793 -0.00487637 0)
(-0.000210653 -0.00521015 0)
(0.00429044 -0.00543478 0)
(0.00892072 -0.00553118 0)
(0.0135879 -0.00548006 0)
(0.0181809 -0.00526707 0)
(0.0225727 -0.00488964 0)
(0.0266306 -0.00436329 0)
(0.0302322 -0.00372422 0)
(0.0332845 -0.00302554 0)
(0.0357396 -0.00232718 0)
(0.0376015 -0.00168332 0)
(0.0389213 -0.00113236 0)
(0.0397836 -0.000692805 0)
(0.0402879 -0.00036507 0)
(0.0405327 -0.000136964 0)
(0.0406035 1.0093e-05 0)
(0.040568 9.59977e-05 0)
(0.040475 0.000138781 0)
(0.0403573 0.000153135 0)
(0.040235 0.00015013 0)
(0.0401197 0.000137586 0)
(0.0400167 0.000120699 0)
(0.0399282 0.00010271 0)
(0.0398539 8.5485e-05 0)
(0.0397926 6.99722e-05 0)
(0.0397427 5.65453e-05 0)
(0.0397024 4.52381e-05 0)
(0.0396702 3.59025e-05 0)
(0.0396445 2.83068e-05 0)
(0.0396242 2.21952e-05 0)
(0.0396082 1.73198e-05 0)
(0.0395955 1.34568e-05 0)
(0.0395856 1.0413e-05 0)
(0.0395779 8.02564e-06 0)
(0.0395719 6.16071e-06 0)
(0.0395672 4.7092e-06 0)
(0.0395635 3.58337e-06 0)
(0.0395607 2.71313e-06 0)
(0.0395586 2.0428e-06 0)
(0.0395569 1.52837e-06 0)
(0.0395556 1.13513e-06 0)
(0.0395547 8.35844e-07 0)
(0.0395539 6.09168e-07 0)
(0.0395534 4.38422e-07 0)
(0.039553 3.10611e-07 0)
(0.0395527 2.1563e-07 0)
(0.0395524 1.45646e-07 0)
(0.0395523 9.46039e-08 0)
(0.0395522 5.78371e-08 0)
(0.0395521 3.17623e-08 0)
(0.039552 1.36378e-08 0)
(0.039552 1.37524e-09 0)
(0.039552 -6.60892e-09 0)
(0.0395519 -1.15086e-08 0)
(0.0395519 -1.42187e-08 0)
(0.0395519 -1.54048e-08 0)
(0.0395519 -1.55581e-08 0)
(0.0395519 -1.50374e-08 0)
(0.0395519 -1.41015e-08 0)
(0.0395519 -1.29343e-08 0)
(0.0395519 -1.1664e-08 0)
(0.0395519 -1.03776e-08 0)
(0.039552 -9.13194e-09 0)
(0.039552 -7.96231e-09 0)
(0.039552 -6.88841e-09 0)
(0.039552 -5.91919e-09 0)
(0.039552 -5.05629e-09 0)
(0.039552 -4.29653e-09 0)
(0.039552 -3.63375e-09 0)
(0.039552 -3.0601e-09 0)
(0.039552 -2.56696e-09 0)
(0.039552 -2.14554e-09 0)
(0.039552 -1.78731e-09 0)
(0.039552 -1.48424e-09 0)
(0.039552 -1.22893e-09 0)
(0.039552 -1.01471e-09 0)
(0.039552 -8.35605e-10 0)
(0.039552 -6.86351e-10 0)
(0.039552 -5.62361e-10 0)
(0.039552 -4.59659e-10 0)
(0.039552 -3.74829e-10 0)
(0.039552 -3.04951e-10 0)
(0.039552 -2.4754e-10 0)
(0.039552 -2.00496e-10 0)
(0.039552 -1.62038e-10 0)
(0.039552 -1.30668e-10 0)
(0.039552 -1.05132e-10 0)
(0.039552 -8.43824e-11 0)
(0.039552 -6.75596e-11 0)
(0.039552 -5.39508e-11 0)
(0.039552 -4.2972e-11 0)
(0.039552 -3.41396e-11 0)
(0.039552 -2.70511e-11 0)
(0.039552 -2.1372e-11 0)
(0.039552 -1.68291e-11 0)
(0.039552 -1.32058e-11 0)
(0.039552 -1.03229e-11 0)
(0.039552 -8.03897e-12 0)
(0.039552 -6.23488e-12 0)
(0.039552 -4.81499e-12 0)
(0.039552 -3.70588e-12 0)
(0.039552 -2.84286e-12 0)
(0.039552 -2.17176e-12 0)
(0.039552 -1.64854e-12 0)
(0.039552 -1.23964e-12 0)
(0.039552 -9.2251e-13 0)
(0.039552 -6.81398e-13 0)
(0.039552 -5.01109e-13 0)
(0.039552 -3.6918e-13 0)
(0.039552 -2.72708e-13 0)
(0.039552 -2.02408e-13 0)
(0.039552 -1.48435e-13 0)
(0.039552 -1.05311e-13 0)
(0.039552 -6.82345e-14 0)
(0.039552 -3.68526e-14 0)
(0.039552 -1.05222e-14 0)
(0.039552 1.03801e-14 0)
(0.039552 2.74272e-14 0)
(0.039552 4.07374e-14 0)
(0.039552 4.93162e-14 0)
(0.039552 5.21204e-14 0)
(0.039552 4.85291e-14 0)
(0.039552 4.1656e-14 0)
(0.039552 3.37353e-14 0)
(0.039552 2.40116e-14 0)
(0.039552 1.2818e-14 0)
(0.039552 1.11271e-15 0)
(0.039552 -1.11141e-14 0)
(0.039552 -2.13957e-14 0)
(0.039552 -3.05577e-14 0)
(0.039552 -3.64851e-14 0)
(0.039552 -3.73317e-14 0)
(0.039552 -3.46609e-14 0)
(0.039552 -2.98835e-14 0)
(0.039552 -2.52786e-14 0)
(0.039552 -2.09676e-14 0)
(0.039552 -1.90783e-14 0)
(0.039552 -1.89247e-14 0)
(0.039552 -1.90758e-14 0)
(0.039552 -1.9183e-14 0)
(0.039552 -1.75634e-14 0)
(0.039552 -1.60729e-14 0)
(0.039552 -1.23608e-14 0)
(0.039552 -7.43182e-15 0)
(0.039552 -1.68084e-15 0)
(0.039552 3.38556e-15 0)
(0.039552 4.81499e-15 0)
(0.039552 3.9589e-15 0)
(0.039552 1.84555e-15 0)
(0.039552 -8.9359e-16 0)
(0.039552 4.51012e-16 0)
(0.039552 6.02701e-15 0)
(0.039552 1.6918e-14 0)
(0.039552 3.26394e-14 0)
(0.039552 5.00335e-14 0)
(0.039552 6.38926e-14 0)
(0.039552 7.35959e-14 0)
(0.039552 7.65545e-14 0)
(0.039552 7.52457e-14 0)
(0.039552 7.23047e-14 0)
(0.039552 7.16853e-14 0)
(0.039552 8.12592e-14 0)
(0.039552 1.01663e-13 0)
(0.039552 1.32845e-13 0)
(0.039552 1.76372e-13 0)
(0.039552 2.28297e-13 0)
(0.039552 2.91732e-13 0)
(0.039552 3.68179e-13 0)
(0.039552 4.63222e-13 0)
(0.039552 5.88364e-13 0)
(0.039552 7.5593e-13 0)
(0.039552 9.81882e-13 0)
(0.039552 1.28151e-12 0)
(0.039552 1.67297e-12 0)
(0.039552 2.10313e-12 0)
(0.039552 2.78892e-12 0)
(0.039552 2.95158e-12 0)
(0.039552 3.7435e-12 0)
(0.039552 3.73187e-12 0)
(0.039552 -4.76081e-12 0)
(0.039552 -2.23021e-12 0)
(-0.000709984 0.00338451 0)
(-0.00460048 0.0066311 0)
(-0.00912668 0.00788091 0)
(-0.0130448 0.00818553 0)
(-0.016188 0.00781786 0)
(-0.0184583 0.00689491 0)
(-0.0199493 0.00563145 0)
(-0.0207464 0.00418257 0)
(-0.020935 0.00265695 0)
(-0.0205776 0.0011207 0)
(-0.0197231 -0.00038471 0)
(-0.0184086 -0.00183407 0)
(-0.0166633 -0.00321215 0)
(-0.0145113 -0.00450998 0)
(-0.011973 -0.0057223 0)
(-0.00906704 -0.00684527 0)
(-0.00581109 -0.00787421 0)
(-0.00222339 -0.00880112 0)
(0.00167589 -0.00961216 0)
(0.00586211 -0.0102852 0)
(0.0103028 -0.0107884 0)
(0.0149523 -0.0110805 0)
(0.0197458 -0.0111149 0)
(0.0245934 -0.0108483 0)
(0.0293772 -0.010255 0)
(0.0339567 -0.00934223 0)
(0.0381833 -0.00816052 0)
(0.0419227 -0.00680216 0)
(0.0450779 -0.0053848 0)
(0.0476058 -0.0040265 0)
(0.04952 -0.002822 0)
(0.0508819 -0.00182857 0)
(0.0517838 -0.00106418 0)
(0.0523293 -0.000515177 0)
(0.0526177 -0.000148519 0)
(0.0527336 7.64019e-05 0)
(0.0527425 0.000199052 0)
(0.0526914 0.000252899 0)
(0.0526116 0.000263725 0)
(0.0525226 0.000249949 0)
(0.0524355 0.000223891 0)
(0.0523559 0.000193284 0)
(0.0522861 0.000162645 0)
(0.0522267 0.000134361 0)
(0.0521771 0.000109489 0)
(0.0521361 8.83038e-05 0)
(0.0521026 7.06507e-05 0)
(0.0520755 5.61704e-05 0)
(0.0520536 4.4429e-05 0)
(0.052036 3.49904e-05 0)
(0.0520219 2.74534e-05 0)
(0.0520107 2.14663e-05 0)
(0.0520018 1.67305e-05 0)
(0.0519948 1.29981e-05 0)
(0.0519892 1.00658e-05 0)
(0.0519848 7.76874e-06 0)
(0.0519813 5.97441e-06 0)
(0.0519786 4.57669e-06 0)
(0.0519765 3.49103e-06 0)
(0.0519748 2.65029e-06 0)
(0.0519735 2.00133e-06 0)
(0.0519725 1.50213e-06 0)
(0.0519717 1.11959e-06 0)
(0.0519711 8.27696e-07 0)
(0.0519707 6.06007e-07 0)
(0.0519703 4.3853e-07 0)
(0.0519701 3.12769e-07 0)
(0.0519699 2.18988e-07 0)
(0.0519697 1.49617e-07 0)
(0.0519696 9.8795e-08 0)
(0.0519695 6.19908e-08 0)
(0.0519695 3.57178e-08 0)
(0.0519694 1.73018e-08 0)
(0.0519694 4.70088e-09 0)
(0.0519694 -3.63727e-09 0)
(0.0519693 -8.88621e-09 0)
(0.0519693 -1.1928e-08 0)
(0.0519693 -1.34209e-08 0)
(0.0519693 -1.38525e-08 0)
(0.0519693 -1.35803e-08 0)
(0.0519693 -1.28637e-08 0)
(0.0519693 -1.18881e-08 0)
(0.0519693 -1.07837e-08 0)
(0.0519693 -9.64003e-09 0)
(0.0519693 -8.51637e-09 0)
(0.0519693 -7.45036e-09 0)
(0.0519693 -6.46408e-09 0)
(0.0519693 -5.5686e-09 0)
(0.0519693 -4.7675e-09 0)
(0.0519693 -4.05932e-09 0)
(0.0519693 -3.43946e-09 0)
(0.0519693 -2.9014e-09 0)
(0.0519693 -2.4377e-09 0)
(0.0519693 -2.04056e-09 0)
(0.0519693 -1.70229e-09 0)
(0.0519693 -1.41558e-09 0)
(0.0519693 -1.17363e-09 0)
(0.0519693 -9.70266e-10 0)
(0.0519693 -7.99973e-10 0)
(0.0519693 -6.57864e-10 0)
(0.0519693 -5.39657e-10 0)
(0.0519693 -4.41637e-10 0)
(0.0519693 -3.60589e-10 0)
(0.0519693 -2.93754e-10 0)
(0.0519693 -2.3878e-10 0)
(0.0519693 -1.93664e-10 0)
(0.0519693 -1.56721e-10 0)
(0.0519693 -1.26537e-10 0)
(0.0519693 -1.01927e-10 0)
(0.0519693 -8.19055e-11 0)
(0.0519693 -6.56514e-11 0)
(0.0519693 -5.24885e-11 0)
(0.0519693 -4.18571e-11 0)
(0.0519693 -3.32907e-11 0)
(0.0519693 -2.6407e-11 0)
(0.0519693 -2.08884e-11 0)
(0.0519693 -1.64761e-11 0)
(0.0519693 -1.29599e-11 0)
(0.0519693 -1.01648e-11 0)
(0.0519693 -7.94975e-12 0)
(0.0519693 -6.19744e-12 0)
(0.0519693 -4.81269e-12 0)
(0.0519693 -3.71808e-12 0)
(0.0519693 -2.85679e-12 0)
(0.0519693 -2.18447e-12 0)
(0.0519693 -1.66567e-12 0)
(0.0519693 -1.27368e-12 0)
(0.0519693 -9.82424e-13 0)
(0.0519693 -7.66392e-13 0)
(0.0519693 -6.02995e-13 0)
(0.0519693 -4.73412e-13 0)
(0.0519693 -3.67285e-13 0)
(0.0519693 -2.78096e-13 0)
(0.0519693 -2.03694e-13 0)
(0.0519693 -1.40899e-13 0)
(0.0519693 -8.64901e-14 0)
(0.0519693 -4.17137e-14 0)
(0.0519693 -4.99467e-15 0)
(0.0519693 2.36348e-14 0)
(0.0519693 4.53638e-14 0)
(0.0519693 6.38031e-14 0)
(0.0519693 7.53559e-14 0)
(0.0519693 7.9731e-14 0)
(0.0519693 7.50529e-14 0)
(0.0519693 6.07276e-14 0)
(0.0519693 3.83358e-14 0)
(0.0519693 7.85396e-15 0)
(0.0519693 -2.60995e-14 0)
(0.0519693 -5.97214e-14 0)
(0.0519693 -9.00086e-14 0)
(0.0519693 -1.13435e-13 0)
(0.0519693 -1.29163e-13 0)
(0.0519693 -1.35007e-13 0)
(0.0519693 -1.3153e-13 0)
(0.0519693 -1.18512e-13 0)
(0.0519693 -9.63715e-14 0)
(0.0519693 -7.03573e-14 0)
(0.0519693 -4.34889e-14 0)
(0.0519693 -2.052e-14 0)
(0.0519693 -1.87883e-15 0)
(0.0519693 1.19182e-14 0)
(0.0519693 1.70133e-14 0)
(0.0519693 1.75533e-14 0)
(0.0519693 1.30915e-14 0)
(0.0519693 5.49131e-15 0)
(0.0519693 -3.11011e-15 0)
(0.0519693 -1.30031e-14 0)
(0.0519693 -2.14359e-14 0)
(0.0519693 -2.35397e-14 0)
(0.0519693 -1.67312e-14 0)
(0.0519693 1.65184e-15 0)
(0.0519693 2.84501e-14 0)
(0.0519693 5.92437e-14 0)
(0.0519693 9.03996e-14 0)
(0.0519693 1.14994e-13 0)
(0.0519693 1.30973e-13 0)
(0.0519693 1.35886e-13 0)
(0.0519693 1.33573e-13 0)
(0.0519693 1.30723e-13 0)
(0.0519693 1.33288e-13 0)
(0.0519693 1.50034e-13 0)
(0.0519693 1.83658e-13 0)
(0.0519693 2.36275e-13 0)
(0.0519693 3.057e-13 0)
(0.0519693 3.91001e-13 0)
(0.0519693 4.93913e-13 0)
(0.0519693 6.15568e-13 0)
(0.0519693 7.65853e-13 0)
(0.0519693 9.5913e-13 0)
(0.0519693 1.2159e-12 0)
(0.0519693 1.56214e-12 0)
(0.0519693 2.03198e-12 0)
(0.0519693 2.64661e-12 0)
(0.0519693 3.47507e-12 0)
(0.0519693 4.56621e-12 0)
(0.0519693 5.73101e-12 0)
(0.0519693 8.1737e-12 0)
(0.0519693 8.60668e-12 0)
(0.0519693 1.33342e-11 0)
(0.0519693 1.66494e-11 0)
(-0.000489571 0.00553185 0)
(-0.00361184 0.0102002 0)
(-0.00698215 0.0112737 0)
(-0.00948101 0.0108945 0)
(-0.0111216 0.00982329 0)
(-0.0120071 0.00827526 0)
(-0.0123034 0.0064803 0)
(-0.0121164 0.00456409 0)
(-0.0115238 0.00261247 0)
(-0.0105724 0.000674406 0)
(-0.00929389 -0.00121858 0)
(-0.00770933 -0.00304739 0)
(-0.00583416 -0.00480007 0)
(-0.00368126 -0.00646935 0)
(-0.00126184 -0.00805071 0)
(0.00141292 -0.00954047 0)
(0.00433194 -0.0109339 0)
(0.00748359 -0.0122224 0)
(0.0108558 -0.0133906 0)
(0.0144357 -0.0144127 0)
(0.018208 -0.0152481 0)
(0.0221523 -0.015839 0)
(0.0262369 -0.0161113 0)
(0.0304109 -0.0159835 0)
(0.0345969 -0.0153864 0)
(0.0386873 -0.0142921 0)
(0.0425531 -0.0127408 0)
(0.0460621 -0.0108492 0)
(0.0491052 -0.00879047 0)
(0.0516176 -0.00675244 0)
(0.0535876 -0.004895 0)
(0.0550512 -0.00332307 0)
(0.0560782 -0.00208064 0)
(0.0567541 -0.00116079 0)
(0.0571654 -0.000523087 0)
(0.0573893 -0.000111437 0)
(0.0574882 0.000132078 0)
(0.0575091 0.000258682 0)
(0.0574851 0.000309193 0)
(0.0574382 0.000313656 0)
(0.0573821 0.00029276 0)
(0.057325 0.000259917 0)
(0.0572713 0.000223294 0)
(0.0572231 0.00018751 0)
(0.0571811 0.000154904 0)
(0.0571453 0.000126432 0)
(0.0571152 0.000102256 0)
(0.0570902 8.21217e-05 0)
(0.0570696 6.55835e-05 0)
(0.0570527 5.21363e-05 0)
(0.0570389 4.12855e-05 0)
(0.0570278 3.25813e-05 0)
(0.0570188 2.56318e-05 0)
(0.0570115 2.01048e-05 0)
(0.0570057 1.57236e-05 0)
(0.057001 1.2261e-05 0)
(0.0569973 9.53184e-06 0)
(0.0569944 7.38656e-06 0)
(0.056992 5.70464e-06 0)
(0.0569902 4.38953e-06 0)
(0.0569887 3.36408e-06 0)
(0.0569875 2.56684e-06 0)
(0.0569866 1.94894e-06 0)
(0.0569859 1.47164e-06 0)
(0.0569854 1.1043e-06 0)
(0.0569849 8.22692e-07 0)
(0.0569846 6.07764e-07 0)
(0.0569843 4.44523e-07 0)
(0.0569841 3.21218e-07 0)
(0.056984 2.28657e-07 0)
(0.0569839 1.59671e-07 0)
(0.0569838 1.08682e-07 0)
(0.0569837 7.13672e-08 0)
(0.0569837 4.43839e-08 0)
(0.0569836 2.51591e-08 0)
(0.0569836 1.17192e-08 0)
(0.0569836 2.55695e-09 0)
(0.0569836 -3.473e-09 0)
(0.0569836 -7.23636e-09 0)
(0.0569836 -9.38346e-09 0)
(0.0569835 -1.03994e-08 0)
(0.0569835 -1.0643e-08 0)
(0.0569835 -1.03771e-08 0)
(0.0569835 -9.79222e-09 0)
(0.0569835 -9.02413e-09 0)
(0.0569835 -8.16806e-09 0)
(0.0569835 -7.28911e-09 0)
(0.0569835 -6.4303e-09 0)
(0.0569835 -5.61869e-09 0)
(0.0569835 -4.8699e-09 0)
(0.0569835 -4.19154e-09 0)
(0.0569835 -3.58575e-09 0)
(0.0569835 -3.05101e-09 0)
(0.0569835 -2.58352e-09 0)
(0.0569835 -2.17814e-09 0)
(0.0569835 -1.82908e-09 0)
(0.0569835 -1.53034e-09 0)
(0.0569835 -1.27604e-09 0)
(0.0569835 -1.06063e-09 0)
(0.0569835 -8.78959e-10 0)
(0.0569835 -7.26362e-10 0)
(0.0569835 -5.98658e-10 0)
(0.0569835 -4.92153e-10 0)
(0.0569835 -4.03609e-10 0)
(0.0569835 -3.30213e-10 0)
(0.0569835 -2.69543e-10 0)
(0.0569835 -2.19517e-10 0)
(0.0569835 -1.78366e-10 0)
(0.0569835 -1.44595e-10 0)
(0.0569835 -1.16941e-10 0)
(0.0569835 -9.43488e-11 0)
(0.0569835 -7.59367e-11 0)
(0.0569835 -6.09698e-11 0)
(0.0569835 -4.88346e-11 0)
(0.0569835 -3.90211e-11 0)
(0.0569835 -3.11002e-11 0)
(0.0569835 -2.47231e-11 0)
(0.0569835 -1.95997e-11 0)
(0.0569835 -1.54941e-11 0)
(0.0569835 -1.22128e-11 0)
(0.0569835 -9.5984e-12 0)
(0.0569835 -7.5177e-12 0)
(0.0569835 -5.86558e-12 0)
(0.0569835 -4.5569e-12 0)
(0.0569835 -3.52926e-12 0)
(0.0569835 -2.73207e-12 0)
(0.0569835 -2.12093e-12 0)
(0.0569835 -1.65755e-12 0)
(0.0569835 -1.30455e-12 0)
(0.0569835 -1.03329e-12 0)
(0.0569835 -8.217e-13 0)
(0.0569835 -6.51302e-13 0)
(0.0569835 -5.12436e-13 0)
(0.0569835 -3.96784e-13 0)
(0.0569835 -3.0108e-13 0)
(0.0569835 -2.21923e-13 0)
(0.0569835 -1.55244e-13 0)
(0.0569835 -9.74835e-14 0)
(0.0569835 -4.42753e-14 0)
(0.0569835 3.15221e-15 0)
(0.0569835 4.2871e-14 0)
(0.0569835 7.34465e-14 0)
(0.0569835 9.13905e-14 0)
(0.0569835 9.62833e-14 0)
(0.0569835 8.60077e-14 0)
(0.0569835 6.19385e-14 0)
(0.0569835 2.88925e-14 0)
(0.0569835 -1.07128e-14 0)
(0.0569835 -5.30235e-14 0)
(0.0569835 -9.63661e-14 0)
(0.0569835 -1.37862e-13 0)
(0.0569835 -1.73235e-13 0)
(0.0569835 -1.97712e-13 0)
(0.0569835 -2.07536e-13 0)
(0.0569835 -2.00244e-13 0)
(0.0569835 -1.74918e-13 0)
(0.0569835 -1.36212e-13 0)
(0.0569835 -9.19516e-14 0)
(0.0569835 -4.72647e-14 0)
(0.0569835 -9.13497e-15 0)
(0.0569835 1.88871e-14 0)
(0.0569835 3.32901e-14 0)
(0.0569835 3.37705e-14 0)
(0.0569835 2.38748e-14 0)
(0.0569835 6.78372e-15 0)
(0.0569835 -1.23704e-14 0)
(0.0569835 -3.07952e-14 0)
(0.0569835 -4.18496e-14 0)
(0.0569835 -4.10337e-14 0)
(0.0569835 -2.64438e-14 0)
(0.0569835 2.84891e-15 0)
(0.0569835 4.18353e-14 0)
(0.0569835 8.36312e-14 0)
(0.0569835 1.22584e-13 0)
(0.0569835 1.51748e-13 0)
(0.0569835 1.67799e-13 0)
(0.0569835 1.71165e-13 0)
(0.0569835 1.6663e-13 0)
(0.0569835 1.63377e-13 0)
(0.0569835 1.7017e-13 0)
(0.0569835 1.92652e-13 0)
(0.0569835 2.35684e-13 0)
(0.0569835 3.00416e-13 0)
(0.0569835 3.87108e-13 0)
(0.0569835 4.94257e-13 0)
(0.0569835 6.20913e-13 0)
(0.0569835 7.70078e-13 0)
(0.0569835 9.51829e-13 0)
(0.0569835 1.18407e-12 0)
(0.0569835 1.48979e-12 0)
(0.0569835 1.89955e-12 0)
(0.0569835 2.45112e-12 0)
(0.0569835 3.20175e-12 0)
(0.0569835 4.22004e-12 0)
(0.0569835 5.58425e-12 0)
(0.0569835 7.5267e-12 0)
(0.0569835 1.03463e-11 0)
(0.0569835 1.27949e-11 0)
(0.0569835 2.4969e-11 0)
(0.0569835 2.74931e-11 0)
(-5.09072e-06 0.00709907 0)
(-0.00130512 0.0125908 0)
(-0.00283615 0.0134089 0)
(-0.00359255 0.012286 0)
(-0.00367122 0.0106029 0)
(-0.00321302 0.00857052 0)
(-0.00236622 0.00640277 0)
(-0.00121027 0.00417388 0)
(0.000205205 0.00194349 0)
(0.00185578 -0.00025706 0)
(0.00372667 -0.00240495 0)
(0.00580744 -0.00448446 0)
(0.00808778 -0.00648402 0)
(0.0105554 -0.00839502 0)
(0.0131954 -0.0102111 0)
(0.0159899 -0.0119267 0)
(0.0189183 -0.0135359 0)
(0.0219571 -0.0150301 0)
(0.0250807 -0.0163955 0)
(0.0282618 -0.0176094 0)
(0.0314726 -0.0186348 0)
(0.0346846 -0.0194148 0)
(0.0378667 -0.0198688 0)
(0.0409832 -0.0198947 0)
(0.0439897 -0.0193858 0)
(0.0468323 -0.0182644 0)
(0.0494495 -0.0165274 0)
(0.0517799 -0.0142793 0)
(0.0537728 -0.0117263 0)
(0.0553995 -0.00912367 0)
(0.0566603 -0.00670556 0)
(0.0575835 -0.00463315 0)
(0.058219 -0.00297963 0)
(0.0586267 -0.00174387 0)
(0.0588661 -0.000876555 0)
(0.0589887 -0.000306079 0)
(0.0590351 4.21478e-05 0)
(0.0590349 0.000234288 0)
(0.0590085 0.000323249 0)
(0.0589691 0.000348196 0)
(0.0589248 0.000336364 0)
(0.0588806 0.000305662 0)
(0.058839 0.000267243 0)
(0.0588015 0.000227634 0)
(0.0587685 0.000190353 0)
(0.0587399 0.000157051 0)
(0.0587156 0.000128276 0)
(0.0586951 0.000103965 0)
(0.0586779 8.37481e-05 0)
(0.0586637 6.71293e-05 0)
(0.0586519 5.35854e-05 0)
(0.0586423 4.26204e-05 0)
(0.0586344 3.37899e-05 0)
(0.058628 2.67089e-05 0)
(0.0586228 2.10513e-05 0)
(0.0586186 1.65454e-05 0)
(0.0586152 1.29672e-05 0)
(0.0586125 1.01334e-05 0)
(0.0586103 7.89499e-06 0)
(0.0586086 6.13153e-06 0)
(0.0586072 4.74589e-06 0)
(0.0586061 3.66006e-06 0)
(0.0586053 2.81156e-06 0)
(0.0586046 2.15046e-06 0)
(0.058604 1.63699e-06 0)
(0.0586036 1.23952e-06 0)
(0.0586033 9.32937e-07 0)
(0.058603 6.97392e-07 0)
(0.0586028 5.17198e-07 0)
(0.0586026 3.79998e-07 0)
(0.0586025 2.76086e-07 0)
(0.0586024 1.97852e-07 0)
(0.0586024 1.3935e-07 0)
(0.0586023 9.59461e-08 0)
(0.0586023 6.40405e-08 0)
(0.0586022 4.08455e-08 0)
(0.0586022 2.42105e-08 0)
(0.0586022 1.24825e-08 0)
(0.0586022 4.39664e-09 0)
(0.0586022 -1.01068e-09 0)
(0.0586022 -4.46953e-09 0)
(0.0586021 -6.52992e-09 0)
(0.0586021 -7.60338e-09 0)
(0.0586021 -7.99548e-09 0)
(0.0586021 -7.93109e-09 0)
(0.0586021 -7.57386e-09 0)
(0.0586021 -7.04135e-09 0)
(0.0586021 -6.4166e-09 0)
(0.0586021 -5.75701e-09 0)
(0.0586021 -5.10109e-09 0)
(0.0586021 -4.47365e-09 0)
(0.0586021 -3.8896e-09 0)
(0.0586021 -3.35685e-09 0)
(0.0586021 -2.87848e-09 0)
(0.0586021 -2.45433e-09 0)
(0.0586021 -2.08214e-09 0)
(0.0586021 -1.75837e-09 0)
(0.0586021 -1.47882e-09 0)
(0.0586021 -1.23902e-09 0)
(0.0586021 -1.03448e-09 0)
(0.0586021 -8.60902e-10 0)
(0.0586021 -7.14274e-10 0)
(0.0586021 -5.90924e-10 0)
(0.0586021 -4.87551e-10 0)
(0.0586021 -4.01218e-10 0)
(0.0586021 -3.29349e-10 0)
(0.0586021 -2.69699e-10 0)
(0.0586021 -2.20325e-10 0)
(0.0586021 -1.79565e-10 0)
(0.0586021 -1.45999e-10 0)
(0.0586021 -1.18427e-10 0)
(0.0586021 -9.58359e-11 0)
(0.0586021 -7.73724e-11 0)
(0.0586021 -6.23211e-11 0)
(0.0586021 -5.00783e-11 0)
(0.0586021 -4.01403e-11 0)
(0.0586021 -3.20899e-11 0)
(0.0586021 -2.55836e-11 0)
(0.0586021 -2.0341e-11 0)
(0.0586021 -1.61295e-11 0)
(0.0586021 -1.27531e-11 0)
(0.0586021 -1.00522e-11 0)
(0.0586021 -7.89743e-12 0)
(0.0586021 -6.18594e-12 0)
(0.0586021 -4.83479e-12 0)
(0.0586021 -3.77648e-12 0)
(0.0586021 -2.95531e-12 0)
(0.0586021 -2.3225e-12 0)
(0.0586021 -1.83556e-12 0)
(0.0586021 -1.45807e-12 0)
(0.0586021 -1.16204e-12 0)
(0.0586021 -9.27554e-13 0)
(0.0586021 -7.41177e-13 0)
(0.0586021 -5.93361e-13 0)
(0.0586021 -4.73271e-13 0)
(0.0586021 -3.73031e-13 0)
(0.0586021 -2.87414e-13 0)
(0.0586021 -2.10529e-13 0)
(0.0586021 -1.39619e-13 0)
(0.0586021 -7.32382e-14 0)
(0.0586021 -1.35563e-14 0)
(0.0586021 3.46057e-14 0)
(0.0586021 6.7831e-14 0)
(0.0586021 8.39305e-14 0)
(0.0586021 8.41344e-14 0)
(0.0586021 7.0659e-14 0)
(0.0586021 4.54312e-14 0)
(0.0586021 1.00679e-14 0)
(0.0586021 -3.30697e-14 0)
(0.0586021 -8.27254e-14 0)
(0.0586021 -1.36184e-13 0)
(0.0586021 -1.86594e-13 0)
(0.0586021 -2.27588e-13 0)
(0.0586021 -2.51803e-13 0)
(0.0586021 -2.53378e-13 0)
(0.0586021 -2.33162e-13 0)
(0.0586021 -1.94517e-13 0)
(0.0586021 -1.43027e-13 0)
(0.0586021 -9.06254e-14 0)
(0.0586021 -4.4573e-14 0)
(0.0586021 -1.03897e-14 0)
(0.0586021 9.29243e-15 0)
(0.0586021 1.57768e-14 0)
(0.0586021 9.2474e-15 0)
(0.0586021 -5.54799e-15 0)
(0.0586021 -2.41319e-14 0)
(0.0586021 -3.92764e-14 0)
(0.0586021 -4.44379e-14 0)
(0.0586021 -3.68453e-14 0)
(0.0586021 -1.4298e-14 0)
(0.0586021 2.04447e-14 0)
(0.0586021 6.2347e-14 0)
(0.0586021 1.06084e-13 0)
(0.0586021 1.41985e-13 0)
(0.0586021 1.66582e-13 0)
(0.0586021 1.76994e-13 0)
(0.0586021 1.76172e-13 0)
(0.0586021 1.72182e-13 0)
(0.0586021 1.71315e-13 0)
(0.0586021 1.82355e-13 0)
(0.0586021 2.11559e-13 0)
(0.0586021 2.62202e-13 0)
(0.0586021 3.3706e-13 0)
(0.0586021 4.32405e-13 0)
(0.0586021 5.48437e-13 0)
(0.0586021 6.82815e-13 0)
(0.0586021 8.40766e-13 0)
(0.0586021 1.03348e-12 0)
(0.0586021 1.27401e-12 0)
(0.0586021 1.58824e-12 0)
(0.0586021 2.00622e-12 0)
(0.0586021 2.57322e-12 0)
(0.0586021 3.35323e-12 0)
(0.0586021 4.41368e-12 0)
(0.0586021 5.91701e-12 0)
(0.0586021 7.97461e-12 0)
(0.0586021 1.09905e-11 0)
(0.0586021 1.47145e-11 0)
(0.0586021 2.57581e-11 0)
(0.0586021 2.80386e-11 0)
(8.51935e-05 0.00649272 0)
(0.000604599 0.0126145 0)
(0.00162012 0.0134636 0)
(0.00287608 0.0119867 0)
(0.00461724 0.00998023 0)
(0.00655267 0.00771299 0)
(0.00866779 0.00535997 0)
(0.0109128 0.00296973 0)
(0.0132869 0.000579877 0)
(0.0157903 -0.00178531 0)
(0.0184251 -0.00410473 0)
(0.0211895 -0.00635972 0)
(0.0240763 -0.00853372 0)
(0.0270737 -0.0106123 0)
(0.0301646 -0.0125833 0)
(0.0333272 -0.0144354 0)
(0.0365341 -0.0161574 0)
(0.0397521 -0.0177361 0)
(0.0429415 -0.0191544 0)
(0.0460558 -0.0203876 0)
(0.049041 -0.0213993 0)
(0.0518351 -0.0221352 0)
(0.0543676 -0.0225188 0)
(0.0565616 -0.0224525 0)
(0.0583433 -0.0218311 0)
(0.0596603 -0.0205717 0)
(0.0605052 -0.0186556 0)
(0.0609299 -0.0161687 0)
(0.0610373 -0.0133122 0)
(0.0609468 -0.0103641 0)
(0.0607583 -0.00760111 0)
(0.0605355 -0.00522606 0)
(0.0603114 -0.00333579 0)
(0.0601019 -0.00193243 0)
(0.0599151 -0.000956496 0)
(0.0597549 -0.00032118 0)
(0.0596218 6.25483e-05 0)
(0.0595137 0.000272018 0)
(0.0594267 0.000367731 0)
(0.059357 0.000393593 0)
(0.0593008 0.000379624 0)
(0.059255 0.000345315 0)
(0.0592174 0.000302695 0)
(0.0591862 0.000258777 0)
(0.0591602 0.000217345 0)
(0.0591385 0.000180193 0)
(0.0591203 0.000147936 0)
(0.0591051 0.000120536 0)
(0.0590924 9.76196e-05 0)
(0.0590818 7.86698e-05 0)
(0.0590731 6.31341e-05 0)
(0.0590659 5.04823e-05 0)
(0.05906 4.02341e-05 0)
(0.0590551 3.19695e-05 0)
(0.0590512 2.53297e-05 0)
(0.0590479 2.00128e-05 0)
(0.0590453 1.57682e-05 0)
(0.0590432 1.23891e-05 0)
(0.0590415 9.70622e-06 0)
(0.0590402 7.58174e-06 0)
(0.0590391 5.90384e-06 0)
(0.0590382 4.58215e-06 0)
(0.0590375 3.54386e-06 0)
(0.059037 2.73048e-06 0)
(0.0590365 2.09516e-06 0)
(0.0590362 1.60044e-06 0)
(0.0590359 1.21645e-06 0)
(0.0590357 9.19461e-07 0)
(0.0590355 6.90611e-07 0)
(0.0590354 5.14988e-07 0)
(0.0590353 3.80814e-07 0)
(0.0590352 2.78812e-07 0)
(0.0590352 2.01697e-07 0)
(0.0590351 1.43759e-07 0)
(0.0590351 1.0054e-07 0)
(0.059035 6.8569e-08 0)
(0.059035 4.51492e-08 0)
(0.059035 2.81962e-08 0)
(0.059035 1.6103e-08 0)
(0.059035 7.63622e-09 0)
(0.059035 1.85321e-09 0)
(0.059035 -1.96287e-09 0)
(0.059035 -4.35424e-09 0)
(0.059035 -5.72848e-09 0)
(0.059035 -6.38984e-09 0)
(0.059035 -6.56358e-09 0)
(0.059035 -6.41486e-09 0)
(0.059035 -6.06338e-09 0)
(0.059035 -5.59467e-09 0)
(0.059035 -5.06874e-09 0)
(0.059035 -4.5267e-09 0)
(0.059035 -3.99579e-09 0)
(0.059035 -3.4932e-09 0)
(0.059035 -3.02892e-09 0)
(0.059035 -2.6079e-09 0)
(0.059035 -2.23163e-09 0)
(0.059035 -1.89928e-09 0)
(0.059035 -1.60859e-09 0)
(0.059035 -1.35642e-09 0)
(0.059035 -1.13921e-09 0)
(0.059035 -9.5328e-10 0)
(0.059035 -7.94985e-10 0)
(0.059035 -6.60874e-10 0)
(0.059035 -5.47751e-10 0)
(0.059035 -4.52713e-10 0)
(0.059035 -3.7316e-10 0)
(0.059035 -3.06792e-10 0)
(0.059035 -2.51598e-10 0)
(0.059035 -2.0583e-10 0)
(0.059035 -1.67985e-10 0)
(0.059035 -1.36775e-10 0)
(0.059035 -1.11103e-10 0)
(0.059035 -9.00404e-11 0)
(0.059035 -7.27992e-11 0)
(0.059035 -5.87146e-11 0)
(0.059035 -4.72333e-11 0)
(0.059035 -3.78957e-11 0)
(0.059035 -3.03223e-11 0)
(0.059035 -2.41988e-11 0)
(0.059035 -1.92608e-11 0)
(0.059035 -1.52886e-11 0)