/*--------------------------------*- C++ -*----------------------------------*\
| =========                 |                                                 |
| \\      /  F ield         | OpenFOAM: The Open Source CFD Toolbox           |
|  \\    /   O peration     | Version:  4.1                                   |
|   \\  /    A nd           | Web:      www.OpenFOAM.org                      |
|    \\/     M anipulation  |                                                 |
\*---------------------------------------------------------------------------*/
FoamFile
{
    version     2.0;
    format      ascii;
    class       volVectorField;
    location    "0.0207";
    object      U;
}
// * * * * * * * * * * * * * * * * * * * * * * * * * * * * * * * * * * * * * //

dimensions      [0 1 -1 0 0 0 0];

internalField   nonuniform List<vector> 
441
(
(-0.000109393 9.36226e-05 0)
(-0.000523238 0.000290719 0)
(-0.00111777 0.000472216 0)
(-0.00183427 0.000585895 0)
(-0.00260157 0.000627752 0)
(-0.00335335 0.000607631 0)
(-0.00403511 0.000538806 0)
(-0.00460541 0.000434082 0)
(-0.00503466 0.000304454 0)
(-0.00530309 0.000159009 0)
(-0.00539904 5.42192e-06 0)
(-0.00531786 -0.000149269 0)
(-0.00506171 -0.000297807 0)
(-0.00464029 -0.000431896 0)
(-0.00407225 -0.000541517 0)
(-0.00338728 -0.000614592 0)
(-0.00262809 -0.000637321 0)
(-0.00185143 -0.000595798 0)
(-0.00112619 -0.000480166 0)
(-0.00052566 -0.000295192 0)
(-0.00010942 -9.45633e-05 0)
(-0.000345072 0.000487182 0)
(-0.00151876 0.00136434 0)
(-0.00309657 0.00206199 0)
(-0.00493335 0.00247968 0)
(-0.00686446 0.00261614 0)
(-0.00873731 0.00251086 0)
(-0.0104256 0.00221528 0)
(-0.0118327 0.0017792 0)
(-0.012889 0.00124557 0)
(-0.0135483 0.00064995 0)
(-0.0137829 2.23939e-05 0)
(-0.0135822 -0.000609543 0)
(-0.0129515 -0.00121745 0)
(-0.0119137 -0.00176881 0)
(-0.0105126 -0.0022244 0)
(-0.00881798 -0.00253699 0)
(-0.00692901 -0.00265287 0)
(-0.00497681 -0.00251811 0)
(-0.00311961 -0.00209317 0)
(-0.00152686 -0.00138225 0)
(-0.000345946 -0.000491388 0)
(-0.00058474 0.00109613 0)
(-0.00243717 0.00291495 0)
(-0.00483182 0.00426231 0)
(-0.00755707 0.0050364 0)
(-0.0103848 0.00526149 0)
(-0.0131057 0.00502037 0)
(-0.0155466 0.00441337 0)
(-0.0175747 0.00353642 0)
(-0.0190944 0.00247207 0)
(-0.0200419 0.00128866 0)
(-0.0203794 4.38794e-05 0)
(-0.0200921 -0.00120943 0)
(-0.019187 -0.00241679 0)
(-0.0176955 -0.00351577 0)
(-0.0156776 -0.00443098 0)
(-0.0132287 -0.00507157 0)
(-0.0104851 -0.00533395 0)
(-0.00762665 -0.0051128 0)
(-0.00487065 -0.00432498 0)
(-0.00245239 -0.00295163 0)
(-0.000587135 -0.0011052 0)
(-0.000799135 0.00190244 0)
(-0.00325305 0.00490201 0)
(-0.0063561 0.0070203 0)
(-0.00983536 0.00819267 0)
(-0.0134081 0.00849336 0)
(-0.0168209 0.00806445 0)
(-0.0198667 0.00706662 0)
(-0.0223885 0.00565054 0)
(-0.0242742 0.00394486 0)
(-0.0254497 0.00205542 0)
(-0.025871 7.11234e-05 0)
(-0.0255205 -0.00192689 0)
(-0.0244053 -0.00385491 0)
(-0.0225606 -0.00561662 0)
(-0.0200554 -0.00709495 0)
(-0.0170006 -0.00814802 0)
(-0.0135576 -0.00861266 0)
(-0.00994199 -0.00831968 0)
(-0.00641822 -0.00712577 0)
(-0.00327934 -0.00496484 0)
(-0.000804008 -0.00191859 0)
(-0.000996952 0.00289192 0)
(-0.0040117 0.00730019 0)
(-0.00777425 0.010309 0)
(-0.0119496 0.0119186 0)
(-0.0162004 0.0122775 0)
(-0.0202327 0.0116059 0)
(-0.0238115 0.0101384 0)
(-0.0267627 0.00809002 0)
(-0.0289648 0.00564164 0)
(-0.0303384 0.00294026 0)
(-0.0308368 0.000107907 0)
(-0.0304401 -0.00274486 0)
(-0.0291541 -0.00550381 0)
(-0.0270133 -0.00803626 0)
(-0.0240893 -0.0101789 0)
(-0.0205016 -0.0117313 0)
(-0.016429 -0.0124596 0)
(-0.0121174 -0.0121152 0)
(-0.00787621 -0.010475 0)
(-0.00405771 -0.00740124 0)
(-0.00100639 -0.00291912 0)
(-0.00119544 0.00406435 0)
(-0.00477963 0.0101136 0)
(-0.00921198 0.0141369 0)
(-0.0140892 0.016222 0)
(-0.019015 0.0166168 0)
(-0.0236536 0.0156412 0)
(-0.0277454 0.0136207 0)
(-0.031104 0.0108457 0)
(-0.033604 0.00755598 0)
(-0.0351658 0.00394239 0)
(-0.035743 0.000160391 0)
(-0.0353142 -0.00365091 0)
(-0.0338815 -0.00734742 0)
(-0.0314746 -0.0107592 0)
(-0.0281612 -0.0136726 0)
(-0.0240628 -0.0158204 0)
(-0.0193703 -0.0168841 0)
(-0.0143575 -0.0165168 0)
(-0.00938119 -0.0143913 0)
(-0.00486004 -0.0102731 0)
(-0.00121303 -0.00410996 0)
(-0.00141231 0.00543676 0)
(-0.00562386 0.0133809 0)
(-0.0107898 0.0185514 0)
(-0.0164262 0.0211478 0)
(-0.0220693 0.0215463 0)
(-0.0273395 0.0201935 0)
(-0.0319544 0.0175261 0)
(-0.0357211 0.0139238 0)
(-0.0385168 0.00969191 0)
(-0.0402673 0.00506722 0)
(-0.0409299 0.00023698 0)
(-0.0404828 -0.00463444 0)
(-0.0389219 -0.00937618 0)
(-0.0362667 -0.0137819 0)
(-0.0325741 -0.0175846 0)
(-0.0279589 -0.0204405 0)
(-0.0226181 -0.0219296 0)
(-0.0168512 -0.0215821 0)
(-0.0110664 -0.0189366 0)
(-0.00576058 -0.0136309 0)
(-0.00144349 -0.0055135 0)
(-0.00166305 0.00704304 0)
(-0.00660286 0.0171728 0)
(-0.012609 0.0236339 0)
(-0.0190977 0.0267696 0)
(-0.0255265 0.0271224 0)
(-0.0314693 0.0252996 0)
(-0.0366258 0.0218752 0)
(-0.0408046 0.0173344 0)
(-0.0438943 0.0120556 0)
(-0.0458339 0.00632184 0)
(-0.0465896 0.000348088 0)
(-0.0461403 -0.00568249 0)
(-0.0444733 -0.0115786 0)
(-0.0415912 -0.0171013 0)
(-0.0375301 -0.0219282 0)
(-0.0323873 -0.025629 0)
(-0.0263553 -0.0276615 0)
(-0.0197543 -0.027401 0)
(-0.013048 -0.0242118 0)
(-0.00682648 -0.0175627 0)
(-0.00171547 -0.00717137 0)
(-0.00195927 0.00893204 0)
(-0.0077604 0.0215871 0)
(-0.0147402 0.02949 0)
(-0.0221885 0.0331758 0)
(-0.0294715 0.033405 0)
(-0.0361171 0.0309912 0)
(-0.041816 0.0266786 0)
(-0.0463911 0.0210765 0)
(-0.0497558 0.0146441 0)
(-0.0518734 0.00770881 0)
(-0.0527258 0.000505442 0)
(-0.052295 -0.00677471 0)
(-0.0505568 -0.0139308 0)
(-0.047489 -0.0206989 0)
(-0.0430939 -0.0267025 0)
(-0.0374349 -0.0314149 0)
(-0.0306837 -0.0341473 0)
(-0.0231699 -0.0340792 0)
(-0.0154122 -0.0303461 0)
(-0.0081114 -0.0221881 0)
(-0.00204322 -0.00914311 0)
(-0.00230645 0.0111647 0)
(-0.00911671 0.0267382 0)
(-0.0172053 0.0362323 0)
(-0.0257027 0.0404459 0)
(-0.0338726 0.0404313 0)
(-0.0412038 0.0372685 0)
(-0.0473945 0.0319122 0)
(-0.0523026 0.025118 0)
(-0.0558846 0.017431 0)
(-0.0581427 0.00921779 0)
(-0.0590843 0.000720424 0)
(-0.0586982 -0.00787789 0)
(-0.0569463 -0.0163835 0)
(-0.0537723 -0.0245212 0)
(-0.0491285 -0.0318664 0)
(-0.043022 -0.0377891 0)
(-0.0355784 -0.0414268 0)
(-0.0271143 -0.0417124 0)
(-0.0181946 -0.0374781 0)
(-0.00964547 -0.0276486 0)
(-0.00243502 -0.0115036 0)
(-0.00269972 0.0138089 0)
(-0.0106525 0.0327409 0)
(-0.019946 0.0439525 0)
(-0.0295152 0.0486152 0)
(-0.0385167 0.0481769 0)
(-0.0464189 0.0440622 0)
(-0.0529566 0.0374852 0)
(-0.0580515 0.0293692 0)
(-0.0617282 0.0203475 0)
(-0.064046 0.0108144 0)
(-0.0650493 0.00100086 0)
(-0.064739 -0.00894076 0)
(-0.0630619 -0.0188477 0)
(-0.0599188 -0.0284553 0)
(-0.0551941 -0.0373051 0)
(-0.0488102 -0.0446626 0)
(-0.0408101 -0.0494668 0)
(-0.0314593 -0.0503432 0)
(-0.0213428 -0.0457229 0)
(-0.0114167 -0.0340888 0)
(-0.00288842 -0.0143378 0)
(-0.00311656 0.016931 0)
(-0.0122816 0.0396836 0)
(-0.0227721 0.0526776 0)
(-0.033294 0.0576212 0)
(-0.0429094 0.0565006 0)
(-0.0511053 0.0511841 0)
(-0.0576974 0.0431983 0)
(-0.0627102 0.0336517 0)
(-0.0662658 0.02326 0)
(-0.0685 0.0124267 0)
(-0.0695065 0.0013459 0)
(-0.0693051 -0.00989013 0)
(-0.0678288 -0.0211806 0)
(-0.0649295 -0.032302 0)
(-0.0604073 -0.042788 0)
(-0.0540694 -0.0518118 0)
(-0.0458286 -0.0580962 0)
(-0.0358401 -0.0598962 0)
(-0.0246549 -0.0551177 0)
(-0.0133389 -0.0416229 0)
(-0.00338209 -0.0177309 0)
(-0.00350487 0.0205803 0)
(-0.0138071 0.0475834 0)
(-0.0252809 0.062302 0)
(-0.0363867 0.0672249 0)
(-0.0461375 0.0650694 0)
(-0.0541068 0.0582633 0)
(-0.060255 0.0486951 0)
(-0.0647557 0.0376633 0)
(-0.0678566 0.0259474 0)
(-0.0697863 0.0139311 0)
(-0.0706971 0.00173909 0)
(-0.070634 -0.0106301 0)
(-0.0695215 -0.0231741 0)
(-0.0671647 -0.0357504 0)
(-0.0632716 -0.0479251 0)
(-0.057508 -0.0588113 0)
(-0.0496037 -0.0669198 0)
(-0.0395222 -0.0700823 0)
(-0.027685 -0.0655364 0)
(-0.0152016 -0.0502794 0)
(-0.00386238 -0.0217503 0)
(-0.00376347 0.0247652 0)
(-0.0148517 0.0563175 0)
(-0.0267368 0.0724873 0)
(-0.0376607 0.0769047 0)
(-0.0466883 0.0732653 0)
(-0.0535877 0.0646765 0)
(-0.058542 0.0534159 0)
(-0.0619175 0.0409508 0)
(-0.0641053 0.0280849 0)
(-0.0654297 0.015142 0)
(-0.0661015 0.00214118 0)
(-0.0661951 -0.0110466 0)
(-0.0656364 -0.0245539 0)
(-0.0641984 -0.0383637 0)
(-0.0615082 -0.0521304 0)
(-0.0570843 -0.0649671 0)
(-0.0504302 -0.0752172 0)
(-0.0412219 -0.080273 0)
(-0.0296061 -0.0765654 0)
(-0.0165901 -0.0599135 0)
(-0.00422208 -0.026416 0)
(-0.00370792 0.0294141 0)
(-0.0147401 0.0655191 0)
(-0.0258831 0.0825225 0)
(-0.0352788 0.0857234 0)
(-0.0422296 0.0800878 0)
(-0.0468426 0.069491 0)
(-0.0495994 0.0565738 0)
(-0.0510782 0.0429055 0)
(-0.0518006 0.0292479 0)
(-0.0521641 0.0158146 0)
(-0.0524203 0.00248559 0)
(-0.0526694 -0.0110205 0)
(-0.052854 -0.0249976 0)
(-0.0527472 -0.0395944 0)
(-0.0519384 -0.0546184 0)
(-0.0498336 -0.0692758 0)
(-0.045708 -0.0818481 0)
(-0.0388693 -0.0893527 0)
(-0.0290035 -0.0873342 0)
(-0.0167574 -0.0700754 0)
(-0.00426401 -0.0316528 0)
(-0.00300216 0.0343114 0)
(-0.0122735 0.0744215 0)
(-0.0206216 0.0911385 0)
(-0.0263707 0.0921852 0)
(-0.0293416 0.0840816 0)
(-0.0301243 0.0714564 0)
(-0.0295237 0.0571859 0)
(-0.0282855 0.0428099 0)
(-0.0269934 0.0289545 0)
(-0.0260552 0.0156714 0)
(-0.02572 0.00268183 0)
(-0.0260986 -0.0104507 0)
(-0.027167 -0.0241831 0)
(-0.0287499 -0.0388497 0)
(-0.0304817 -0.0544689 0)
(-0.0317585 -0.0704574 0)
(-0.0317126 -0.0852149 0)
(-0.0292874 -0.0955858 0)
(-0.0235424 -0.0963083 0)
(-0.0143857 -0.0798195 0)
(-0.0036306 -0.0372142 0)
(-0.000992543 0.0389721 0)
(-0.00523956 0.0815988 0)
(-0.00740932 0.096269 0)
(-0.0065148 0.0941246 0)
(-0.0031893 0.0833595 0)
(0.00147584 0.0691111 0)
(0.00647529 0.0542106 0)
(0.0110572 0.0399679 0)
(0.0147215 0.0267677 0)
(0.017161 0.0144652 0)
(0.0181979 0.00263313 0)
(0.0177402 -0.00928604 0)
(0.0157654 -0.0218742 0)
(0.0123365 -0.0356287 0)
(0.00765557 -0.0508025 0)
(0.00215571 -0.0671305 0)
(-0.00338107 -0.0833702 0)
(-0.00773922 -0.0965726 0)
(-0.00937712 -0.101064 0)
(-0.00708891 -0.0874118 0)
(-0.00163666 -0.0425386 0)
(0.00377282 0.0424 0)
(0.0107714 0.0845706 0)
(0.0199561 0.0948267 0)
(0.0311026 0.0887663 0)
(0.0428607 0.075856 0)
(0.0540305 0.0611041 0)
(0.0638114 0.04685 0)
(0.071762 0.0339484 0)
(0.0776829 0.0224686 0)
(0.0815033 0.0120828 0)
(0.0831958 0.00227332 0)
(0.0827237 -0.00755972 0)
(0.0800172 -0.0180364 0)
(0.0749805 -0.029737 0)
(0.067535 -0.0430998 0)
(0.0577154 -0.0582153 0)
(0.045835 -0.0744157 0)
(0.0327249 -0.0894794 0)
(0.019968 -0.0981795 0)
(0.00975048 -0.089931 0)
(0.0032153 -0.0464797 0)
(0.0154417 0.0422463 0)
(0.0454071 0.078786 0)
(0.0727118 0.0824975 0)
(0.0969 0.0731636 0)
(0.117524 0.0599989 0)
(0.134487 0.0468284 0)
(0.147935 0.0350447 0)
(0.158139 0.0249311 0)
(0.165399 0.01628 0)
(0.169974 0.00867543 0)
(0.172027 0.00162078 0)
(0.171603 -0.00540962 0)
(0.168601 -0.0129505 0)
(0.162773 -0.02153 0)
(0.153723 -0.0316307 0)
(0.140937 -0.0435858 0)
(0.123855 -0.0573273 0)
(0.102057 -0.0717725 0)
(0.0756617 -0.0833529 0)
(0.0458904 -0.0824085 0)
(0.0151359 -0.0464655 0)
(0.0493537 0.0345115 0)
(0.121715 0.058172 0)
(0.171569 0.0554898 0)
(0.206189 0.0461994 0)
(0.231272 0.0363223 0)
(0.249709 0.0275151 0)
(0.263232 0.0201416 0)
(0.272945 0.0140876 0)
(0.279602 0.00907223 0)
(0.283701 0.00476455 0)
(0.285534 0.000826556 0)
(0.285204 -0.00307586 0)
(0.282619 -0.00727498 0)
(0.277476 -0.0121052 0)
(0.269213 -0.0178996 0)
(0.256923 -0.0249669 0)
(0.239189 -0.0335235 0)
(0.213778 -0.0434802 0)
(0.177227 -0.0537362 0)
(0.123872 -0.0588896 0)
(0.0494434 -0.0380582 0)
(0.182836 0.00461158 0)
(0.29658 0.00805829 0)
(0.35022 0.0113946 0)
(0.377143 0.0109947 0)
(0.393327 0.00910189 0)
(0.403877 0.00701794 0)
(0.411058 0.0051571 0)
(0.415963 0.0035976 0)
(0.419208 0.00229866 0)
(0.421154 0.00118306 0)
(0.422 0.000165135 0)
(0.421822 -0.000840253 0)
(0.42058 -0.00191478 0)
(0.418102 -0.00313293 0)
(0.414048 -0.00455074 0)
(0.407783 -0.00617538 0)
(0.398094 -0.00788875 0)
(0.382374 -0.0092799 0)
(0.354719 -0.00930995 0)
(0.298113 -0.00682372 0)
(0.181112 -0.0072482 0)
)
;

boundaryField
{
    movingWall
    {
        type            fixedValue;
        value           uniform (0.5 0 0);
    }
    fixedWalls
    {
        type            noSlip;
    }
    frontAndBack
    {
        type            empty;
    }
}


// ************************************************************************* //
