/*--------------------------------*- C++ -*----------------------------------*\
| =========                 |                                                 |
| \\      /  F ield         | OpenFOAM: The Open Source CFD Toolbox           |
|  \\    /   O peration     | Version:  4.1                                   |
|   \\  /    A nd           | Web:      www.OpenFOAM.org                      |
|    \\/     M anipulation  |                                                 |
\*---------------------------------------------------------------------------*/
FoamFile
{
    version     2.0;
    format      ascii;
    class       volVectorField;
    location    "4920";
    object      U;
}
// * * * * * * * * * * * * * * * * * * * * * * * * * * * * * * * * * * * * * //

dimensions      [0 1 -1 0 0 0 0];

internalField   nonuniform List<vector> 
1275
(
(0.0902748 -0.00066078 0)
(0.0901786 -0.000666056 0)
(0.0900471 -0.000660479 0)
(0.0899716 -0.000667498 0)
(0.0898136 -0.000657523 0)
(0.0884586 -0.00247066 0)
(0.0878291 -0.0020186 0)
(0.0872859 -0.00159575 0)
(0.0868245 -0.00119439 0)
(0.0864426 -0.000816997 0)
(0.0861354 -0.00045991 0)
(0.0858996 -0.000123225 0)
(0.0857305 0.000195396 0)
(0.0856244 0.000496584 0)
(0.0855767 0.000782082 0)
(0.0855836 0.00105273 0)
(0.0856408 0.00130991 0)
(0.0857444 0.00155448 0)
(0.0858907 0.00178757 0)
(0.0860759 0.00200995 0)
(0.0862966 0.00222254 0)
(0.0865493 0.00242603 0)
(0.086831 0.00262116 0)
(0.0871386 0.0028085 0)
(0.0874693 0.00298862 0)
(0.0878203 0.00316198 0)
(0.0881891 0.00332902 0)
(0.0885732 0.00349009 0)
(0.0889703 0.0036455 0)
(0.0893783 0.00379549 0)
(0.0897951 0.00394025 0)
(0.0902188 0.00407992 0)
(0.0906473 0.0042146 0)
(0.0910791 0.00434433 0)
(0.0915123 0.00446911 0)
(0.0919454 0.00458889 0)
(0.0923768 0.00470361 0)
(0.0928051 0.00481315 0)
(0.0932288 0.00491737 0)
(0.0936466 0.00501608 0)
(0.0940572 0.00510909 0)
(0.0944594 0.00519618 0)
(0.0948521 0.00527712 0)
(0.0952342 0.00535165 0)
(0.0956047 0.00541952 0)
(0.0959626 0.00548046 0)
(0.096307 0.00553422 0)
(0.0966372 0.00558054 0)
(0.0969523 0.00561918 0)
(0.0972519 0.00564991 0)
(0.0975351 0.00567252 0)
(0.0978017 0.00568682 0)
(0.098051 0.00569265 0)
(0.0982829 0.00568988 0)
(0.098497 0.00567843 0)
(0.0986932 0.00565823 0)
(0.0988714 0.00562927 0)
(0.0990316 0.00559158 0)
(0.0991737 0.00554521 0)
(0.0992981 0.00549029 0)
(0.0994048 0.00542697 0)
(0.0994942 0.00535544 0)
(0.0995667 0.00527595 0)
(0.0996226 0.00518877 0)
(0.0996624 0.00509423 0)
(0.0996866 0.00499268 0)
(0.0996959 0.0048845 0)
(0.0996908 0.00477013 0)
(0.0996719 0.00464999 0)
(0.0996399 0.00452456 0)
(0.0995955 0.00439432 0)
(0.0995395 0.00425977 0)
(0.0994724 0.00412142 0)
(0.099395 0.00397978 0)
(0.0993081 0.00383538 0)
(0.0992123 0.00368871 0)
(0.0991083 0.0035403 0)
(0.0989968 0.00339065 0)
(0.0988785 0.00324025 0)
(0.0987539 0.00308957 0)
(0.0986238 0.00293906 0)
(0.0984886 0.00278917 0)
(0.0983489 0.00264032 0)
(0.0982053 0.0024929 0)
(0.0980582 0.00234727 0)
(0.0979081 0.00220379 0)
(0.0977554 0.00206278 0)
(0.0976005 0.00192453 0)
(0.0974438 0.0017893 0)
(0.0972855 0.00165733 0)
(0.0971261 0.00152886 0)
(0.0969657 0.00140405 0)
(0.0968045 0.00128308 0)
(0.0966429 0.00116608 0)
(0.096481 0.00105318 0)
(0.096319 0.00094447 0)
(0.096157 0.00084002 0)
(0.0959952 0.000739885 0)
(0.0958336 0.000644096 0)
(0.0956724 0.000552671 0)
(0.0955116 0.000465605 0)
(0.0953514 0.000382883 0)
(0.0951917 0.000304468 0)
(0.0950326 0.000230321 0)
(0.0948742 0.000160374 0)
(0.0947165 9.45693e-05 0)
(0.0945595 3.28059e-05 0)
(0.0944033 -2.49738e-05 0)
(0.0942478 -7.89167e-05 0)
(0.0940931 -0.000129057 0)
(0.093939 -0.000175611 0)
(0.093786 -0.000218545 0)
(0.0936334 -0.000258203 0)
(0.0934821 -0.000294391 0)
(0.0933308 -0.000327698 0)
(0.0931815 -0.000357607 0)
(0.0930313 -0.000385166 0)
(0.0928845 -0.000409236 0)
(0.0927344 -0.00043172 0)
(0.0925915 -0.00045033 0)
(0.0924396 -0.000468494 0)
(0.0923039 -0.000481935 0)
(0.0921448 -0.000496608 0)
(0.0920248 -0.000505113 0)
(0.0918455 -0.000517072 0)
(0.0917614 -0.000521077 0)
(0.0915314 -0.000530319 0)
(0.0914357 -0.000530916 0)
(0.0913206 -0.000538114 0)
(0.0911518 -0.00053449 0)
(0.0910601 -0.000540154 0)
(0.0908573 -0.000534134 0)
(0.067425 -0.00175618 0)
(0.0668133 -0.00140677 0)
(0.0663046 -0.00108006 0)
(0.0658979 -0.000771867 0)
(0.0655856 -0.000482396 0)
(0.0653628 -0.000208749 0)
(0.0652234 4.95537e-05 0)
(0.0651619 0.000294612 0)
(0.0651728 0.000527146 0)
(0.065251 0.000748727 0)
(0.0653913 0.00096011 0)
(0.065589 0.00116249 0)
(0.0658397 0.00135657 0)
(0.066139 0.00154326 0)
(0.0664829 0.00172317 0)
(0.0668677 0.001897 0)
(0.0672898 0.00206526 0)
(0.067746 0.00222848 0)
(0.068233 0.00238705 0)
(0.0687481 0.00254138 0)
(0.0692884 0.00269177 0)
(0.0698515 0.00283849 0)
(0.0704347 0.00298174 0)
(0.0710359 0.00312172 0)
(0.071653 0.00325853 0)
(0.0722837 0.00339226 0)
(0.0729262 0.00352295 0)
(0.0735785 0.00365059 0)
(0.074239 0.00377515 0)
(0.0749058 0.00389654 0)
(0.0755772 0.00401465 0)
(0.0762518 0.00412934 0)
(0.0769278 0.00424043 0)
(0.0776039 0.00434771 0)
(0.0782784 0.00445094 0)
(0.0789501 0.00454988 0)
(0.0796175 0.00464424 0)
(0.0802792 0.00473373 0)
(0.0809341 0.00481804 0)
(0.0815807 0.00489686 0)
(0.0822179 0.00496986 0)
(0.0828446 0.00503672 0)
(0.0834595 0.00509711 0)
(0.0840617 0.00515073 0)
(0.0846501 0.00519727 0)
(0.0852238 0.00523645 0)
(0.0857819 0.005268 0)
(0.0863236 0.00529169 0)
(0.086848 0.00530732 0)
(0.0873546 0.0053147 0)
(0.0878427 0.00531369 0)
(0.0883118 0.00530421 0)
(0.0887614 0.00528618 0)
(0.0891912 0.0052596 0)
(0.0896008 0.0052245 0)
(0.0899901 0.00518095 0)
(0.0903589 0.00512907 0)
(0.0907071 0.00506904 0)
(0.0910348 0.00500107 0)
(0.091342 0.00492542 0)
(0.0916288 0.00484237 0)
(0.0918956 0.00475226 0)
(0.0921425 0.00465546 0)
(0.0923699 0.00455238 0)
(0.0925781 0.00444344 0)
(0.0927677 0.00432909 0)
(0.092939 0.00420982 0)
(0.0930926 0.00408609 0)
(0.093229 0.00395843 0)
(0.0933487 0.00382733 0)
(0.0934523 0.0036933 0)
(0.0935405 0.00355686 0)
(0.0936137 0.00341851 0)
(0.0936727 0.00327875 0)
(0.093718 0.00313807 0)
(0.0937503 0.00299694 0)
(0.0937701 0.00285581 0)
(0.0937781 0.00271513 0)
(0.0937748 0.00257531 0)
(0.0937608 0.00243675 0)
(0.0937366 0.00229981 0)
(0.0937029 0.00216484 0)
(0.0936601 0.00203216 0)
(0.0936088 0.00190207 0)
(0.0935494 0.00177482 0)
(0.0934825 0.00165067 0)
(0.0934084 0.00152982 0)
(0.0933276 0.00141247 0)
(0.0932406 0.00129877 0)
(0.0931477 0.00118887 0)
(0.0930493 0.00108287 0)
(0.0929458 0.000980886 0)
(0.0928375 0.000882972 0)
(0.0927248 0.000789184 0)
(0.0926079 0.000699551 0)
(0.0924872 0.000614088 0)
(0.092363 0.000532788 0)
(0.0922355 0.000455633 0)
(0.0921049 0.000382588 0)
(0.0919716 0.000313603 0)
(0.0918358 0.00024862 0)
(0.0916977 0.000187563 0)
(0.0915575 0.000130356 0)
(0.0914155 7.68979e-05 0)
(0.0912717 2.71068e-05 0)
(0.0911265 -1.9153e-05 0)
(0.0909799 -6.19458e-05 0)
(0.0908323 -0.000101467 0)
(0.0906835 -0.000137716 0)
(0.0905342 -0.000171009 0)
(0.0903837 -0.000201183 0)
(0.0902335 -0.000228814 0)
(0.0900818 -0.000253358 0)
(0.0899313 -0.000275976 0)
(0.0897786 -0.000295242 0)
(0.0896289 -0.000313656 0)
(0.0894749 -0.000327764 0)
(0.0893272 -0.000343118 0)
(0.0891715 -0.000351717 0)
(0.0890271 -0.000365713 0)
(0.0888691 -0.000368013 0)
(0.0887288 -0.00038174 0)
(0.0885671 -0.000381156 0)
(0.0884393 -0.000388645 0)
(0.0882607 -0.000388246 0)
(0.0881634 -0.000392395 0)
(0.0879454 -0.000390972 0)
(0.0453046 -0.00112829 0)
(0.0448676 -0.000896644 0)
(0.0445337 -0.000679238 0)
(0.0442971 -0.000474303 0)
(0.0441498 -0.000280855 0)
(0.0440858 -9.67414e-05 0)
(0.0440987 7.85885e-05 0)
(0.0441829 0.000246773 0)
(0.0443331 0.00040831 0)
(0.0445443 0.000564364 0)
(0.044812 0.000715385 0)
(0.045132 0.000862199 0)
(0.0455004 0.00100519 0)
(0.0459137 0.00114495 0)
(0.0463684 0.00128179 0)
(0.0468616 0.00141613 0)
(0.0473904 0.00154822 0)
(0.047952 0.00167836 0)
(0.0485442 0.00180674 0)
(0.0491645 0.00193355 0)
(0.0498108 0.00205892 0)
(0.050481 0.00218298 0)
(0.0511733 0.00230578 0)
(0.0518857 0.0024274 0)
(0.0526166 0.00254783 0)
(0.0533643 0.00266706 0)
(0.0541272 0.00278505 0)
(0.0549036 0.00290173 0)
(0.0556922 0.00301698 0)
(0.0564914 0.00313069 0)
(0.0572998 0.00324269 0)
(0.058116 0.0033528 0)
(0.0589385 0.00346079 0)
(0.0597661 0.00356645 0)
(0.0605971 0.0036695 0)
(0.0614305 0.00376966 0)
(0.0622647 0.00386663 0)
(0.0630984 0.00396009 0)
(0.0639302 0.00404971 0)
(0.064759 0.00413514 0)
(0.0655832 0.00421604 0)
(0.0664017 0.00429204 0)
(0.0672131 0.00436279 0)
(0.0680162 0.00442794 0)
(0.0688097 0.00448714 0)
(0.0695925 0.00454006 0)
(0.0703634 0.00458638 0)
(0.0711212 0.00462582 0)
(0.0718649 0.0046581 0)
(0.0725934 0.00468298 0)
(0.0733058 0.00470026 0)
(0.0740011 0.00470977 0)
(0.0746785 0.00471137 0)
(0.0753373 0.00470498 0)
(0.0759766 0.00469054 0)
(0.0765959 0.00466807 0)
(0.0771946 0.00463759 0)
(0.0777722 0.00459921 0)
(0.0783283 0.00455306 0)
(0.0788625 0.00449932 0)
(0.0793746 0.00443821 0)
(0.0798644 0.00436999 0)
(0.0803318 0.00429497 0)
(0.0807767 0.00421348 0)
(0.0811992 0.0041259 0)
(0.0815993 0.00403262 0)
(0.0819772 0.00393407 0)
(0.0823331 0.00383069 0)
(0.0826673 0.00372293 0)
(0.08298 0.00361127 0)
(0.0832717 0.00349619 0)
(0.0835428 0.00337818 0)
(0.0837936 0.00325771 0)
(0.0840246 0.00313528 0)
(0.0842363 0.00301134 0)
(0.0844293 0.00288637 0)
(0.0846041 0.00276081 0)
(0.0847612 0.00263511 0)
(0.0849012 0.00250967 0)
(0.0850247 0.00238489 0)
(0.0851323 0.00226115 0)
(0.0852245 0.0021388 0)
(0.085302 0.00201817 0)
(0.0853653 0.00189956 0)
(0.085415 0.00178325 0)
(0.0854518 0.0016695 0)
(0.0854761 0.00155852 0)
(0.0854885 0.00145053 0)
(0.0854897 0.0013457 0)
(0.0854802 0.00124417 0)
(0.0854604 0.0011461 0)
(0.085431 0.00105157 0)
(0.0853924 0.000960679 0)
(0.0853452 0.000873488 0)
(0.0852898 0.000790044 0)
(0.0852268 0.000710372 0)
(0.0851565 0.000634482 0)
(0.0850795 0.000562368 0)
(0.0849962 0.000494008 0)
(0.084907 0.000429365 0)
(0.0848124 0.000368396 0)
(0.0847126 0.000311032 0)
(0.0846082 0.000257217 0)
(0.0844994 0.000206853 0)
(0.0843867 0.000159878 0)
(0.0842704 0.00011616 0)
(0.0841508 7.56502e-05 0)
(0.0840282 3.8169e-05 0)
(0.083903 3.70558e-06 0)
(0.0837753 -2.79912e-05 0)
(0.0836457 -5.68608e-05 0)
(0.0835141 -8.32535e-05 0)
(0.0833811 -0.000107006 0)
(0.0832466 -0.000128584 0)
(0.083111 -0.000147723 0)
(0.0829747 -0.000164957 0)
(0.0828371 -0.00018003 0)
(0.0827003 -0.000193332 0)
(0.0825606 -0.000204936 0)
(0.0824258 -0.000214674 0)
(0.082282 -0.000223318 0)
(0.0821537 -0.00023007 0)
(0.0820012 -0.000235564 0)
(0.0818856 -0.000240828 0)
(0.0817177 -0.000244519 0)
(0.0816294 -0.000246533 0)
(0.0814255 -0.000249913 0)
(0.0263066 -0.000768993 0)
(0.0260843 -0.000636015 0)
(0.0259381 -0.000509357 0)
(0.0258648 -0.000387818 0)
(0.0258574 -0.000270922 0)
(0.0259124 -0.000157536 0)
(0.0260249 -4.74057e-05 0)
(0.0261915 6.03373e-05 0)
(0.0264085 0.00016589 0)
(0.0266728 0.000269877 0)
(0.0269816 0.000372472 0)
(0.0273322 0.000474114 0)
(0.0277221 0.000574955 0)
(0.0281492 0.000675303 0)
(0.0286114 0.000775281 0)
(0.0291067 0.000875103 0)
(0.0296334 0.000974864 0)
(0.0301899 0.00107471 0)
(0.0307745 0.00117469 0)
(0.0313858 0.00127491 0)
(0.0320224 0.00137539 0)
(0.032683 0.00147617 0)
(0.0333663 0.00157725 0)
(0.0340711 0.00167862 0)
(0.0347963 0.00178023 0)
(0.0355406 0.00188205 0)
(0.0363029 0.00198397 0)
(0.0370822 0.00208593 0)
(0.0378773 0.00218777 0)
(0.0386871 0.00228938 0)
(0.0395105 0.00239057 0)
(0.0403464 0.00249117 0)
(0.0411936 0.00259095 0)
(0.042051 0.00268969 0)
(0.0429175 0.00278713 0)
(0.0437919 0.002883 0)
(0.0446729 0.002977 0)
(0.0455593 0.00306882 0)
(0.0464499 0.00315813 0)
(0.0473434 0.00324459 0)
(0.0482386 0.00332785 0)
(0.049134 0.00340755 0)
(0.0500286 0.00348334 0)
(0.0509208 0.00355484 0)
(0.0518094 0.0036217 0)
(0.052693 0.00368356 0)
(0.0535705 0.0037401 0)
(0.0544403 0.00379097 0)
(0.0553014 0.00383589 0)
(0.0561523 0.00387456 0)
(0.056992 0.00390674 0)
(0.0578191 0.0039322 0)
(0.0586326 0.00395075 0)
(0.0594313 0.00396225 0)
(0.0602142 0.00396658 0)
(0.0609803 0.00396367 0)
(0.0617287 0.00395349 0)
(0.0624584 0.00393607 0)
(0.0631688 0.00391146 0)
(0.063859 0.00387976 0)
(0.0645284 0.00384112 0)
(0.0651765 0.00379572 0)
(0.0658027 0.0037438 0)
(0.0664067 0.00368561 0)
(0.066988 0.00362145 0)
(0.0675464 0.00355164 0)
(0.0680818 0.00347654 0)
(0.0685939 0.00339653 0)
(0.0690827 0.003312 0)
(0.0695483 0.00322337 0)
(0.0699907 0.00313106 0)
(0.07041 0.0030355 0)
(0.0708065 0.00293714 0)
(0.0711804 0.0028364 0)
(0.071532 0.00273373 0)
(0.0718616 0.00262955 0)
(0.0721697 0.00252429 0)
(0.0724566 0.00241835 0)
(0.0727229 0.00231212 0)
(0.072969 0.00220599 0)
(0.0731955 0.00210031 0)
(0.0734028 0.00199542 0)
(0.0735916 0.00189165 0)
(0.0737625 0.00178928 0)
(0.073916 0.00168859 0)
(0.0740527 0.00158983 0)
(0.0741733 0.00149323 0)
(0.0742784 0.001399 0)
(0.0743686 0.00130731 0)
(0.0744446 0.00121833 0)
(0.0745069 0.00113219 0)
(0.0745562 0.001049 0)
(0.0745931 0.000968873 0)
(0.0746183 0.000891868 0)
(0.0746322 0.000818047 0)
(0.0746356 0.000747449 0)
(0.074629 0.000680096 0)
(0.0746129 0.000615994 0)
(0.074588 0.000555137 0)
(0.0745548 0.000497501 0)
(0.0745138 0.000443056 0)
(0.0744656 0.000391753 0)
(0.0744106 0.000343546 0)
(0.0743493 0.000298356 0)
(0.0742823 0.000256134 0)
(0.0742099 0.000216764 0)
(0.0741326 0.00018022 0)
(0.0740509 0.00014632 0)
(0.0739651 0.000115103 0)
(0.0738756 8.62734e-05 0)
(0.0737828 6.00155e-05 0)
(0.0736872 3.58056e-05 0)
(0.0735887 1.41416e-05 0)
(0.0734883 -5.95067e-06 0)
(0.0733853 -2.3354e-05 0)
(0.0732815 -3.98967e-05 0)
(0.0731749 -5.33199e-05 0)
(0.0730692 -6.69362e-05 0)
(0.0729593 -7.66624e-05 0)
(0.0728539 -8.7865e-05 0)
(0.0727398 -9.45649e-05 0)
(0.072638 -0.000103057 0)
(0.0725169 -0.00010887 0)
(0.0724254 -0.000112893 0)
(0.0722899 -0.000119646 0)
(0.0722201 -0.000119597 0)
(0.0720568 -0.000127381 0)
(0.0122924 -0.000597763 0)
(0.0121758 -0.00052788 0)
(0.0121093 -0.000459708 0)
(0.0120905 -0.000393545 0)
(0.0121164 -0.000328584 0)
(0.0121849 -0.00026438 0)
(0.0122935 -0.000200675 0)
(0.0124407 -0.000136978 0)
(0.0126245 -7.31768e-05 0)
(0.0128433 -8.89376e-06 0)
(0.0130958 5.5943e-05 0)
(0.0133806 0.000121593 0)
(0.0136966 0.000188108 0)
(0.0140426 0.000255658 0)
(0.0144176 0.000324279 0)
(0.0148206 0.000394076 0)
(0.0152509 0.000465069 0)
(0.0157075 0.000537319 0)
(0.0161897 0.000610829 0)
(0.0166968 0.000685624 0)
(0.017228 0.000761689 0)
(0.0177826 0.000839023 0)
(0.0183601 0.00091759 0)
(0.0189596 0.000997358 0)
(0.0195806 0.00107827 0)
(0.0202225 0.00116027 0)
(0.0208845 0.00124327 0)
(0.0215659 0.00132717 0)
(0.0222662 0.00141187 0)
(0.0229845 0.00149724 0)
(0.0237201 0.00158313 0)
(0.0244723 0.00166937 0)
(0.0252402 0.00175577 0)
(0.026023 0.00184215 0)
(0.0268198 0.00192827 0)
(0.0276297 0.00201388 0)
(0.0284518 0.00209874 0)
(0.0292849 0.00218257 0)
(0.0301281 0.00226506 0)
(0.0309803 0.00234592 0)
(0.0318402 0.00242482 0)
(0.0327068 0.00250143 0)
(0.0335789 0.00257543 0)
(0.0344551 0.00264646 0)
(0.0353342 0.00271418 0)
(0.036215 0.00277825 0)
(0.0370959 0.00283835 0)
(0.0379759 0.00289413 0)
(0.0388534 0.0029453 0)
(0.0397271 0.00299157 0)
(0.0405957 0.00303265 0)
(0.0414578 0.0030683 0)
(0.0423122 0.0030983 0)
(0.0431575 0.00312246 0)
(0.0439925 0.00314063 0)
(0.0448159 0.00315268 0)
(0.0456265 0.00315854 0)
(0.0464232 0.00315815 0)
(0.047205 0.00315152 0)
(0.0479707 0.00313868 0)
(0.0487195 0.00311969 0)
(0.0494504 0.00309469 0)
(0.0501626 0.0030638 0)
(0.0508553 0.00302722 0)
(0.051528 0.00298517 0)
(0.0521799 0.00293789 0)
(0.0528106 0.00288566 0)
(0.0534196 0.00282878 0)
(0.0540065 0.00276757 0)
(0.0545712 0.00270238 0)
(0.0551132 0.00263355 0)
(0.0556327 0.00256145 0)
(0.0561293 0.00248645 0)
(0.0566033 0.00240892 0)
(0.0570545 0.00232926 0)
(0.0574833 0.00224782 0)
(0.0578897 0.00216498 0)
(0.058274 0.00208109 0)
(0.0586365 0.00199652 0)
(0.0589775 0.00191159 0)
(0.0592975 0.00182664 0)
(0.0595969 0.00174196 0)
(0.0598762 0.00165786 0)
(0.0601358 0.00157459 0)
(0.0603763 0.00149242 0)
(0.0605982 0.00141158 0)
(0.0608022 0.00133228 0)
(0.0609888 0.00125471 0)
(0.0611586 0.00117905 0)
(0.0613123 0.00110545 0)
(0.0614504 0.00103404 0)
(0.0615737 0.000964948 0)
(0.0616828 0.000898255 0)
(0.0617782 0.000834047 0)
(0.0618607 0.000772384 0)
(0.0619309 0.000713312 0)
(0.0619894 0.000656862 0)
(0.0620368 0.000603051 0)
(0.0620738 0.000551884 0)
(0.0621009 0.000503349 0)
(0.0621187 0.000457431 0)
(0.0621279 0.000414095 0)
(0.0621289 0.000373309 0)
(0.0621223 0.000335014 0)
(0.0621088 0.000299172 0)
(0.0620886 0.000265698 0)
(0.0620624 0.000234555 0)
(0.0620306 0.00020563 0)
(0.0619938 0.000178901 0)
(0.0619522 0.000154216 0)
(0.0619065 0.000131578 0)
(0.0618568 0.000110803 0)
(0.0618037 9.19021e-05 0)
(0.0617476 7.47049e-05 0)
(0.0616884 5.91496e-05 0)
(0.0616274 4.52252e-05 0)
(0.0615632 3.25593e-05 0)
(0.061499 2.16711e-05 0)
(0.0614303 1.1337e-05 0)
(0.061365 3.35822e-06 0)
(0.0612912 -5.35528e-06 0)
(0.0612278 -1.03906e-05 0)
(0.0611473 -1.85171e-05 0)
(0.0610897 -2.0219e-05 0)
(0.0609995 -2.96957e-05 0)
(0.060954 -2.75538e-05 0)
(0.0608476 -3.85067e-05 0)
(0.00280628 -0.000482694 0)
(0.00270698 -0.000453778 0)
(0.00263776 -0.000424844 0)
(0.00259835 -0.000395571 0)
(0.00258671 -0.000365797 0)
(0.00260262 -0.000335166 0)
(0.00264471 -0.000303641 0)
(0.00271272 -0.000270937 0)
(0.00280577 -0.000237049 0)
(0.00292359 -0.000201776 0)
(0.00306561 -0.000165116 0)
(0.00323159 -0.000126936 0)
(0.00342113 -8.72363e-05 0)
(0.00363405 -4.59308e-05 0)
(0.00387006 -3.01971e-06 0)
(0.00412899 4.15482e-05 0)
(0.00441063 8.77695e-05 0)
(0.00471483 0.000135672 0)
(0.00504143 0.000185246 0)
(0.00539026 0.000236501 0)
(0.00576119 0.000289421 0)
(0.00615404 0.000343997 0)
(0.00656866 0.000400203 0)
(0.00700487 0.000458013 0)
(0.00746247 0.000517386 0)
(0.00794127 0.000578278 0)
(0.00844102 0.000640629 0)
(0.00896145 0.000704371 0)
(0.00950229 0.000769422 0)
(0.0100632 0.000835688 0)
(0.0106438 0.000903059 0)
(0.0112437 0.000971411 0)
(0.0118624 0.0010406 0)
(0.0124994 0.00111048 0)
(0.0131542 0.00118086 0)
(0.0138261 0.00125157 0)
(0.0145145 0.00132238 0)
(0.0152187 0.00139307 0)
(0.0159378 0.0014634 0)
(0.016671 0.00153313 0)
(0.0174174 0.00160196 0)
(0.0181761 0.00166964 0)
(0.0189459 0.00173585 0)
(0.019726 0.00180031 0)
(0.020515 0.00186271 0)
(0.0213119 0.00192274 0)
(0.0221154 0.0019801 0)
(0.0229243 0.0020345 0)
(0.0237373 0.00208562 0)
(0.0245531 0.0021332 0)
(0.0253703 0.00217697 0)
(0.0261875 0.00221668 0)
(0.0270035 0.0022521 0)
(0.0278168 0.00228303 0)
(0.0286261 0.00230928 0)
(0.0294301 0.00233071 0)
(0.0302274 0.0023472 0)
(0.0310167 0.00235866 0)
(0.0317968 0.00236504 0)
(0.0325665 0.00236632 0)
(0.0333245 0.00236252 0)
(0.0340699 0.00235367 0)
(0.0348014 0.00233988 0)
(0.0355181 0.00232123 0)
(0.0362192 0.00229789 0)
(0.0369036 0.00227002 0)
(0.0375707 0.00223782 0)
(0.0382197 0.00220151 0)
(0.0388501 0.00216133 0)
(0.0394612 0.00211755 0)
(0.0400525 0.00207043 0)
(0.0406238 0.00202027 0)
(0.0411746 0.00196735 0)
(0.0417047 0.001912 0)
(0.042214 0.0018545 0)
(0.0427024 0.00179517 0)
(0.0431698 0.00173432 0)
(0.0436162 0.00167223 0)
(0.0440419 0.00160921 0)
(0.0444469 0.00154554 0)
(0.0448314 0.0014815 0)
(0.0451958 0.00141734 0)
(0.0455403 0.00135332 0)
(0.0458654 0.00128968 0)
(0.0461713 0.00122662 0)
(0.0464586 0.00116437 0)
(0.0467278 0.0011031 0)
(0.0469793 0.00104298 0)
(0.0472136 0.000984183 0)
(0.0474313 0.000926832 0)
(0.047633 0.000871056 0)
(0.0478193 0.00081696 0)
(0.0479906 0.000764635 0)
(0.0481477 0.000714159 0)
(0.0482911 0.000665592 0)
(0.0484215 0.000618985 0)
(0.0485393 0.000574373 0)
(0.0486453 0.000531778 0)
(0.04874 0.000491215 0)
(0.0488241 0.000452684 0)
(0.048898 0.00041618 0)
(0.0489624 0.000381681 0)
(0.0490178 0.00034917 0)
(0.0490648 0.000318603 0)
(0.0491039 0.000289961 0)
(0.0491357 0.000263169 0)
(0.0491605 0.000238221 0)
(0.049179 0.000215 0)
(0.0491916 0.000193538 0)
(0.0491988 0.000173645 0)
(0.0492009 0.000155435 0)
(0.0491985 0.000138598 0)
(0.0491917 0.000123391 0)
(0.0491813 0.000109317 0)
(0.0491671 9.68448e-05 0)
(0.0491504 8.52476e-05 0)
(0.0491299 7.5189e-05 0)
(0.0491085 6.58548e-05 0)
(0.0490826 5.77212e-05 0)
(0.049058 5.06863e-05 0)
(0.0490272 4.35489e-05 0)
(0.0490013 3.94022e-05 0)
(0.0489655 3.15833e-05 0)
(0.0489403 3.14035e-05 0)
(0.0488991 2.1193e-05 0)
(0.0488765 2.47368e-05 0)
(0.0488296 1.26528e-05 0)
(-0.00296231 -0.00036601 0)
(-0.00308074 -0.000358818 0)
(-0.00318373 -0.000350738 0)
(-0.00327104 -0.000342139 0)
(-0.00334323 -0.000332609 0)
(-0.00339996 -0.000322141 0)
(-0.00344153 -0.000310597 0)
(-0.00346758 -0.000297863 0)
(-0.0034782 -0.000283897 0)
(-0.00347303 -0.000268584 0)
(-0.003452 -0.000251909 0)
(-0.00341477 -0.000233787 0)
(-0.00336116 -0.00021421 0)
(-0.00329085 -0.000193121 0)
(-0.00320359 -0.000170517 0)
(-0.00309906 -0.000146359 0)
(-0.00297701 -0.000120647 0)
(-0.00283711 -9.33591e-05 0)
(-0.00267911 -6.44967e-05 0)
(-0.0025027 -3.40481e-05 0)
(-0.00230762 -2.019e-06 0)
(-0.00209361 3.15931e-05 0)
(-0.00186044 6.67774e-05 0)
(-0.00160786 0.000103527 0)
(-0.00133568 0.000141822 0)
(-0.00104372 0.000181644 0)
(-0.000731829 0.000222963 0)
(-0.000399878 0.000265744 0)
(-4.77837e-05 0.000309943 0)
(0.000324502 0.000355506 0)
(0.000716986 0.000402368 0)
(0.00112963 0.000450453 0)
(0.00156234 0.000499673 0)
(0.00201498 0.000549926 0)
(0.00248735 0.000601096 0)
(0.0029792 0.000653052 0)
(0.00349019 0.000705649 0)
(0.00401996 0.000758726 0)
(0.00456803 0.000812109 0)
(0.0051339 0.000865609 0)
(0.00571697 0.000919022 0)
(0.00631657 0.000972133 0)
(0.00693198 0.00102472 0)
(0.00756239 0.00107654 0)
(0.00820693 0.00112735 0)
(0.00886466 0.00117691 0)
(0.00953457 0.00122496 0)
(0.0102156 0.00127125 0)
(0.0109067 0.00131554 0)
(0.0116066 0.00135757 0)
(0.0123141 0.00139712 0)
(0.0130279 0.00143395 0)
(0.0137469 0.00146786 0)
(0.0144697 0.00149866 0)
(0.0151948 0.00152616 0)
(0.0159211 0.00155021 0)
(0.0166471 0.00157069 0)
(0.0173716 0.00158748 0)
(0.0180931 0.0016005 0)
(0.0188103 0.00160971 0)
(0.0195221 0.00161507 0)
(0.0202271 0.00161658 0)
(0.0209241 0.00161427 0)
(0.0216119 0.00160819 0)
(0.0222895 0.00159843 0)
(0.0229558 0.00158509 0)
(0.0236098 0.00156829 0)
(0.0242506 0.00154818 0)
(0.0248773 0.00152494 0)
(0.0254892 0.00149873 0)
(0.0260855 0.00146975 0)
(0.0266656 0.00143823 0)
(0.0272289 0.00140436 0)
(0.027775 0.00136839 0)
(0.0283035 0.00133053 0)
(0.028814 0.00129102 0)
(0.0293062 0.0012501 0)
(0.0297801 0.001208 0)
(0.0302355 0.00116494 0)
(0.0306722 0.00112114 0)
(0.0310904 0.00107683 0)
(0.0314901 0.0010322 0)
(0.0318715 0.000987462 0)
(0.0322347 0.000942798 0)
(0.0325799 0.000898387 0)
(0.0329075 0.000854392 0)
(0.0332177 0.000810967 0)
(0.0335109 0.000768251 0)
(0.0337875 0.000726372 0)
(0.0340479 0.000685445 0)
(0.0342925 0.000645571 0)
(0.0345219 0.000606841 0)
(0.0347366 0.000569332 0)
(0.0349369 0.000533109 0)
(0.0351235 0.000498227 0)
(0.0352968 0.00046473 0)
(0.0354575 0.00043265 0)
(0.035606 0.000402013 0)
(0.035743 0.000372831 0)
(0.0358689 0.000345111 0)
(0.0359842 0.000318852 0)
(0.0360896 0.000294043 0)
(0.0361856 0.000270672 0)
(0.0362727 0.000248713 0)
(0.0363513 0.000228146 0)
(0.0364221 0.000208929 0)
(0.0364856 0.000191041 0)
(0.0365421 0.000174424 0)
(0.0365921 0.000159056 0)
(0.0366362 0.000144872 0)
(0.0366748 0.000131839 0)
(0.0367083 0.000119909 0)
(0.036737 0.000108994 0)
(0.0367615 9.91457e-05 0)
(0.0367819 9.00902e-05 0)
(0.036799 8.21887e-05 0)
(0.0368123 7.46572e-05 0)
(0.0368234 6.86557e-05 0)
(0.0368309 6.21735e-05 0)
(0.0368374 5.81856e-05 0)
(0.03684 5.20321e-05 0)
(0.0368429 5.04262e-05 0)
(0.0368419 4.34865e-05 0)
(0.0368412 4.48777e-05 0)
(0.0368387 3.57673e-05 0)
(0.0368329 3.99362e-05 0)
(0.0368324 2.94382e-05 0)
(-0.00558577 -0.000230317 0)
(-0.00571786 -0.000233027 0)
(-0.00584493 -0.000235165 0)
(-0.00596613 -0.000236627 0)
(-0.00608179 -0.000237392 0)
(-0.00619109 -0.000237329 0)
(-0.00629408 -0.000236458 0)
(-0.00639003 -0.000234673 0)
(-0.00647874 -0.000231994 0)
(-0.00655954 -0.000228346 0)
(-0.0066321 -0.00022374 0)
(-0.00669579 -0.000218123 0)
(-0.00675017 -0.0002115 0)
(-0.00679464 -0.000203833 0)
(-0.00682871 -0.000195119 0)
(-0.0068518 -0.000185331 0)
(-0.00686339 -0.000174463 0)
(-0.00686292 -0.000162491 0)
(-0.00684984 -0.000149408 0)
(-0.00682363 -0.000135195 0)
(-0.00678373 -0.000119841 0)
(-0.00672963 -0.000103332 0)
(-0.00666081 -8.56586e-05 0)
(-0.00657675 -6.68091e-05 0)
(-0.00647697 -4.6778e-05 0)
(-0.00636099 -2.55592e-05 0)
(-0.00622834 -3.15306e-06 0)
(-0.0060786 2.04382e-05 0)
(-0.00591134 4.5205e-05 0)
(-0.00572619 7.11336e-05 0)
(-0.0055228 9.82016e-05 0)
(-0.00530084 0.00012638 0)
(-0.00506006 0.00015563 0)
(-0.00480022 0.000185904 0)
(-0.00452114 0.000217144 0)
(-0.00422271 0.000249279 0)
(-0.00390485 0.000282229 0)
(-0.00356757 0.000315901 0)
(-0.00321094 0.00035019 0)
(-0.00283508 0.000384977 0)
(-0.00244021 0.000420135 0)
(-0.00202661 0.000455522 0)
(-0.00159464 0.000490988 0)
(-0.00114476 0.000526371 0)
(-0.000677487 0.000561502 0)
(-0.000193423 0.000596207 0)
(0.000306743 0.000630302 0)
(0.000822247 0.000663604 0)
(0.00135225 0.000695926 0)
(0.00189583 0.000727084 0)
(0.00245201 0.000756895 0)
(0.00301975 0.000785183 0)
(0.00359793 0.000811777 0)
(0.0041854 0.000836519 0)
(0.00478095 0.000859259 0)
(0.00538334 0.000879863 0)
(0.0059913 0.000898213 0)
(0.00660352 0.000914204 0)
(0.00721869 0.000927753 0)
(0.0078355 0.000938794 0)
(0.00845263 0.000947281 0)
(0.00906876 0.000953187 0)
(0.00968262 0.000956506 0)
(0.0102929 0.000957252 0)
(0.0108985 0.000955459 0)
(0.0114981 0.000951176 0)
(0.0120905 0.000944474 0)
(0.0126748 0.000935437 0)
(0.0132499 0.000924167 0)
(0.0138147 0.000910777 0)
(0.0143684 0.000895393 0)
(0.0149102 0.000878151 0)
(0.0154393 0.000859195 0)
(0.0159549 0.000838676 0)
(0.0164565 0.000816749 0)
(0.0169436 0.000793575 0)
(0.0174156 0.000769313 0)
(0.0178722 0.000744123 0)
(0.0183131 0.000718165 0)
(0.0187379 0.000691594 0)
(0.0191466 0.000664563 0)
(0.019539 0.000637217 0)
(0.0199151 0.000609697 0)
(0.0202748 0.000582138 0)
(0.0206183 0.000554663 0)
(0.0209457 0.000527392 0)
(0.0212571 0.000500433 0)
(0.0215528 0.000473885 0)
(0.0218331 0.000447842 0)
(0.0220982 0.000422383 0)
(0.0223485 0.000397582 0)
(0.0225845 0.000373502 0)
(0.0228064 0.000350199 0)
(0.0230147 0.00032772 0)
(0.0232099 0.000306101 0)
(0.0233925 0.000285375 0)
(0.0235629 0.000265563 0)
(0.0237216 0.000246682 0)
(0.0238691 0.000228743 0)
(0.024006 0.000211746 0)
(0.0241327 0.000195693 0)
(0.0242498 0.000180573 0)
(0.0243578 0.000166379 0)
(0.0244572 0.000153088 0)
(0.0245485 0.000140692 0)
(0.0246321 0.000129151 0)
(0.0247086 0.000118465 0)
(0.0247785 0.000108569 0)
(0.0248421 9.94861e-05 0)
(0.0249 9.11131e-05 0)
(0.0249525 8.3509e-05 0)
(0.0250002 7.65252e-05 0)
(0.0250433 7.02633e-05 0)
(0.0250823 6.45363e-05 0)
(0.0251175 5.94556e-05 0)
(0.0251494 5.48788e-05 0)
(0.0251779 5.07614e-05 0)
(0.0252039 4.73075e-05 0)
(0.0252273 4.38014e-05 0)
(0.0252483 4.16212e-05 0)
(0.0252679 3.81114e-05 0)
(0.0252842 3.7641e-05 0)
(0.0253021 3.31795e-05 0)
(0.0253128 3.49888e-05 0)
(0.025332 2.87248e-05 0)
(0.0253341 3.23773e-05 0)
(0.025359 2.52882e-05 0)
(-0.00538626 -9.56787e-05 0)
(-0.0054994 -9.90093e-05 0)
(-0.00561359 -0.000101948 0)
(-0.00572804 -0.000104723 0)
(-0.00584285 -0.000107168 0)
(-0.00595731 -0.000109357 0)
(-0.0060713 -0.000111223 0)
(-0.00618418 -0.00011277 0)
(-0.00629571 -0.000113972 0)
(-0.0064053 -0.000114811 0)
(-0.00651259 -0.000115273 0)
(-0.00661701 -0.000115336 0)
(-0.00671815 -0.000114992 0)
(-0.00681545 -0.00011422 0)
(-0.00690843 -0.000113012 0)
(-0.00699657 -0.000111349 0)
(-0.00707933 -0.000109224 0)
(-0.00715618 -0.000106619 0)
(-0.00722659 -0.000103524 0)
(-0.00729 -9.99247e-05 0)
(-0.00734586 -9.58087e-05 0)
(-0.00739361 -9.1161e-05 0)
(-0.0074327 -8.59691e-05 0)
(-0.00746254 -8.02178e-05 0)
(-0.00748259 -7.38944e-05 0)
(-0.00749226 -6.69845e-05 0)
(-0.00749099 -5.94762e-05 0)
(-0.00747822 -5.13572e-05 0)
(-0.00745338 -4.26181e-05 0)
(-0.00741593 -3.32505e-05 0)
(-0.00736533 -2.32497e-05 0)
(-0.00730106 -1.26132e-05 0)
(-0.00722261 -1.34347e-06 0)
(-0.0071295 1.05534e-05 0)
(-0.0070213 2.30655e-05 0)
(-0.00689757 3.61755e-05 0)
(-0.00675795 4.98598e-05 0)
(-0.00660211 6.4088e-05 0)
(-0.00642976 7.88224e-05 0)
(-0.00624069 9.40181e-05 0)
(-0.00603473 0.000109622 0)
(-0.00581179 0.000125575 0)
(-0.00557184 0.00014181 0)
(-0.00531494 0.00015825 0)
(-0.00504121 0.000174816 0)
(-0.00475087 0.00019142 0)
(-0.00444421 0.00020797 0)
(-0.00412163 0.00022437 0)
(-0.00378357 0.000240519 0)
(-0.00343061 0.000256317 0)
(-0.00306338 0.000271661 0)
(-0.0026826 0.00028645 0)
(-0.00228906 0.000300585 0)
(-0.00188365 0.00031397 0)
(-0.00146728 0.000326516 0)
(-0.00104098 0.000338136 0)
(-0.000605796 0.000348755 0)
(-0.000162831 0.000358302 0)
(0.000286769 0.00036672 0)
(0.000741828 0.000373958 0)
(0.00120115 0.000379978 0)
(0.00166352 0.000384752 0)
(0.00212773 0.000388264 0)
(0.00259256 0.000390509 0)
(0.00305681 0.000391493 0)
(0.00351932 0.000391234 0)
(0.00397893 0.000389758 0)
(0.00443454 0.000387104 0)
(0.00488507 0.000383317 0)
(0.00532952 0.000378452 0)
(0.00576693 0.000372571 0)
(0.00619639 0.000365741 0)
(0.00661708 0.000358036 0)
(0.00702822 0.000349532 0)
(0.00742914 0.00034031 0)
(0.00781919 0.000330452 0)
(0.00819785 0.000320042 0)
(0.00856462 0.000309162 0)
(0.00891912 0.000297896 0)
(0.00926102 0.000286323 0)
(0.00959005 0.000274524 0)
(0.00990603 0.000262573 0)
(0.0102089 0.000250542 0)
(0.0104984 0.0002385 0)
(0.0107748 0.000226509 0)
(0.011038 0.000214629 0)
(0.0112882 0.000202914 0)
(0.0115255 0.000191412 0)
(0.0117501 0.000180167 0)
(0.0119623 0.000169219 0)
(0.0121624 0.000158599 0)
(0.0123506 0.000148338 0)
(0.0125275 0.000138458 0)
(0.0126932 0.00012898 0)
(0.0128482 0.000119919 0)
(0.012993 0.000111285 0)
(0.0131279 0.000103085 0)
(0.0132534 9.53244e-05 0)
(0.01337 8.80025e-05 0)
(0.013478 8.11176e-05 0)
(0.013578 7.46645e-05 0)
(0.0136704 6.86363e-05 0)
(0.0137556 6.30235e-05 0)
(0.0138341 5.78156e-05 0)
(0.0139063 5.29998e-05 0)