/*--------------------------------*- C++ -*----------------------------------*\
| =========                 |                                                 |
| \\      /  F ield         | OpenFOAM: The Open Source CFD Toolbox           |
|  \\    /   O peration     | Version:  4.1                                   |
|   \\  /    A nd           | Web:      www.OpenFOAM.org                      |
|    \\/     M anipulation  |                                                 |
\*---------------------------------------------------------------------------*/
FoamFile
{
    version     2.0;
    format      ascii;
    class       volVectorField;
    location    "5400";
    object      U;
}
// * * * * * * * * * * * * * * * * * * * * * * * * * * * * * * * * * * * * * //

dimensions      [0 1 -1 0 0 0 0];

internalField   nonuniform List<vector> 
1275
(
(0.0902618 -0.000655999 0)
(0.0901655 -0.000661303 0)
(0.090034 -0.000655815 0)
(0.0899585 -0.000662827 0)
(0.0898005 -0.000652916 0)
(0.0888659 -0.00260499 0)
(0.088214 -0.00214592 0)
(0.0876485 -0.00171616 0)
(0.0871652 -0.00130814 0)
(0.0867616 -0.000924323 0)
(0.0864334 -0.000561102 0)
(0.0861772 -0.000218566 0)
(0.0859886 0.000105594 0)
(0.0858637 0.00041202 0)
(0.0857981 0.000702449 0)
(0.0857879 0.000977732 0)
(0.085829 0.00123926 0)
(0.0859174 0.0014879 0)
(0.0860492 0.00172478 0)
(0.0862209 0.00195071 0)
(0.0864289 0.00216662 0)
(0.0866697 0.00237319 0)
(0.0869403 0.00257119 0)
(0.0872375 0.00276119 0)
(0.0875585 0.0029438 0)
(0.0879005 0.00311947 0)
(0.0882608 0.00328867 0)
(0.0886372 0.00345174 0)
(0.0890271 0.00360901 0)
(0.0894284 0.00376074 0)
(0.0898389 0.00390712 0)
(0.0902568 0.00404831 0)
(0.0906801 0.00418441 0)
(0.0911069 0.00431547 0)
(0.0915356 0.00444151 0)
(0.0919646 0.00456249 0)
(0.0923922 0.00467834 0)
(0.0928169 0.00478896 0)
(0.0932374 0.00489421 0)
(0.0936523 0.00499392 0)
(0.0940603 0.0050879 0)
(0.0944601 0.00517593 0)
(0.0948506 0.00525779 0)
(0.0952308 0.00533322 0)
(0.0955995 0.00540198 0)
(0.0959559 0.00546381 0)
(0.0962989 0.00551845 0)
(0.0966279 0.00556565 0)
(0.0969421 0.00560517 0)
(0.0972407 0.00563679 0)
(0.0975233 0.00566028 0)
(0.0977892 0.00567547 0)
(0.0980382 0.0056822 0)
(0.0982697 0.00568033 0)
(0.0984836 0.00566979 0)
(0.0986796 0.0056505 0)
(0.0988577 0.00562245 0)
(0.0990179 0.00558566 0)
(0.0991601 0.00554021 0)
(0.0992846 0.00548619 0)
(0.0993916 0.00542376 0)
(0.0994812 0.00535312 0)
(0.099554 0.0052745 0)
(0.0996102 0.00518818 0)
(0.0996503 0.00509448 0)
(0.099675 0.00499375 0)
(0.0996846 0.00488637 0)
(0.0996799 0.00477277 0)
(0.0996614 0.00465338 0)
(0.0996298 0.00452866 0)
(0.0995858 0.0043991 0)
(0.0995301 0.00426519 0)
(0.0994634 0.00412745 0)
(0.0993864 0.00398639 0)
(0.0992998 0.00384251 0)
(0.0992043 0.00369635 0)
(0.0991007 0.0035484 0)
(0.0989895 0.00339916 0)
(0.0988714 0.00324914 0)
(0.0987471 0.00309879 0)
(0.0986172 0.00294859 0)
(0.0984822 0.00279897 0)
(0.0983428 0.00265034 0)
(0.0981993 0.00250311 0)
(0.0980524 0.00235764 0)
(0.0979024 0.00221429 0)
(0.0977499 0.00207337 0)
(0.0975951 0.00193517 0)
(0.0974385 0.00179998 0)
(0.0972803 0.00166802 0)
(0.0971209 0.00153952 0)
(0.0969606 0.00141467 0)
(0.0967996 0.00129363 0)
(0.096638 0.00117655 0)
(0.0964762 0.00106355 0)
(0.0963143 0.000954715 0)
(0.0961523 0.000850128 0)
(0.0959905 0.000749841 0)
(0.095829 0.000653888 0)
(0.0956679 0.000562288 0)
(0.0955072 0.000475038 0)
(0.095347 0.000392124 0)
(0.0951874 0.000313511 0)
(0.0950284 0.000239159 0)
(0.09487 0.000169003 0)
(0.0947124 0.000102986 0)
(0.0945555 4.10085e-05 0)
(0.0943993 -1.69863e-05 0)
(0.0942439 -7.11442e-05 0)
(0.0940893 -0.000121498 0)
(0.0939354 -0.000168265 0)
(0.0937824 -0.000211409 0)
(0.0936299 -0.000251272 0)
(0.0934787 -0.000287663 0)
(0.0933276 -0.000321165 0)
(0.0931784 -0.000351266 0)
(0.0930283 -0.000379008 0)
(0.0928816 -0.000403256 0)
(0.0927317 -0.000425907 0)
(0.0925889 -0.000444681 0)
(0.092437 -0.000462992 0)
(0.0923016 -0.000476582 0)
(0.0921425 -0.000491378 0)
(0.0920227 -0.000500016 0)
(0.0918435 -0.000512072 0)
(0.0917595 -0.000516194 0)
(0.0915297 -0.000525503 0)
(0.0914341 -0.000526202 0)
(0.0913192 -0.00053343 0)
(0.0911505 -0.000529896 0)
(0.0910589 -0.000535557 0)
(0.0908563 -0.000529601 0)
(0.0679029 -0.00186324 0)
(0.0672605 -0.00150714 0)
(0.0667221 -0.00117404 0)
(0.0662867 -0.00085988 0)
(0.0659469 -0.000564792 0)
(0.0656978 -0.000285922 0)
(0.0655334 -2.27528e-05 0)
(0.0654483 0.000226811 0)
(0.0654369 0.000463522 0)
(0.065494 0.000688959 0)
(0.0656145 0.000903904 0)
(0.0657937 0.00110957 0)
(0.066027 0.00130668 0)
(0.06631 0.00149616 0)
(0.0666388 0.00167865 0)
(0.0670095 0.00185485 0)
(0.0674184 0.0020253 0)
(0.0678623 0.00219054 0)
(0.068338 0.00235097 0)
(0.0688424 0.00250703 0)
(0.0693729 0.002659 0)
(0.0699267 0.00280719 0)
(0.0705014 0.00295181 0)
(0.0710947 0.00309306 0)
(0.0717044 0.00323104 0)
(0.0723283 0.00336587 0)
(0.0729645 0.00349758 0)
(0.073611 0.00362618 0)
(0.074266 0.00375164 0)
(0.0749277 0.00387388 0)
(0.0755945 0.0039928 0)
(0.0762648 0.00410827 0)
(0.0769368 0.0042201 0)
(0.0776092 0.00432809 0)
(0.0782804 0.00443203 0)
(0.078949 0.00453165 0)
(0.0796135 0.00462668 0)
(0.0802727 0.00471684 0)
(0.0809252 0.00480182 0)
(0.0815697 0.0048813 0)
(0.082205 0.00495497 0)
(0.08283 0.00502251 0)
(0.0834434 0.00508359 0)
(0.0840442 0.00513791 0)
(0.0846315 0.00518517 0)
(0.0852042 0.00522508 0)
(0.0857614 0.00525738 0)
(0.0863024 0.00528183 0)
(0.0868263 0.00529823 0)
(0.0873324 0.00530639 0)
(0.0878202 0.00530619 0)
(0.0882891 0.00529751 0)
(0.0887386 0.0052803 0)
(0.0891684 0.00525454 0)
(0.0895781 0.00522026 0)
(0.0899676 0.00517754 0)
(0.0903366 0.00512649 0)
(0.0906852 0.00506729 0)
(0.0910132 0.00500013 0)
(0.0913208 0.00492527 0)
(0.0916082 0.00484301 0)
(0.0918755 0.00475367 0)
(0.0921229 0.00465762 0)
(0.0923509 0.00455527 0)
(0.0925598 0.00444703 0)
(0.09275 0.00433335 0)
(0.092922 0.00421471 0)
(0.0930763 0.0040916 0)
(0.0932133 0.00396451 0)
(0.0933338 0.00383395 0)
(0.0934381 0.00370043 0)
(0.0935269 0.00356445 0)
(0.0936009 0.00342653 0)
(0.0936605 0.00328717 0)
(0.0937065 0.00314684 0)
(0.0937395 0.00300602 0)
(0.0937599 0.00286517 0)
(0.0937685 0.00272474 0)
(0.0937659 0.00258512 0)
(0.0937525 0.00244673 0)
(0.093729 0.00230993 0)
(0.0936958 0.00217507 0)
(0.0936536 0.00204246 0)
(0.0936029 0.00191241 0)
(0.0935441 0.00178519 0)
(0.0934777 0.00166102 0)
(0.0934041 0.00154014 0)
(0.0933239 0.00142273 0)
(0.0932374 0.00130895 0)
(0.093145 0.00119895 0)
(0.0930471 0.00109285 0)
(0.0929441 0.000990726 0)
(0.0928363 0.000892666 0)
(0.092724 0.000798719 0)
(0.0926076 0.000708915 0)
(0.0924873 0.000623271 0)
(0.0923635 0.000541782 0)
(0.0922364 0.000464431 0)
(0.0921063 0.000391183 0)
(0.0919735 0.000321991 0)
(0.0918381 0.000256798 0)
(0.0917004 0.000195528 0)
(0.0915605 0.000138107 0)
(0.0914189 8.44355e-05 0)
(0.0912755 3.44314e-05 0)
(0.0911307 -1.20395e-05 0)
(0.0909844 -5.50409e-05 0)
(0.0908372 -9.47663e-05 0)
(0.0906887 -0.000131217 0)
(0.0905398 -0.000164704 0)
(0.0903897 -0.000195069 0)
(0.0902398 -0.000222882 0)
(0.0900884 -0.000247603 0)
(0.0899383 -0.000270387 0)
(0.0897858 -0.000289815 0)
(0.0896365 -0.000308377 0)
(0.0894828 -0.000322632 0)
(0.0893354 -0.00033811 0)
(0.08918 -0.000346839 0)
(0.0890359 -0.000360932 0)
(0.0888782 -0.000363348 0)
(0.0887382 -0.000377141 0)
(0.0885768 -0.000376659 0)
(0.0884492 -0.000384178 0)
(0.088271 -0.000383867 0)
(0.0881738 -0.000388015 0)
(0.0879563 -0.000386654 0)
(0.045742 -0.00120053 0)
(0.0452721 -0.00096349 0)
(0.0449072 -0.000741163 0)
(0.0446414 -0.000531813 0)
(0.0444668 -0.000334366 0)
(0.0443773 -0.000146668 0)
(0.0443663 3.18964e-05 0)
(0.0444284 0.000202985 0)
(0.0445578 0.000367144 0)
(0.0447498 0.00052556 0)
(0.0449996 0.000678718 0)
(0.045303 0.000827466 0)
(0.0456559 0.000972213 0)
(0.0460548 0.00111357 0)
(0.0464961 0.00125186 0)
(0.0469769 0.00138753 0)
(0.0474941 0.00152084 0)
(0.048045 0.00165209 0)
(0.0486271 0.00178149 0)
(0.0492381 0.00190924 0)
(0.0498757 0.00203548 0)
(0.0505378 0.00216034 0)
(0.0512225 0.00228389 0)
(0.051928 0.0024062 0)
(0.0526523 0.00252726 0)
(0.0533939 0.0026471 0)
(0.0541511 0.00276565 0)
(0.0549223 0.00288286 0)
(0.0557059 0.00299862 0)
(0.0565006 0.0031128 0)
(0.0573047 0.00322526 0)
(0.0581169 0.00333582 0)
(0.0589357 0.00344425 0)
(0.0597598 0.00355033 0)
(0.0605877 0.0036538 0)
(0.0614181 0.00375439 0)
(0.0622496 0.00385179 0)
(0.0630808 0.00394569 0)
(0.0639104 0.00403576 0)
(0.064737 0.00412165 0)
(0.0655594 0.00420302 0)
(0.0663761 0.00427951 0)
(0.067186 0.00435077 0)
(0.0679877 0.00441644 0)
(0.0687801 0.00447619 0)
(0.0695618 0.00452968 0)
(0.0703318 0.00457659 0)
(0.0710888 0.00461664 0)
(0.0718319 0.00464955 0)
(0.07256 0.00467509 0)
(0.073272 0.00469304 0)
(0.0739671 0.00470324 0)
(0.0746444 0.00470555 0)
(0.0753032 0.00469987 0)
(0.0759427 0.00468617 0)
(0.0765622 0.00466443 0)
(0.0771612 0.0046347 0)
(0.0777392 0.00459706 0)
(0.0782958 0.00455165 0)
(0.0788306 0.00449864 0)
(0.0793433 0.00443826 0)
(0.0798338 0.00437076 0)
(0.080302 0.00429644 0)
(0.0807477 0.00421564 0)
(0.081171 0.00412872 0)
(0.081572 0.00403609 0)
(0.0819509 0.00393815 0)
(0.0823078 0.00383535 0)
(0.082643 0.00372815 0)
(0.0829567 0.00361703 0)
(0.0832495 0.00350244 0)
(0.0835216 0.00338489 0)
(0.0837734 0.00326485 0)
(0.0840055 0.0031428 0)
(0.0842184 0.00301922 0)
(0.0844124 0.00289457 0)
(0.0845883 0.0027693 0)
(0.0847465 0.00264384 0)
(0.0848876 0.00251862 0)
(0.0850121 0.00239402 0)
(0.0851208 0.00227043 0)
(0.085214 0.0021482 0)
(0.0852925 0.00202766 0)
(0.0853569 0.0019091 0)
(0.0854076 0.00179283 0)
(0.0854453 0.00167907 0)
(0.0854706 0.00156808 0)
(0.085484 0.00146004 0)
(0.0854862 0.00135515 0)
(0.0854775 0.00125354 0)
(0.0854587 0.00115536 0)
(0.0854302 0.00106072 0)
(0.0853925 0.000969695 0)
(0.0853461 0.000882359 0)
(0.0852916 0.000798757 0)
(0.0852293 0.000718918 0)
(0.0851599 0.000642853 0)
(0.0850837 0.000570555 0)
(0.0850011 0.000502006 0)
(0.0849127 0.000437169 0)
(0.0848187 0.000376002 0)
(0.0847197 0.000318439 0)
(0.0846159 0.000264422 0)
(0.0845078 0.000213857 0)
(0.0843958 0.00016668 0)
(0.0842801 0.000122763 0)
(0.0841611 8.20568e-05 0)
(0.0840391 4.43824e-05 0)
(0.0839145 9.72901e-06 0)
(0.0837875 -2.21517e-05 0)
(0.0836584 -5.12015e-05 0)
(0.0835273 -7.77658e-05 0)
(0.0833948 -0.000101686 0)
(0.0832608 -0.000123421 0)
(0.0831258 -0.000142715 0)
(0.0829899 -0.000160086 0)
(0.0828529 -0.000175299 0)
(0.0827166 -0.000188717 0)
(0.0825773 -0.000200445 0)
(0.0824429 -0.000210273 0)
(0.0822996 -0.000219029 0)
(0.0821717 -0.00022584 0)
(0.0820197 -0.000231431 0)
(0.0819045 -0.000236724 0)
(0.0817371 -0.000240497 0)
(0.081649 -0.00024251 0)
(0.0814458 -0.000245948 0)
(0.0266253 -0.000808279 0)
(0.0263775 -0.000672391 0)
(0.0262076 -0.000543155 0)
(0.0261124 -0.000419379 0)
(0.0260847 -0.000300497 0)
(0.0261209 -0.000185372 0)
(0.0262159 -7.36944e-05 0)
(0.0263663 3.54141e-05 0)
(0.0265682 0.000142186 0)
(0.0268185 0.000247255 0)
(0.0271142 0.000350818 0)
(0.0274526 0.000453326 0)
(0.0278311 0.000554943 0)
(0.0282476 0.000655988 0)
(0.0286998 0.000756594 0)
(0.0291858 0.000856983 0)
(0.0297038 0.000957256 0)
(0.030252 0.00105756 0)
(0.030829 0.00115797 0)
(0.0314331 0.00125857 0)
(0.0320629 0.0013594 0)
(0.0327172 0.0014605 0)
(0.0333946 0.00156187 0)
(0.0340938 0.00166351 0)
(0.0348137 0.00176538 0)
(0.035553 0.00186743 0)
(0.0363107 0.00196958 0)
(0.0370856 0.00207174 0)
(0.0378766 0.00217379 0)
(0.0386825 0.00227559 0)
(0.0395023 0.00237697 0)
(0.0403348 0.00247776 0)
(0.0411788 0.00257774 0)
(0.0420332 0.00267668 0)
(0.0428969 0.00277433 0)
(0.0437686 0.00287041 0)
(0.0446471 0.00296464 0)
(0.0455312 0.0030567 0)
(0.0464197 0.00314627 0)
(0.0473113 0.00323301 0)
(0.0482046 0.00331657 0)
(0.0490985 0.00339659 0)
(0.0499915 0.00347272 0)
(0.0508823 0.00354459 0)
(0.0517697 0.00361184 0)
(0.0526523 0.00367413 0)
(0.0535288 0.00373111 0)
(0.0543979 0.00378246 0)
(0.0552583 0.00382787 0)
(0.0561088 0.00386706 0)
(0.056948 0.00389978 0)
(0.0577749 0.00392581 0)
(0.0585882 0.00394495 0)
(0.0593869 0.00395705 0)
(0.0601699 0.003962 0)
(0.0609362 0.00395972 0)
(0.0616849 0.00395019 0)
(0.0624151 0.00393341 0)
(0.0631259 0.00390945 0)
(0.0638168 0.00387841 0)
(0.0644869 0.00384042 0)
(0.0651358 0.00379567 0)
(0.0657628 0.00374438 0)
(0.0663677 0.00368682 0)
(0.06695 0.00362327 0)
(0.0675095 0.00355405 0)
(0.068046 0.00347953 0)
(0.0685592 0.00340006 0)
(0.0690493 0.00331606 0)
(0.0695161 0.00322793 0)
(0.0699598 0.00313609 0)
(0.0703804 0.00304097 0)
(0.0707782 0.00294302 0)
(0.0711535 0.00284266 0)
(0.0715065 0.00274034 0)
(0.0718375 0.00263648 0)
(0.072147 0.00253149 0)
(0.0724353 0.0024258 0)
(0.072703 0.0023198 0)
(0.0729505 0.00221385 0)
(0.0731784 0.00210833 0)
(0.0733872 0.00200357 0)
(0.0735774 0.00189989 0)
(0.0737496 0.00179759 0)
(0.0739045 0.00169695 0)
(0.0740426 0.00159822 0)
(0.0741645 0.00150162 0)
(0.0742709 0.00140736 0)
(0.0743624 0.00131563 0)
(0.0744396 0.00122659 0)
(0.0745032 0.00114037 0)
(0.0745537 0.00105709 0)
(0.0745919 0.000976844 0)
(0.0746182 0.000899717 0)
(0.0746333 0.000825762 0)
(0.0746378 0.00075502 0)
(0.0746323 0.000687514 0)
(0.0746173 0.000623252 0)
(0.0745935 0.000562229 0)
(0.0745613 0.000504423 0)
(0.0745213 0.000449804 0)
(0.074474 0.000398324 0)
(0.0744199 0.000349938 0)
(0.0743596 0.000304568 0)
(0.0742934 0.000262167 0)
(0.0742219 0.00022262 0)
(0.0741455 0.000185899 0)
(0.0740646 0.000151827 0)
(0.0739796 0.00012044 0)
(0.0738909 9.1445e-05 0)
(0.0737988 6.50255e-05 0)
(0.0737039 4.06618e-05 0)
(0.0736061 1.88468e-05 0)
(0.0735064 -1.38549e-06 0)
(0.0734041 -1.89278e-05 0)
(0.0733009 -3.55938e-05 0)
(0.0731949 -4.91432e-05 0)
(0.0730899 -6.28629e-05 0)
(0.0729805 -7.27022e-05 0)
(0.0728757 -8.39846e-05 0)
(0.0727622 -9.07849e-05 0)
(0.072661 -9.93296e-05 0)
(0.0725405 -0.000105231 0)
(0.0724495 -0.000109278 0)
(0.0723146 -0.000116103 0)
(0.0722452 -0.000116054 0)
(0.0720827 -0.000123884 0)
(0.0125012 -0.000616732 0)
(0.0123687 -0.000545451 0)
(0.0122875 -0.000476047 0)
(0.0122551 -0.000408839 0)
(0.0122681 -0.000342975 0)
(0.0123247 -0.000278015 0)
(0.0124222 -0.000213667 0)
(0.0125589 -0.00014944 0)
(0.0127328 -8.51944e-05 0)
(0.0129424 -2.05492e-05 0)
(0.0131862 4.45853e-05 0)
(0.0134628 0.000110475 0)
(0.013771 0.000177183 0)
(0.0141097 0.000244886 0)
(0.0144778 0.000313627 0)
(0.0148743 0.000383517 0)
(0.0152984 0.000454581 0)
(0.0157491 0.000526882 0)
(0.0162258 0.000600428 0)
(0.0167275 0.000675248 0)
(0.0172537 0.000751329 0)
(0.0178035 0.00082867 0)
(0.0183764 0.000907239 0)
(0.0189716 0.000987006 0)
(0.0195885 0.00106791 0)
(0.0202263 0.00114991 0)
(0.0208845 0.0012329 0)
(0.0215624 0.0013168 0)
(0.0222592 0.0014015 0)
(0.0229742 0.00148688 0)
(0.0237066 0.00157277 0)
(0.0244558 0.00165903 0)
(0.0252208 0.00174546 0)
(0.0260009 0.00183188 0)
(0.0267951 0.00191804 0)
(0.0276026 0.00200373 0)
(0.0284223 0.00208867 0)
(0.0292532 0.00217259 0)
(0.0300943 0.0022552 0)
(0.0309445 0.00233619 0)
(0.0318026 0.00241526 0)
(0.0326675 0.00249206 0)
(0.033538 0.00256626 0)
(0.0344128 0.00263752 0)
(0.0352905 0.0027055 0)
(0.03617 0.00276986 0)
(0.0370499 0.00283027 0)
(0.0379289 0.00288639 0)
(0.0388056 0.00293793 0)
(0.0396786 0.00298459 0)
(0.0405466 0.00302608 0)
(0.0414083 0.00306218 0)
(0.0422623 0.00309264 0)
(0.0431074 0.00311729 0)
(0.0439423 0.00313596 0)
(0.0447657 0.00314853 0)
(0.0455765 0.00315491 0)
(0.0463735 0.00315507 0)
(0.0471556 0.00314899 0)
(0.0479218 0.0031367 0)
(0.0486711 0.00311827 0)
(0.0494027 0.00309382 0)
(0.0501157 0.00306349 0)
(0.0508093 0.00302746 0)
(0.0514829 0.00298594 0)
(0.0521358 0.00293918 0)
(0.0527676 0.00288746 0)
(0.0533778 0.00283108 0)
(0.0539659 0.00277034 0)
(0.0545319 0.0027056 0)
(0.0550753 0.00263719 0)
(0.0555961 0.0025655 0)
(0.0560942 0.00249087 0)
(0.0565696 0.0024137 0)
(0.0570224 0.00233436 0)
(0.0574526 0.00225322 0)
(0.0578606 0.00217065 0)
(0.0582464 0.00208701 0)
(0.0586105 0.00200265 0)
(0.0589532 0.0019179 0)
(0.0592748 0.00183311 0)
(0.0595758 0.00174857 0)
(0.0598566 0.00166457 0)
(0.0601178 0.00158138 0)
(0.0603599 0.00149927 0)
(0.0605834 0.00141847 0)
(0.0607889 0.00133918 0)
(0.0609771 0.00126161 0)
(0.0611484 0.00118593 0)
(0.0613036 0.00111229 0)
(0.0614432 0.00104083 0)
(0.0615679 0.000971661 0)
(0.0616784 0.000904886 0)
(0.0617753 0.000840582 0)
(0.0618591 0.000778814 0)
(0.0619306 0.000719627 0)
(0.0619904 0.000663054 0)
(0.0620391 0.000609113 0)
(0.0620774 0.00055781 0)
(0.0621057 0.000509135 0)
(0.0621247 0.000463073 0)
(0.062135 0.00041959 0)
(0.0621372 0.000378654 0)
(0.0621317 0.00034021 0)
(0.0621192 0.000304217 0)
(0.0621 0.000270594 0)
(0.0620749 0.000239304 0)
(0.062044 0.000210233 0)
(0.0620081 0.00018336 0)
(0.0619675 0.000158536 0)
(0.0619226 0.000135761 0)
(0.0618738 0.000114857 0)
(0.0618215 9.58279e-05 0)
(0.0617663 7.85129e-05 0)
(0.0617079 6.28387e-05 0)
(0.0616477 4.88112e-05 0)
(0.0615842 3.60367e-05 0)
(0.0615207 2.50627e-05 0)
(0.0614527 1.46305e-05 0)
(0.0613881 6.5864e-06 0)
(0.061315 -2.21429e-06 0)
(0.0612523 -7.29229e-06 0)
(0.0611725 -1.54932e-05 0)
(0.0611154 -1.72151e-05 0)
(0.061026 -2.67483e-05 0)
(0.060981 -2.46085e-05 0)
(0.0608755 -3.55903e-05 0)
(0.00294026 -0.000489042 0)
(0.00283211 -0.000459596 0)
(0.00275464 -0.000430245 0)
(0.00270753 -0.000400675 0)
(0.00268866 -0.000370683 0)
(0.00269777 -0.000339916 0)
(0.00273343 -0.000308309 0)
(0.00279536 -0.00027558 0)
(0.00288262 -0.000241702 0)
(0.00299493 -0.000206477 0)
(0.00313167 -0.00016989 0)
(0.00329261 -0.000131807 0)
(0.0034773 -9.22189e-05 0)
(0.00368555 -5.10397e-05 0)
(0.00391706 -8.2644e-06 0)
(0.00417166 3.61599e-05 0)
(0.0044491 8.2233e-05 0)
(0.00474925 0.000129984 0)
(0.0050719 0.000179405 0)
(0.00541692 0.000230507 0)
(0.00578414 0.000283274 0)
(0.00617339 0.0003377 0)
(0.00658451 0.000393758 0)
(0.00701732 0.000451423 0)
(0.00747161 0.000510656 0)
(0.00794719 0.000571412 0)
(0.0084438 0.000633632 0)
(0.00896118 0.000697251 0)
(0.00949904 0.000762184 0)
(0.010057 0.000828341 0)
(0.0106348 0.000895611 0)
(0.011232 0.000963872 0)
(0.011848 0.00103298 0)
(0.0124825 0.00110279 0)
(0.0131347 0.00117312 0)
(0.0138042 0.00124378 0)
(0.0144903 0.00131456 0)
(0.0151922 0.00138525 0)
(0.0159091 0.00145559 0)
(0.0166402 0.00152534 0)
(0.0173847 0.00159423 0)
(0.0181414 0.00166198 0)
(0.0189095 0.00172829 0)
(0.0196878 0.00179286 0)
(0.0204753 0.0018554 0)
(0.0212707 0.0019156 0)
(0.0220728 0.00197316 0)
(0.0228804 0.00202777 0)
(0.0236923 0.00207914 0)
(0.024507 0.00212699 0)
(0.0253232 0.00217106 0)
(0.0261397 0.00221109 0)
(0.026955 0.00224684 0)
(0.0277677 0.00227813 0)
(0.0285766 0.00230476 0)
(0.0293802 0.00232659 0)
(0.0301773 0.00234349 0)
(0.0309666 0.00235538 0)
(0.0317467 0.00236219 0)
(0.0325166 0.00236392 0)
(0.0332749 0.00236056 0)
(0.0340206 0.00235218 0)
(0.0347526 0.00233883 0)
(0.0354699 0.00232064 0)
(0.0361716 0.00229774 0)
(0.0368569 0.00227031 0)
(0.0375249 0.00223854 0)
(0.0381749 0.00220265 0)
(0.0388062 0.00216287 0)
(0.0394185 0.00211947 0)
(0.040011 0.00207272 0)
(0.0405835 0.00202291 0)
(0.0411357 0.00197033 0)
(0.0416672 0.00191529 0)
(0.0421779 0.00185808 0)
(0.0426677 0.00179901 0)
(0.0431366 0.0017384 0)
(0.0435846 0.00167653 0)
(0.0440118 0.00161371 0)
(0.0444183 0.00155022 0)
(0.0448045 0.00148632 0)
(0.0451705 0.0014223 0)
(0.0455166 0.00135839 0)
(0.0458433 0.00129483 0)
(0.0461508 0.00123184 0)
(0.0464398 0.00116963 0)
(0.0467105 0.00110839 0)
(0.0469636 0.00104829 0)
(0.0471995 0.000989489 0)
(0.0474188 0.000932121 0)
(0.0476221 0.000876312 0)
(0.0478099 0.000822171 0)
(0.0479827 0.00076979 0)
(0.0481413 0.000719247 0)
(0.0482862 0.000670604 0)
(0.0484179 0.000623912 0)
(0.0485372 0.000579207 0)
(0.0486446 0.000536515 0)
(0.0487406 0.000495848 0)
(0.048826 0.000457208 0)
(0.0489012 0.000420592 0)
(0.0489668 0.000385978 0)
(0.0490235 0.000353351 0)
(0.0490717 0.000322666 0)
(0.0491119 0.000293905 0)
(0.0491448 0.000266995 0)
(0.0491708 0.00024193 0)
(0.0491903 0.000218593 0)
(0.0492039 0.000197016 0)
(0.0492121 0.000177013 0)
(0.0492152 0.000158694 0)
(0.0492137 0.000141753 0)
(0.0492078 0.000126443 0)
(0.0491984 0.000112275 0)
(0.049185 9.97065e-05 0)
(0.0491692 8.80274e-05 0)
(0.0491496 7.78805e-05 0)
(0.0491289 6.84788e-05 0)
(0.0491039 6.02649e-05 0)
(0.04908 5.31794e-05 0)
(0.04905 4.59708e-05 0)
(0.0490248 4.17914e-05 0)
(0.0489898 3.39142e-05 0)
(0.0489652 3.37176e-05 0)
(0.0489248 2.34704e-05 0)
(0.0489027 2.70074e-05 0)
(0.0488568 1.4918e-05 0)
(-0.00287719 -0.00036657 0)
(-0.00299947 -0.000359258 0)
(-0.00310609 -0.000351096 0)
(-0.00319681 -0.000342472 0)
(-0.00327225 -0.00033295 0)
(-0.0033321 -0.000322532 0)
(-0.00337667 -0.000311067 0)
(-0.00340563 -0.000298443 0)
(-0.00341908 -0.000284609 0)
(-0.00341668 -0.00026945 0)
(-0.00339837 -0.000252945 0)
(-0.00336382 -0.000235006 0)
(-0.00331287 -0.000215622 0)
(-0.00324518 -0.000194734 0)
(-0.00316053 -0.000172334 0)
(-0.0030586 -0.000148384 0)
(-0.00293913 -0.000122881 0)
(-0.00280181 -9.58022e-05 0)
(-0.00264637 -6.71469e-05 0)
(-0.00247252 -3.69031e-05 0)
(-0.00228 -5.07534e-06 0)
(-0.00206855 2.83391e-05 0)
(-0.00183792 6.33302e-05 0)
(-0.00158789 9.98907e-05 0)
(-0.00131825 0.000138002 0)
(-0.00102882 0.000177646 0)
(-0.000719456 0.000218793 0)
(-0.000390021 0.000261408 0)
(-4.04335e-05 0.000305447 0)
(0.000329359 0.000350857 0)
(0.000719364 0.000397574 0)
(0.00112955 0.000445522 0)
(0.00155982 0.000494613 0)
(0.00201004 0.000544748 0)
(0.00248002 0.000595808 0)
(0.00296951 0.000647667 0)
(0.00347818 0.000700179 0)
(0.00400566 0.000753185 0)
(0.00455149 0.000806511 0)
(0.00511517 0.000859969 0)
(0.00569609 0.000913357 0)
(0.00629362 0.000966461 0)
(0.00690701 0.00101906 0)
(0.00753547 0.00107091 0)
(0.00817813 0.00112177 0)
(0.00883406 0.0011714 0)
(0.00950226 0.00121954 0)
(0.0101817 0.00126595 0)
(0.0108712 0.00131037 0)
(0.0115696 0.00135257 0)
(0.0122758 0.00139229 0)
(0.0129885 0.00142933 0)
(0.0137063 0.00146346 0)
(0.0144281 0.0014945 0)
(0.0151524 0.00152226 0)
(0.0158779 0.00154658 0)
(0.0166032 0.00156735 0)
(0.0173271 0.00158444 0)
(0.0180482 0.00159778 0)
(0.0187652 0.00160731 0)
(0.0194768 0.001613 0)
(0.0201817 0.00161485 0)
(0.0208788 0.00161288 0)
(0.0215668 0.00160714 0)
(0.0222447 0.00159772 0)
(0.0229114 0.00158472 0)
(0.0235659 0.00156825 0)
(0.0242073 0.00154847 0)
(0.0248347 0.00152553 0)
(0.0254474 0.00149963 0)
(0.0260445 0.00147095 0)
(0.0266256 0.0014397 0)
(0.0271899 0.0014061 0)
(0.0277371 0.00137038 0)
(0.0282668 0.00133275 0)
(0.0287785 0.00129346 0)
(0.0292721 0.00125274 0)
(0.0297473 0.00121082 0)
(0.030204 0.00116792 0)
(0.0306421 0.00112427 0)
(0.0310618 0.00108009 0)
(0.031463 0.00103557 0)
(0.0318458 0.000990931 0)
(0.0322105 0.000946346 0)
(0.0325572 0.000901998 0)
(0.0328863 0.000858051 0)
(0.0331981 0.000814659 0)
(0.0334928 0.000771963 0)
(0.0337709 0.00073009 0)
(0.0340328 0.000689158 0)
(0.034279 0.000649268 0)
(0.0345099 0.000610511 0)
(0.034726 0.000572966 0)
(0.0349278 0.000536698 0)
(0.0351159 0.000501764 0)
(0.0352906 0.000468208 0)
(0.0354527 0.000436063 0)
(0.0356026 0.000405355 0)
(0.0357409 0.000376098 0)
(0.0358681 0.000348299 0)
(0.0359848 0.000321958 0)
(0.0360914 0.000297066 0)
(0.0361887 0.000273609 0)
(0.0362769 0.000251564 0)
(0.0363568 0.000230909 0)
(0.0364287 0.000211606 0)
(0.0364932 0.00019363 0)
(0.0365508 0.000176928 0)
(0.036602 0.000161476 0)
(0.0366471 0.00014721 0)
(0.0366866 0.000134096 0)
(0.0367211 0.00012209 0)
(0.0367507 0.000111099 0)
(0.0367761 0.000101182 0)
(0.0367974 9.20547e-05 0)
(0.0368153 8.40945e-05 0)
(0.0368296 7.64968e-05 0)
(0.0368415 7.04477e-05 0)
(0.0368498 6.39054e-05 0)
(0.036857 5.98825e-05 0)
(0.0368605 5.36768e-05 0)
(0.036864 5.20479e-05 0)
(0.0368639 4.507e-05 0)
(0.0368637 4.6446e-05 0)
(0.0368622 3.73251e-05 0)
(0.0368568 4.14791e-05 0)
(0.0368574 3.10124e-05 0)
(-0.00553406 -0.000228678 0)
(-0.00566698 -0.000231386 0)
(-0.00579481 -0.000233552 0)
(-0.00591672 -0.000235081 0)
(-0.00603307 -0.000235932 0)
(-0.00614306 -0.00023598 0)
(-0.00624675 -0.000235232 0)
(-0.00634341 -0.000233586 0)
(-0.00643287 -0.000231054 0)
(-0.00651447 -0.000227561 0)
(-0.00658787 -0.000223114 0)
(-0.00665246 -0.000217662 0)
(-0.0067078 -0.000211206 0)
(-0.00675329 -0.000203707 0)
(-0.00678845 -0.000195162 0)
(-0.0068127 -0.000185543 0)
(-0.00682551 -0.000174843 0)
(-0.00682632 -0.000163038 0)
(-0.0068146 -0.000150121 0)
(-0.00678979 -0.000136071 0)
(-0.00675138 -0.000120879 0)
(-0.00669882 -0.00010453 0)
(-0.00663159 -8.70137e-05 0)
(-0.00654919 -6.83191e-05 0)
(-0.00645112 -4.84404e-05 0)
(-0.0063369 -2.73713e-05 0)
(-0.00620606 -5.1121e-06 0)
(-0.00605817 1.83352e-05 0)
(-0.00589281 4.29612e-05 0)
(-0.0057096 6.87524e-05 0)
(-0.00550818 9.56869e-05 0)
(-0.00528824 0.000123736 0)
(-0.0050495 0.000152861 0)
(-0.00479172 0.000183016 0)
(-0.00451474 0.000214142 0)
(-0.00421841 0.00024617 0)
(-0.00390267 0.000279021 0)
(-0.00356751 0.000312601 0)
(-0.003213 0.000346807 0)
(-0.00283927 0.000381522 0)
(-0.0024465 0.000416618 0)
(-0.002035 0.000451955 0)
(-0.00160511 0.000487384 0)
(-0.00115727 0.000522743 0)
(-0.000691998 0.000557865 0)
(-0.000209896 0.000592574 0)
(0.000288358 0.000626691 0)
(0.000802008 0.000660029 0)
(0.00133022 0.000692405 0)
(0.00187208 0.000723632 0)
(0.00242662 0.000753529 0)
(0.00299279 0.000781918 0)
(0.0035695 0.000808631 0)
(0.00415559 0.000833505 0)
(0.00474986 0.000856393 0)
(0.00535108 0.00087716 0)
(0.00595796 0.000895683 0)
(0.00656922 0.000911861 0)
(0.00718355 0.000925606 0)
(0.00779963 0.000936852 0)
(0.00841614 0.000945551 0)
(0.00903178 0.000951676 0)
(0.00964526 0.000955218 0)
(0.0102553 0.00095619 0)
(0.0108607 0.000954623 0)
(0.0114603 0.000950567 0)
(0.0120528 0.000944089 0)
(0.0126373 0.000935273 0)
(0.0132126 0.00092422 0)
(0.0137779 0.00091104 0)
(0.0143321 0.000895859 0)
(0.0148744 0.000878811 0)
(0.0154042 0.00086004 0)
(0.0159206 0.000839697 0)
(0.0164231 0.000817935 0)
(0.0169111 0.000794914 0)
(0.0173841 0.000770793 0)
(0.0178417 0.000745733 0)
(0.0182837 0.000719893 0)
(0.0187097 0.000693427 0)
(0.0191196 0.000666488 0)
(0.0195132 0.000639223 0)
(0.0198906 0.000611773 0)
(0.0202516 0.00058427 0)
(0.0205964 0.000556842 0)
(0.0209251 0.000529606 0)
(0.0212379 0.000502672 0)
(0.021535 0.000476141 0)
(0.0218167 0.000450104 0)
(0.0220832 0.000424643 0)
(0.0223349 0.000399832 0)
(0.0225722 0.000375735 0)
(0.0227954 0.000352409 0)
(0.0230051 0.0003299 0)
(0.0232017 0.000308246 0)
(0.0233855 0.00028748 0)
(0.0235572 0.000267625 0)
(0.0237172 0.000248697 0)
(0.023866 0.000230707 0)
(0.0240041 0.000213658 0)
(0.0241321 0.00019755 0)
(0.0242503 0.000182374 0)
(0.0243595 0.000168123 0)
(0.02446 0.000154775 0)
(0.0245523 0.000142321 0)
(0.024637 0.000130723 0)
(0.0247145 0.00011998 0)
(0.0247854 0.000110029 0)
(0.02485 0.00010089 0)
(0.0249088 9.24648e-05 0)
(0.0249622 8.48082e-05 0)
(0.0250108 7.77762e-05 0)
(0.0250547 7.14651e-05 0)
(0.0250946 6.56954e-05 0)
(0.0251305 6.0569e-05 0)
(0.0251632 5.59562e-05 0)
(0.0251925 5.17967e-05 0)
(0.0252192 4.83148e-05 0)
(0.0252433 4.47707e-05 0)
(0.0252649 4.25708e-05 0)
(0.0252853 3.90294e-05 0)
(0.0253022 3.85462e-05 0)
(0.0253208 3.40667e-05 0)
(0.025332 3.58635e-05 0)
(0.025352 2.96137e-05 0)
(0.0253545 3.32442e-05 0)
(0.0253803 2.62258e-05 0)
(-0.0053603 -9.4479e-05 0)
(-0.00547273 -9.78481e-05 0)
(-0.00558622 -0.000100822 0)
(-0.0057 -0.000103639 0)
(-0.00581418 -0.000106126 0)
(-0.00592803 -0.000108361 0)
(-0.00604149 -0.000110276 0)
(-0.00615389 -0.000111877 0)
(-0.00626501 -0.000113136 0)
(-0.00637425 -0.000114036 0)
(-0.00648127 -0.000114562 0)
(-0.0065855 -0.000114694 0)
(-0.00668652 -0.00011442 0)
(-0.00678378 -0.000113721 0)
(-0.00687681 -0.000112587 0)
(-0.00696507 -0.000111 0)
(-0.00704804 -0.000108951 0)
(-0.00712518 -0.000106424 0)
(-0.00719595 -0.000103407 0)
(-0.00725981 -9.98851e-05 0)
(-0.00731619 -9.58469e-05 0)
(-0.00736455 -9.12768e-05 0)
(-0.00740431 -8.61622e-05 0)
(-0.00743492 -8.0488e-05 0)
(-0.00745579 -7.42413e-05 0)
(-0.00746636 -6.74079e-05 0)
(-0.00746607 -5.99757e-05 0)
(-0.00745434 -5.19324e-05 0)
(-0.00743061 -4.32687e-05 0)
(-0.00739434 -3.39759e-05 0)
(-0.00734498 -2.40493e-05 0)
(-0.007282 -1.34864e-05 0)
(-0.00720491 -2.28925e-06 0)
(-0.00711323 9.53617e-06 0)
(-0.00700649 2.19783e-05 0)
(-0.00688428 3.50202e-05 0)
(-0.00674623 4.86386e-05 0)
(-0.00659199 6.28035e-05 0)
(-0.00642129 7.74779e-05 0)
(-0.0062339 9.26172e-05 0)
(-0.00602965 0.00010817 0)
(-0.00580843 0.000124076 0)
(-0.00557023 0.000140268 0)
(-0.00531508 0.000156673 0)
(-0.0050431 0.00017321 0)
(-0.00475451 0.000189793 0)
(-0.0044496 0.000206329 0)
(-0.00412873 0.000222722 0)
(-0.00379238 0.000238874 0)
(-0.00344108 0.000254683 0)
(-0.00307547 0.000270048 0)
(-0.00269626 0.000284866 0)
(-0.00230424 0.00029904 0)
(-0.00190027 0.000312473 0)
(-0.00148529 0.000325074 0)
(-0.0010603 0.000336758 0)
(-0.000626337 0.000347449 0)
(-0.000184508 0.000357076 0)
(0.000264047 0.00036558 0)
(0.000718159 0.000372909 0)
(0.00117663 0.000379026 0)
(0.00163826 0.000383901 0)
(0.00210182 0.000387517 0)
(0.00256612 0.000389869 0)
(0.00302995 0.000390962 0)
(0.00349214 0.000390812 0)
(0.00395153 0.000389445 0)
(0.00440703 0.000386899 0)
(0.00485756 0.000383218 0)
(0.0053021 0.000378457 0)
(0.0057397 0.000372676 0)
(0.00616944 0.000365942 0)
(0.00659051 0.000358327 0)
(0.00700211 0.00034991 0)
(0.00740356 0.000340769 0)
(0.00779423 0.000330986 0)
(0.00817357 0.000320644 0)
(0.0085411 0.000309827 0)
(0.0088964 0.000298617 0)
(0.00923915 0.000287094 0)
(0.00956909 0.000275338 0)
(0.00988603 0.000263424 0)
(0.0101898 0.000251425 0)
(0.0104804 0.000239408 0)
(0.0107578 0.000227437 0)
(0.0110221 0.000215571 0)
(0.0112734 0.000203865 0)
(0.0115117 0.000192367 0)
(0.0117375 0.000181122 0)
(0.0119508 0.000170169 0)
(0.0121519 0.000159541 0)
(0.0123413 0.000149269 0)
(0.0125192 0.000139375 0)
(0.0126859 0.00012988 0)
(0.012842 0.000120799 0)
(0.0129878 0.000112143 0)
(0.0131238 0.000103921 0)
(0.0132503 9.61356e-05 0)
(0.0133678 8.87882e-05 0)
(0.0134768 8.18771e-05 0)
(0.0135777 7.53972e-05 0)
(0.013671 6.9342e-05 0)
(0.0137571 6.37021e-05 0)
(0.0138364 5.84672e-05 0)
(0.0139094 5.36245e-05 0)