/*--------------------------------*- C++ -*----------------------------------*\
| =========                 |                                                 |
| \\      /  F ield         | OpenFOAM: The Open Source CFD Toolbox           |
|  \\    /   O peration     | Version:  4.1                                   |
|   \\  /    A nd           | Web:      www.OpenFOAM.org                      |
|    \\/     M anipulation  |                                                 |
\*---------------------------------------------------------------------------*/
FoamFile
{
    version     2.0;
    format      ascii;
    class       volScalarField;
    location    "2550";
    object      p;
}
// * * * * * * * * * * * * * * * * * * * * * * * * * * * * * * * * * * * * * //

dimensions      [1 -1 -2 0 0 0 0];

internalField   nonuniform List<scalar> 
1275
(
0.712258
0.71221
0.712204
0.712161
0.712148
0.712105
0.712089
0.712038
0.712022
0.711954
0.712271
0.712219
0.712213
0.712168
0.712157
0.712113
0.712101
0.712055
0.712046
0.712
0.712288
0.712234
0.712229
0.712182
0.712173
0.712129
0.712117
0.712074
0.712062
0.712024
0.712308
0.712252
0.712248
0.712201
0.712193
0.71215
0.712141
0.712101
0.712094
0.71206
0.712327
0.712271
0.712267
0.71222
0.712213
0.712172
0.712162
0.712126
0.712116
0.712086
0.712343
0.712288
0.712284
0.712239
0.712231
0.712193
0.712183
0.712149
0.71214
0.712111
0.712352
0.712299
0.712294
0.712252
0.712243
0.712207
0.712196
0.712164
0.712153
0.712126
0.712354
0.712306
0.7123
0.71226
0.712251
0.712215
0.712204
0.712173
0.712161
0.712135
0.712348
0.712305
0.712299
0.712261
0.712251
0.712217
0.712204
0.712174
0.712161
0.712136
0.712079
0.712085
0.712091
0.712097
0.712104
0.712111
0.712118
0.712126
0.712134
0.712142
0.71215
0.712159
0.712169
0.712179
0.712189
0.7122
0.712211
0.712223
0.712236
0.712249
0.712264
0.712279
0.712295
0.712311
0.712329
0.712349
0.712369
0.712391
0.712414
0.712438
0.712464
0.712492
0.712521
0.712552
0.712585
0.712619
0.712654
0.712691
0.712728
0.712766
0.712805
0.712844
0.712882
0.71292
0.712956
0.712991
0.713024
0.713055
0.713083
0.713109
0.713132
0.713152
0.713169
0.713183
0.713195
0.713205
0.713212
0.713218
0.713222
0.713225
0.713227
0.713228
0.713229
0.713229
0.713229
0.71323
0.71323
0.71323
0.71323
0.713231
0.713232
0.713233
0.713235
0.713237
0.713239
0.713242
0.713245
0.713248
0.71193
0.711982
0.711975
0.711997
0.711991
0.712
0.711996
0.712
0.711997
0.711999
0.711997
0.711998
0.711997
0.711997
0.711997
0.711998
0.711998
0.711998
0.711999
0.712
0.712001
0.712002
0.712003
0.712005
0.712006
0.712008
0.71201
0.712012
0.712015
0.712017
0.71202
0.712023
0.712026
0.71203
0.712033
0.712037
0.712041
0.712045
0.71205
0.712055
0.712059
0.712065
0.71207
0.712076
0.712081
0.712089
0.712094
0.712102
0.712109
0.712117
0.712124
0.712133
0.712142
0.712151
0.71216
0.71217
0.712181
0.712192
0.712204
0.712216
0.712229
0.712242
0.712257
0.712272
0.712287
0.712304
0.712322
0.71234
0.712359
0.71238
0.712402
0.712424
0.712448
0.712473
0.712499
0.712527
0.712555
0.712585
0.712616
0.712648
0.71268
0.712714
0.712748
0.712781
0.712815
0.712849
0.712882
0.712914
0.712944
0.712973
0.713001
0.713026
0.713049
0.713069
0.713088
0.713104
0.713118
0.713129
0.713139
0.713148
0.713155
0.71316
0.713165
0.713168
0.713171
0.713174
0.713176
0.713178
0.71318
0.713182
0.713184
0.713187
0.713189
0.713192
0.713195
0.713198
0.713201
0.713205
0.713209
0.713213
0.713217
0.713221
0.713226
0.712004
0.712008
0.712002
0.712007
0.712001
0.712004
0.711999
0.712
0.711997
0.711998
0.711996
0.711997
0.711996
0.711997
0.711996
0.711997
0.711997
0.711998
0.711999
0.712
0.712001
0.712003
0.712004
0.712006
0.712008
0.71201
0.712013
0.712015
0.712018
0.712021
0.712024
0.712028
0.712031
0.712035
0.712039
0.712044
0.712048
0.712053
0.712058
0.712064
0.71207
0.712076
0.712082
0.712089
0.712096
0.712103
0.712111
0.712119
0.712127
0.712136
0.712146
0.712156
0.712166
0.712177
0.712189
0.712201
0.712213
0.712226
0.71224
0.712255
0.71227
0.712286
0.712303
0.712321
0.712339
0.712358
0.712378
0.712399
0.712421
0.712444
0.712468
0.712492
0.712518
0.712544
0.712571
0.712599
0.712628
0.712657
0.712687
0.712717
0.712747
0.712777
0.712807
0.712836
0.712865
0.712893
0.712919
0.712944
0.712968
0.71299
0.71301
0.713029
0.713046
0.71306
0.713074
0.713085
0.713095
0.713103
0.71311
0.713117
0.713122
0.713127
0.713131
0.713135
0.713139
0.713143
0.713147
0.71315
0.713154
0.713158
0.713162
0.713166
0.713169
0.713174
0.713178
0.713182
0.713186
0.713191
0.713195
0.7132
0.713205
0.71321
0.713216
0.712013
0.712013
0.712007
0.712012
0.712007
0.712011
0.712007
0.712008
0.712005
0.712005
0.712002
0.712002
0.712001
0.712001
0.712
0.712
0.712
0.712001
0.712001
0.712003
0.712004
0.712005
0.712007
0.712009
0.712011
0.712013
0.712016
0.712019
0.712022
0.712026
0.712029
0.712033
0.712038
0.712042
0.712047
0.712052
0.712057
0.712063
0.712069
0.712076
0.712082
0.712089
0.712097
0.712105
0.712113
0.712122
0.712131
0.71214
0.71215
0.712161
0.712172
0.712184
0.712196
0.712209
0.712223
0.712237
0.712252
0.712267
0.712283
0.7123
0.712318
0.712336
0.712356
0.712376
0.712396
0.712418
0.71244
0.712463
0.712487
0.712511
0.712536
0.712562
0.712588
0.712615
0.712642
0.712669
0.712697
0.712724
0.712752
0.712779
0.712806
0.712832
0.712857
0.712882
0.712905
0.712928
0.712949
0.712968
0.712986
0.713003
0.713018
0.713032
0.713044
0.713055
0.713064
0.713073
0.713081
0.713088
0.713094
0.713101
0.713106
0.713112
0.713117
0.713122
0.713126
0.713131
0.713135
0.71314
0.713144
0.713148
0.713153
0.713157
0.713162
0.713167
0.713171
0.713176
0.713181
0.713186
0.713191
0.713196
0.713201
0.713206
0.713212
0.712058
0.712045
0.71204
0.712034
0.712027
0.712024
0.712018
0.712015
0.712011
0.712009
0.712006
0.712004
0.712003
0.712002
0.712001
0.712001
0.712001
0.712002
0.712002
0.712004
0.712005
0.712007
0.712009
0.712011
0.712014
0.712017
0.71202
0.712023
0.712027
0.712031
0.712036
0.71204
0.712045
0.71205
0.712056
0.712062
0.712068
0.712075
0.712082
0.712089
0.712097
0.712105
0.712114
0.712123
0.712132
0.712142
0.712153
0.712164
0.712176
0.712188
0.712201
0.712214
0.712228
0.712243
0.712259
0.712275
0.712292
0.712309
0.712328
0.712347
0.712367
0.712387
0.712408
0.71243
0.712453
0.712476
0.7125
0.712524
0.712549
0.712574
0.712599
0.712625
0.712651
0.712677
0.712703
0.712729
0.712755
0.71278
0.712804
0.712828
0.712852
0.712874
0.712895
0.712915
0.712934
0.712952
0.712968
0.712983
0.712997
0.71301
0.713022
0.713033
0.713043
0.713053
0.713061
0.713069
0.713076
0.713083
0.713089
0.713095
0.7131
0.713106
0.713111
0.713116
0.713121
0.713126
0.713131
0.713136
0.713141
0.713146
0.713151
0.713156
0.713161
0.713165
0.71317
0.713175
0.71318
0.713185
0.71319
0.713195
0.7132
0.713206
0.713211
0.712078
0.71206
0.712054
0.712044
0.712038
0.712031
0.712026
0.712021
0.712017
0.712013
0.71201
0.712008
0.712006
0.712004
0.712003
0.712003
0.712003
0.712003
0.712004
0.712005
0.712007
0.712009
0.712011
0.712013
0.712016
0.71202
0.712023
0.712027
0.712031
0.712036
0.712041
0.712046
0.712052
0.712058
0.712064
0.71207
0.712077
0.712085
0.712093
0.712101
0.71211
0.712119
0.712128
0.712139
0.712149
0.712161
0.712172
0.712185
0.712198
0.712212
0.712226
0.712241
0.712256
0.712273
0.71229
0.712307
0.712326
0.712345
0.712365
0.712385
0.712406
0.712428
0.71245
0.712473
0.712497
0.712521
0.712545
0.71257
0.712595
0.71262
0.712645
0.712671
0.712696
0.712721
0.712745
0.712769
0.712792
0.712815
0.712837
0.712858
0.712878
0.712897
0.712915
0.712932
0.712948
0.712963
0.712977
0.712991
0.713003
0.713014
0.713024
0.713034
0.713042
0.71305
0.713058
0.713065
0.713072
0.713079
0.713086
0.713092
0.713098
0.713104
0.71311
0.713116
0.713121
0.713126
0.713131
0.713136
0.713141
0.713146
0.713151
0.713155
0.71316
0.713165
0.71317
0.713175
0.71318
0.713185
0.71319
0.713195
0.7132
0.713206
0.713211
0.712103
0.712083
0.712076
0.712061
0.712054
0.712043
0.712037
0.712029
0.712024
0.712018
0.712014
0.71201
0.712008
0.712006
0.712005
0.712004
0.712004
0.712004
0.712005
0.712006
0.712008
0.71201
0.712012
0.712015
0.712019
0.712022
0.712026
0.71203
0.712035
0.71204
0.712045
0.712051
0.712057
0.712064
0.712071
0.712078
0.712085
0.712093
0.712102
0.712111
0.71212
0.71213
0.712141
0.712152
0.712163
0.712175
0.712188
0.712201
0.712215
0.71223
0.712245
0.712261
0.712278
0.712295
0.712313
0.712332
0.712351
0.712371
0.712392
0.712413
0.712435
0.712458
0.71248
0.712504
0.712528
0.712552
0.712576
0.712601
0.712625
0.71265
0.712674
0.712698
0.712722
0.712745
0.712768
0.71279
0.712812
0.712833
0.712853
0.712872
0.71289
0.712907
0.712924
0.712939
0.712953
0.712966
0.712979
0.712991
0.713001
0.713012
0.713022
0.713031
0.71304
0.713049
0.713057
0.713065
0.713073
0.71308
0.713086
0.713092
0.713098
0.713104
0.713109
0.713115
0.71312
0.713125
0.713131
0.713136
0.713141
0.713146
0.713151
0.713156
0.71316
0.713165
0.71317
0.713175
0.71318
0.713185
0.71319
0.713195
0.713201
0.713206
0.713211
0.712115
0.712094
0.712084
0.712068
0.712059
0.712047
0.71204
0.712031
0.712025
0.712019
0.712015
0.71201
0.712008
0.712005
0.712004
0.712003
0.712003
0.712003
0.712004
0.712005
0.712007
0.71201
0.712012
0.712015
0.712019
0.712023
0.712027
0.712032
0.712036
0.712042
0.712047
0.712053
0.71206
0.712067
0.712074
0.712081
0.712089
0.712098
0.712107
0.712116
0.712126
0.712136
0.712147
0.712158
0.71217
0.712183
0.712196
0.71221
0.712224
0.712239
0.712255
0.712271
0.712288
0.712306
0.712324
0.712343
0.712363
0.712383
0.712404
0.712426
0.712448
0.71247
0.712493
0.712516
0.71254
0.712564
0.712588
0.712612
0.712636
0.71266
0.712683
0.712707
0.71273
0.712752
0.712774
0.712795
0.712816
0.712835
0.712854
0.712872
0.71289
0.712906
0.712922
0.712936
0.712951
0.712964
0.712977
0.712989
0.713001
0.713011
0.713022
0.713031
0.71304
0.713048
0.713056
0.713064
0.713071
0.713078
0.713084
0.713091
0.713097
0.713103
0.713109
0.713115
0.71312
0.713125
0.713131
0.713136
0.713141
0.713145
0.71315
0.713155
0.71316
0.713165
0.71317
0.713175
0.71318
0.713185
0.71319
0.713195
0.713201
0.713206
0.713212
0.712123
0.712102
0.712091
0.712074
0.712064
0.712051
0.712043
0.712033
0.712027
0.71202
0.712016
0.712011
0.712009
0.712006
0.712005
0.712003
0.712003
0.712003
0.712005
0.712006
0.712008
0.71201
0.712013
0.712016
0.71202
0.712024
0.712028
0.712033
0.712038
0.712043
0.712049
0.712055
0.712061
0.712068
0.712076
0.712083
0.712091
0.7121
0.712109
0.712118
0.712128
0.712139
0.71215
0.712162
0.712174
0.712186
0.7122
0.712214
0.712228
0.712243
0.712259
0.712276
0.712293
0.712311
0.712329
0.712348
0.712368
0.712388
0.712409
0.71243
0.712452
0.712475
0.712497
0.71252
0.712544
0.712567
0.712591
0.712615
0.712638
0.712661
0.712685
0.712707
0.71273
0.712752
0.712773
0.712794
0.712815
0.712834
0.712853
0.712872
0.712889
0.712906
0.712921
0.712936
0.71295
0.712964
0.712976
0.712988
0.712999
0.71301
0.71302
0.713029
0.713039
0.713047
0.713056
0.713063
0.713071
0.713078
0.713085
0.713091
0.713097
0.713103
0.713109
0.713114
0.71312
0.713125
0.71313
0.713135
0.71314
0.713145
0.71315
0.713155
0.71316
0.713165
0.71317
0.713175
0.71318
0.713185
0.71319
0.713195
0.713201
0.713206
0.713212
0.712123
0.712102
0.71209
0.712073
0.712063
0.71205
0.712042
0.712032
0.712025
0.712018
0.712014
0.712009
0.712006
0.712003
0.712002
0.712001
0.712001
0.712001
0.712002
0.712004
0.712006
0.712008
0.712011
0.712014
0.712018
0.712022
0.712026
0.712031
0.712036
0.712041
0.712047
0.712053
0.71206
0.712067
0.712074
0.712082
0.71209
0.712098
0.712107
0.712117
0.712127
0.712137
0.712148
0.71216
0.712172
0.712185
0.712198
0.712212
0.712226
0.712241
0.712257
0.712273
0.71229
0.712308
0.712326
0.712345
0.712365
0.712385
0.712405
0.712427
0.712448
0.712471
0.712493
0.712516
0.712539
0.712563
0.712587
0.71261
0.712634
0.712657
0.712681
0.712704
0.712726
0.712748
0.71277
0.712791
0.712812
0.712831
0.71285
0.712869
0.712886
0.712903
0.712918
0.712934
0.712948
0.712961
0.712974
0.712987
0.712998
0.713009
0.713019
0.713029
0.713038
0.713047
0.713055
0.713063
0.71307
0.713077
0.713084
0.71309
0.713097
0.713103
0.713108
0.713114
0.713119
0.713125
0.71313
0.713135
0.71314
0.713145
0.71315
0.713155
0.71316
0.713165
0.71317
0.713175
0.71318
0.713185
0.71319
0.713195
0.7132
0.713206
0.713211
)
;

boundaryField
{
    inlet
    {
        type            zeroGradient;
    }
    outlet
    {
        type            fixedValue;
        value           nonuniform 0();
    }
    walls
    {
        type            zeroGradient;
    }
    symwall
    {
        type            empty;
    }
    procBoundary2to0
    {
        type            processor;
        value           nonuniform List<scalar> 
133
(
0.712075
0.71208
0.712086
0.712091
0.712097
0.712103
0.71211
0.712117
0.712124
0.712131
0.712139
0.712147
0.712155
0.712163
0.712173
0.712182
0.712192
0.712202
0.712213
0.712225
0.712237
0.71225
0.712264
0.712279
0.712294
0.712311
0.712329
0.712349
0.712369
0.712392
0.712416
0.712442
0.71247
0.7125
0.712532
0.712566
0.712603
0.712641
0.712681
0.712722
0.712765
0.712808
0.712853
0.712897
0.71294
0.712983
0.713024
0.713063
0.713099
0.713133
0.713164
0.713192
0.713216
0.713237
0.713254
0.713269
0.71328
0.713289
0.713295
0.7133
0.713302
0.713303
0.713303
0.713302
0.7133
0.713298
0.713295
0.713293
0.713291
0.713289
0.713287
0.713285
0.713284
0.713283
0.713283
0.713283
0.713283
0.712249
0.712207
0.7122
0.712159
0.712146
0.712103
0.712088
0.712037
0.712027
0.711954
0.711971
0.711998
0.711991
0.711997
0.711991
0.711994
0.711991
0.711993
0.711991
0.711992
0.711991
0.711992
0.711992
0.711993
0.711993
0.711994
0.711994
0.711995
0.711996
0.711997
0.711998
0.712
0.712001
0.712003
0.712004
0.712006
0.712008
0.71201
0.712013
0.712015
0.712018
0.712021
0.712023
0.712027
0.71203
0.712033
0.712037
0.712041
0.712045
0.712049
0.712054
0.712058
0.712063
0.712068
0.712074
0.712074
)
;
    }
    procBoundary2to1
    {
        type            processor;
        value           uniform 0.713285;
    }
    procBoundary2to3
    {
        type            processor;
        value           nonuniform List<scalar> 10(0.713252 0.713231 0.713221 0.713218 0.713217 0.713217 0.713217 0.713217 0.713217 0.713217);
    }
}


// ************************************************************************* //
