/*--------------------------------*- C++ -*----------------------------------*\
| =========                 |                                                 |
| \\      /  F ield         | OpenFOAM: The Open Source CFD Toolbox           |
|  \\    /   O peration     | Version:  4.1                                   |
|   \\  /    A nd           | Web:      www.OpenFOAM.org                      |
|    \\/     M anipulation  |                                                 |
\*---------------------------------------------------------------------------*/
FoamFile
{
    version     2.0;
    format      ascii;
    class       volVectorField;
    location    "0.018";
    object      U;
}
// * * * * * * * * * * * * * * * * * * * * * * * * * * * * * * * * * * * * * //

dimensions      [0 1 -1 0 0 0 0];

internalField   nonuniform List<vector> 
441
(
(-0.000114607 0.000100153 0)
(-0.000539577 0.000295119 0)
(-0.0011339 0.000466708 0)
(-0.00183525 0.000568172 0)
(-0.00257372 0.000599735 0)
(-0.00328756 0.000573623 0)
(-0.00392809 0.000503921 0)
(-0.00445964 0.000403138 0)
(-0.00485745 0.000281359 0)
(-0.00510528 0.000146483 0)
(-0.00519367 4.92086e-06 0)
(-0.00511883 -0.000137584 0)
(-0.00488241 -0.00027512 0)
(-0.00449217 -0.000400785 0)
(-0.00396329 -0.000505927 0)
(-0.00332048 -0.000579556 0)
(-0.00260036 -0.000608275 0)
(-0.00185342 -0.00057736 0)
(-0.0011437 -0.000474429 0)
(-0.000543077 -0.000299765 0)
(-0.000114957 -0.000101356 0)
(-0.00034581 0.00050682 0)
(-0.00151678 0.00137222 0)
(-0.00306241 0.00202737 0)
(-0.00483134 0.00239509 0)
(-0.00666351 0.00249062 0)
(-0.00841831 0.00236261 0)
(-0.00998436 0.0020654 0)
(-0.0112794 0.0016474 0)
(-0.0122463 0.0011477 0)
(-0.0128473 0.000597017 0)
(-0.0130607 2.02673e-05 0)
(-0.0128778 -0.000560213 0)
(-0.0123027 -0.00112143 0)
(-0.0113532 -0.00163652 0)
(-0.0100648 -0.00207182 0)
(-0.00849437 -0.00238468 0)
(-0.0067261 -0.00252323 0)
(-0.00487524 -0.00243061 0)
(-0.00308723 -0.0020576 0)
(-0.00152657 -0.00139086 0)
(-0.000347189 -0.000512027 0)
(-0.00057273 0.00111702 0)
(-0.00238251 0.00289514 0)
(-0.00468896 0.00415216 0)
(-0.00727644 0.00482757 0)
(-0.00992593 0.00497529 0)
(-0.0124464 0.00469451 0)
(-0.0146865 0.0040904 0)
(-0.016534 0.00325564 0)
(-0.0179109 0.00226497 0)
(-0.0187662 0.00117702 0)
(-0.0190699 3.93424e-05 0)
(-0.0188104 -0.00110556 0)
(-0.0179928 -0.00221388 0)
(-0.0166417 -0.00323441 0)
(-0.0148046 -0.00410284 0)
(-0.0125593 -0.00473757 0)
(-0.0100201 -0.00503919 0)
(-0.00734382 -0.0048976 0)
(-0.00472832 -0.00421225 0)
(-0.00239906 -0.00293269 0)
(-0.000575589 -0.0011278 0)
(-0.000769449 0.00190739 0)
(-0.00312708 0.00481158 0)
(-0.00607241 0.0067748 0)
(-0.0093336 0.00779023 0)
(-0.0126429 0.0079741 0)
(-0.0157712 0.0074914 0)
(-0.0185388 0.00650873 0)
(-0.0208145 0.00517066 0)
(-0.0225073 0.00359304 0)
(-0.0235586 0.00186624 0)
(-0.023934 6.30511e-05 0)
(-0.0236197 -0.00175166 0)
(-0.022621 -0.00351107 0)
(-0.0209647 -0.00513661 0)
(-0.0187051 -0.00652899 0)
(-0.0159316 -0.00756146 0)
(-0.0127787 -0.00807855 0)
(-0.00943277 -0.00790544 0)
(-0.00613204 -0.00687447 0)
(-0.0031534 -0.00487452 0)
(-0.00077451 -0.00192576 0)
(-0.000947236 0.00286119 0)
(-0.00380577 0.00709025 0)
(-0.00733469 0.00986095 0)
(-0.0112066 0.0112463 0)
(-0.015106 0.0114475 0)
(-0.0187693 0.0107126 0)
(-0.0219943 0.00928187 0)
(-0.0246362 0.00736003 0)
(-0.0265977 0.00510918 0)
(-0.0278164 0.0026542 0)
(-0.0282566 9.44386e-05 0)
(-0.0279029 -0.00248235 0)
(-0.0267591 -0.00498562 0)
(-0.0248511 -0.0073078 0)
(-0.0222343 -0.00931109 0)
(-0.0190041 -0.0108174 0)
(-0.0153082 -0.0116056 0)
(-0.0113575 -0.0114226 0)
(-0.0074283 -0.0100152 0)
(-0.00384906 -0.00718904 0)
(-0.000956219 -0.0028907 0)
(-0.00112471 0.00397739 0)
(-0.00449029 0.00973313 0)
(-0.00861059 0.0134162 0)
(-0.0130974 0.0152008 0)
(-0.0175834 0.0153964 0)
(-0.0217697 0.0143538 0)
(-0.025434 0.0124018 0)
(-0.0284227 0.00981504 0)
(-0.0306363 0.00680719 0)
(-0.0320136 0.00353974 0)
(-0.0325197 0.000138512 0)
(-0.0321384 -0.00328699 0)
(-0.0308703 -0.00662348 0)
(-0.0287365 -0.00973401 0)
(-0.0257884 -0.0124393 0)
(-0.0221212 -0.0145031 0)
(-0.0178916 -0.0156269 0)
(-0.013333 -0.0154621 0)
(-0.00876119 -0.0136488 0)
(-0.00456285 -0.00988508 0)
(-0.00114062 -0.0040245 0)
(-0.00132026 0.00527276 0)
(-0.00525002 0.0127781 0)
(-0.0100251 0.0174872 0)
(-0.0151846 0.0196984 0)
(-0.0203014 0.0198564 0)
(-0.0250388 0.0184393 0)
(-0.0291563 0.0158828 0)
(-0.0324961 0.0125433 0)
(-0.0349623 0.0086919 0)
(-0.0364999 0.00452801 0)
(-0.0370779 0.000202147 0)
(-0.03668 -0.00415761 0)
(-0.0353017 -0.00841833 0)
(-0.032955 -0.012415 0)
(-0.0296803 -0.0159245 0)
(-0.0255662 -0.0186446 0)
(-0.0207723 -0.0201849 0)
(-0.0155525 -0.0200795 0)
(-0.0102668 -0.0178341 0)
(-0.00537046 -0.0130108 0)
(-0.00134767 -0.00534852 0)
(-0.00154998 0.00678108 0)
(-0.00614588 0.0162961 0)
(-0.0116847 0.0221562 0)
(-0.0176138 0.0248146 0)
(-0.0234351 0.0248868 0)
(-0.0287714 0.0230097 0)
(-0.0333674 0.0197494 0)
(-0.0370686 0.0155584 0)
(-0.0397908 0.0107716 0)
(-0.0414916 0.00562637 0)
(-0.042149 0.000294027 0)
(-0.0417477 -0.00508486 0)
(-0.0402756 -0.0103637 0)
(-0.0377295 -0.0153531 0)
(-0.0341309 -0.0197851 0)
(-0.0295509 -0.0232831 0)
(-0.0241436 -0.0253467 0)
(-0.018179 -0.0253644 0)
(-0.0120651 -0.0226702 0)
(-0.00634071 -0.0166521 0)
(-0.00159551 -0.00690329 0)
(-0.00182691 0.00855175 0)
(-0.00722713 0.0203869 0)
(-0.0136709 0.0275331 0)
(-0.0204874 0.0306441 0)
(-0.0270944 0.0305556 0)
(-0.0330735 0.0281055 0)
(-0.0381625 0.0240205 0)
(-0.0422216 0.0188664 0)
(-0.0451903 0.0130482 0)
(-0.047049 0.00683925 0)
(-0.0477905 0.000424322 0)
(-0.047403 -0.00605328 0)
(-0.0458641 -0.0124433 0)
(-0.0431484 -0.0185393 0)
(-0.0392461 -0.0240303 0)
(-0.0341968 -0.0284571 0)
(-0.0281337 -0.0311874 0)
(-0.0213337 -0.0314271 0)
(-0.0142534 -0.0282883 0)
(-0.00753254 -0.0209282 0)
(-0.00189968 -0.0087477 0)
(-0.0021593 0.010648 0)
(-0.00852513 0.0251718 0)
(-0.0160274 0.0337416 0)
(-0.0238437 0.0372813 0)
(-0.0312944 0.0369168 0)
(-0.0379251 0.0337441 0)
(-0.0434814 0.0286886 0)
(-0.0478565 0.0224489 0)
(-0.0510307 0.015505 0)
(-0.0530207 0.00816105 0)
(-0.0538429 0.000603611 0)
(-0.0534917 -0.00703613 0)
(-0.0519328 -0.0146196 0)
(-0.0491092 -0.0219362 0)
(-0.0449657 -0.0286377 0)
(-0.0394892 -0.0341765 0)
(-0.0327697 -0.0377647 0)
(-0.0250707 -0.0383778 0)
(-0.0168911 -0.0348369 0)
(-0.00898796 -0.0259856 0)
(-0.00227137 -0.0109579 0)
(-0.00254674 0.0131438 0)
(-0.0100384 0.0307816 0)
(-0.0187305 0.0408976 0)
(-0.0276101 0.044791 0)
(-0.0358931 0.043978 0)
(-0.0431042 0.0398882 0)
(-0.049023 0.0336916 0)
(-0.0536025 0.0262402 0)
(-0.0568866 0.0180905 0)
(-0.0589447 0.0095668 0)
(-0.0598275 0.000840447 0)
(-0.0595408 -0.0079904 0)
(-0.0580361 -0.0168206 0)
(-0.0552172 -0.0254555 0)
(-0.0509655 -0.0335232 0)
(-0.0451901 -0.0403872 0)
(-0.0379034 -0.0450801 0)
(-0.029322 -0.0462911 0)
(-0.0199649 -0.0424561 0)
(-0.0107149 -0.0319846 0)
(-0.00271302 -0.0136241 0)
(-0.00297238 0.0161169 0)
(-0.0117036 0.0373343 0)
(-0.0216338 0.0490701 0)
(-0.0315213 0.0531597 0)
(-0.0404849 0.0516494 0)
(-0.0480627 0.0463989 0)
(-0.054109 0.0388744 0)
(-0.058673 0.0300981 0)
(-0.0618889 0.0206975 0)
(-0.0638975 0.0109998 0)
(-0.0647946 0.00113697 0)
(-0.0646031 -0.00885281 0)
(-0.0632613 -0.0189265 0)
(-0.0606274 -0.0289337 0)
(-0.0565044 -0.0385027 0)
(-0.0506938 -0.0469194 0)
(-0.0430873 -0.0530203 0)
(-0.0338 -0.0551466 0)
(-0.0233237 -0.0512297 0)
(-0.0126535 -0.0390714 0)
(-0.00320969 -0.0168436 0)
(-0.00338955 0.0196352 0)
(-0.0133461 0.0448923 0)
(-0.024377 0.0582163 0)
(-0.0349883 0.0622199 0)
(-0.0442399 0.0596709 0)
(-0.0517459 0.0529741 0)
(-0.0574943 0.043941 0)
(-0.0616733 0.0337697 0)
(-0.0645344 0.0231411 0)
(-0.0663044 0.0123579 0)
(-0.0671327 0.00148244 0)
(-0.0670648 -0.00953831 0)
(-0.0660302 -0.0207572 0)
(-0.0638424 -0.0321049 0)
(-0.0602182 -0.0432474 0)
(-0.0548271 -0.0534221 0)
(-0.0473903 -0.0612721 0)
(-0.0378463 -0.0647376 0)
(-0.0265726 -0.061104 0)
(-0.0146197 -0.047326 0)
(-0.00371415 -0.0207036 0)
(-0.00369966 0.0237308 0)
(-0.0145995 0.0533916 0)
(-0.0262456 0.0680773 0)
(-0.0369098 0.071539 0)
(-0.0456862 0.0675141 0)
(-0.052366 0.0590737 0)
(-0.0571447 0.0484041 0)
(-0.0603903 0.0368599 0)
(-0.0624875 0.0251389 0)
(-0.0637514 0.0134811 0)
(-0.064385 0.0018457 0)
(-0.0644594 -0.00994344 0)
(-0.063904 -0.0220688 0)
(-0.0625014 -0.0345832 0)
(-0.0598924 -0.047242 0)
(-0.0556084 -0.0592896 0)
(-0.0491604 -0.0692152 0)
(-0.04022 -0.0745381 0)
(-0.0289141 -0.0717585 0)
(-0.0162146 -0.056672 0)
(-0.00412285 -0.0252514 0)
(-0.00371485 0.0283573 0)
(-0.0147758 0.0625277 0)
(-0.0259597 0.0780255 0)
(-0.0354133 0.0802722 0)
(-0.0424435 0.0742703 0)
(-0.047157 0.0638493 0)
(-0.0500285 0.0515487 0)
(-0.0516225 0.0388174 0)
(-0.0524437 0.0263079 0)
(-0.0528733 0.0141505 0)
(-0.05315 0.00216946 0)
(-0.0533672 -0.00995707 0)
(-0.0534683 -0.0225654 0)
(-0.0532356 -0.0358676 0)
(-0.0522751 -0.0497681 0)
(-0.0500149 -0.0636047 0)
(-0.0457541 -0.0758097 0)
(-0.0388217 -0.0835391 0)
(-0.0289161 -0.0824217 0)
(-0.0166824 -0.0667341 0)
(-0.00423633 -0.0304418 0)
(-0.00308734 0.0333179 0)
(-0.0126309 0.071581 0)
(-0.0213352 0.0868562 0)
(-0.0275001 0.0869956 0)
(-0.0309214 0.0785554 0)
(-0.0321617 0.0661149 0)
(-0.0319964 0.052446 0)
(-0.0311418 0.038967 0)
(-0.0301547 0.0261966 0)
(-0.0294202 0.0141075 0)
(-0.0291708 0.00237138 0)
(-0.0295075 -0.00948093 0)
(-0.0304044 -0.0219401 0)
(-0.031693 -0.0353942 0)
(-0.0330257 -0.0499496 0)
(-0.0338272 -0.0651465 0)
(-0.0332699 -0.0795307 0)
(-0.0303447 -0.0900843 0)
(-0.0241598 -0.0916355 0)
(-0.0146625 -0.0766263 0)
(-0.00368624 -0.0360528 0)
(-0.00114387 0.0381296 0)
(-0.00587523 0.0791366 0)
(-0.00868348 0.0925213 0)
(-0.00853016 0.089566 0)
(-0.00599525 0.0785048 0)
(-0.00211539 0.0644287 0)
(0.00215561 0.0500692 0)
(0.00611045 0.0366227 0)
(0.00928469 0.0243744 0)
(0.0113973 0.0131094 0)
(0.0122889 0.00235885 0)
(0.0118791 -0.00845941 0)
(0.0101497 -0.0199519 0)
(0.00715937 -0.032659 0)
(0.00309352 -0.0469072 0)
(-0.00164765 -0.0625393 0)
(-0.00633421 -0.0784423 0)
(-0.00982108 -0.091792 0)
(-0.0106489 -0.0969982 0)
(-0.00769082 -0.0846338 0)
(-0.00176811 -0.0415314 0)
(0.00358999 0.041775 0)
(0.00999067 0.0826718 0)
(0.0183697 0.0918843 0)
(0.0285698 0.0851583 0)
(0.0393151 0.0720049 0)
(0.0494825 0.0573937 0)
(0.0583413 0.0435787 0)
(0.0655062 0.031317 0)
(0.0708184 0.0205946 0)
(0.0742342 0.0110265 0)
(0.0757436 0.0020628 0)
(0.0753207 -0.00691337 0)
(0.0729013 -0.0165385 0)
(0.0683878 -0.0274238 0)
(0.0616874 -0.0400643 0)
(0.0528014 -0.0546358 0)
(0.0419852 -0.0705743 0)
(0.0299853 -0.0857583 0)
(0.0182799 -0.095026 0)
(0.00894671 -0.0877922 0)
(0.00303926 -0.0457144 0)
(0.0152778 0.041861 0)
(0.0446803 0.0775398 0)
(0.0711934 0.0805119 0)
(0.0944261 0.070699 0)
(0.114013 0.0573577 0)
(0.129944 0.0442853 0)
(0.142445 0.03281 0)
(0.151848 0.0231427 0)
(0.158493 0.0150149 0)
(0.16266 0.00797 0)
(0.164529 0.00148949 0)
(0.16415 -0.00496259 0)
(0.161429 -0.0119306 0)
(0.156118 -0.0199625 0)
(0.147809 -0.0295792 0)
(0.135958 -0.0411729 0)
(0.119951 -0.0547475 0)
(0.0992815 -0.0692892 0)
(0.0739601 -0.081271 0)
(0.0450912 -0.0810225 0)
(0.0149665 -0.0459848 0)
(0.0492555 0.0343344 0)
(0.121238 0.0575436 0)
(0.170513 0.0544507 0)
(0.2044 0.0448903 0)
(0.228667 0.0349129 0)
(0.246286 0.026159 0)
(0.259058 0.0189544 0)
(0.268141 0.0131433 0)
(0.274316 0.00841059 0)
(0.2781 0.00440254 0)
(0.279793 0.000769516 0)
(0.279501 -0.00282769 0)
(0.277134 -0.00672601 0)
(0.27239 -0.0112702 0)
(0.2647 -0.0168139 0)
(0.253135 -0.0236978 0)
(0.236236 -0.0321774 0)
(0.211701 -0.0422001 0)
(0.175979 -0.0526849 0)
(0.123309 -0.0582154 0)
(0.0493359 -0.0378403 0)
(0.182811 0.00457189 0)
(0.296437 0.00790559 0)
(0.349865 0.0111324 0)
(0.376495 0.0106606 0)
(0.392341 0.0087415 0)
(0.402548 0.00667184 0)
(0.409414 0.00485545 0)
(0.414057 0.0033594 0)
(0.417105 0.00213381 0)
(0.418924 0.00109557 0)
(0.419717 0.000155959 0)
(0.419559 -0.000771517 0)
(0.418409 -0.00176986 0)
(0.416099 -0.00291641 0)
(0.412281 -0.0042727 0)
(0.406314 -0.00585426 0)
(0.396966 -0.00755302 0)
(0.3816 -0.00896708 0)
(0.354275 -0.00906161 0)
(0.297932 -0.00667504 0)
(0.181087 -0.00720825 0)
)
;

boundaryField
{
    movingWall
    {
        type            fixedValue;
        value           uniform (0.5 0 0);
    }
    fixedWalls
    {
        type            noSlip;
    }
    frontAndBack
    {
        type            empty;
    }
}


// ************************************************************************* //
