/*--------------------------------*- C++ -*----------------------------------*\
| =========                 |                                                 |
| \\      /  F ield         | OpenFOAM: The Open Source CFD Toolbox           |
|  \\    /   O peration     | Version:  4.1                                   |
|   \\  /    A nd           | Web:      www.OpenFOAM.org                      |
|    \\/     M anipulation  |                                                 |
\*---------------------------------------------------------------------------*/
FoamFile
{
    version     2.0;
    format      ascii;
    class       volVectorField;
    location    "236";
    object      U;
}
// * * * * * * * * * * * * * * * * * * * * * * * * * * * * * * * * * * * * * //

dimensions      [0 1 -1 0 0 0 0];

internalField   nonuniform List<vector> 
3264
(
(-1.39153e-06 -1.15378e-06 0)
(-0.000120235 2.78191e-05 0)
(-0.000359823 4.51137e-05 0)
(-0.000631518 4.69899e-05 0)
(-0.000919536 4.8141e-05 0)
(-0.00121398 4.6708e-05 0)
(-0.00150942 4.71322e-05 0)
(-0.0018084 4.70153e-05 0)
(-0.00210775 4.76478e-05 0)
(-0.00241029 4.82225e-05 0)
(-0.00271585 4.93101e-05 0)
(-0.00302745 5.08387e-05 0)
(-0.00334707 5.31655e-05 0)
(-0.00367803 5.64571e-05 0)
(-0.00402325 6.09908e-05 0)
(-0.0043859 6.69666e-05 0)
(-0.00476866 7.45707e-05 0)
(-0.00517372 8.39036e-05 0)
(-0.00560236 9.4971e-05 0)
(-0.00605474 0.000107643 0)
(-0.00652963 0.000121636 0)
(-0.00702424 0.000136496 0)
(-0.00753407 0.000151609 0)
(-0.00805292 0.000166226 0)
(-0.00857291 0.000179507 0)
(-0.00908469 0.000190582 0)
(-0.00957771 0.000198616 0)
(-0.0100406 0.00020287 0)
(-0.0104614 0.000202753 0)
(-0.0108283 0.000197854 0)
(-0.0111297 0.000187957 0)
(-0.0113548 0.000173044 0)
(-0.0114938 0.000153282 0)
(-0.0115384 0.000128999 0)
(-0.0114814 0.000100659 0)
(-0.0113177 6.88376e-05 0)
(-0.0110435 3.41957e-05 0)
(-0.010657 -2.54327e-06 0)
(-0.0101582 -4.06125e-05 0)
(-0.00954888 -7.92194e-05 0)
(-0.00883235 -0.00011756 0)
(-0.0080138 -0.000154832 0)
(-0.00709999 -0.000190246 0)
(-0.00609923 -0.000223041 0)
(-0.00502129 -0.000252492 0)
(-0.00387732 -0.000277927 0)
(-0.0026797 -0.00029874 0)
(-0.00144195 -0.000314408 0)
(-0.000178511 -0.000324511 0)
(0.0010954 -0.000328745 0)
(0.00236404 -0.000326944 0)
(0.00361135 -0.000319097 0)
(0.0048213 -0.000305359 0)
(0.00597813 -0.000286065 0)
(0.00706673 -0.000261732 0)
(0.00807296 -0.000233059 0)
(0.00898401 -0.000200915 0)
(0.00978875 -0.000166323 0)
(0.010478 -0.000130431 0)
(0.011045 -9.44723e-05 0)
(0.0114855 -5.97191e-05 0)
(0.0117978 -2.74191e-05 0)
(0.0119835 1.27992e-06 0)
(0.0120467 2.54192e-05 0)
(0.0119946 4.43277e-05 0)
(0.0118369 5.77183e-05 0)
(0.0115856 6.57623e-05 0)
(0.0112547 6.91128e-05 0)
(0.010859 6.88476e-05 0)
(0.0104142 6.63096e-05 0)
(0.00993583 6.28559e-05 0)
(0.0094389 5.95657e-05 0)
(0.00893711 5.70036e-05 0)
(0.00844246 5.51363e-05 0)
(0.00796474 5.34555e-05 0)
(0.00751115 5.12639e-05 0)
(0.00708629 4.80037e-05 0)
(0.00669241 4.34952e-05 0)
(0.0063301 3.80177e-05 0)
(0.0059988 3.22319e-05 0)
(0.00569725 2.69868e-05 0)
(0.00542354 2.30699e-05 0)
(0.00517509 2.09815e-05 0)
(0.00494874 2.08172e-05 0)
(0.00474101 2.2305e-05 0)
(0.00454845 2.49624e-05 0)
(0.00436804 2.82816e-05 0)
(0.00419739 3.18531e-05 0)
(0.00403497 3.53947e-05 0)
(0.00388021 3.87106e-05 0)
(0.00373357 4.16302e-05 0)
(0.00359651 4.39637e-05 0)
(0.00347136 4.54918e-05 0)
(0.0033612 4.59801e-05 0)
(0.00326957 4.52085e-05 0)
(0.0032003 4.30006e-05 0)
(0.00315723 3.92469e-05 0)
(0.00314401 3.39183e-05 0)
(0.00316389 2.70685e-05 0)
(0.00321955 1.88303e-05 0)
(0.00331296 9.40498e-06 0)
(0.00344531 -9.51235e-07 0)
(0.00361686 -1.19416e-05 0)
(0.00382699 -2.32443e-05 0)
(0.00407414 -3.45264e-05 0)
(0.00435584 -4.54583e-05 0)
(0.0046688 -5.57257e-05 0)
(0.00500889 -6.5042e-05 0)
(0.00537135 -7.31583e-05 0)
(0.00575083 -7.98725e-05 0)
(0.00614155 -8.50365e-05 0)
(0.00653748 -8.85609e-05 0)
(0.00693248 -9.04166e-05 0)
(0.00732054 -9.06335e-05 0)
(0.00769588 -8.92957e-05 0)
(0.00805323 -8.65338e-05 0)
(0.00838794 -8.25146e-05 0)
(0.00869613 -7.74304e-05 0)
(0.00897481 -7.1488e-05 0)
(0.00922195 -6.48994e-05 0)
(0.00943647 -5.78737e-05 0)
(0.00961826 -5.06118e-05 0)
(0.00976805 -4.33024e-05 0)
(0.00988735 -3.61183e-05 0)
(0.00997831 -2.92144e-05 0)
(0.0100436 -2.27242e-05 0)
(0.0100861 -1.6758e-05 0)
(0.010109 -1.14014e-05 0)
(0.0101157 -6.71511e-06 0)
(0.0101093 -2.73531e-06 0)
(0.010093 5.24661e-07 0)
(0.0100697 3.07263e-06 0)
(0.0100419 4.93563e-06 0)
(0.010012 6.158e-06 0)
(0.00998199 6.79925e-06 0)
(0.00995349 6.93158e-06 0)
(0.00992772 6.63681e-06 0)
(0.00990558 6.00277e-06 0)
(0.00988763 5.11933e-06 0)
(0.00987414 4.07432e-06 0)
(0.00986508 2.94974e-06 0)
(0.00986024 1.81851e-06 0)
(0.00985923 7.42056e-07 0)
(0.00986154 -2.31207e-07 0)
(0.00986656 -1.06648e-06 0)
(0.00987368 -1.74226e-06 0)
(0.00988228 -2.24936e-06 0)
(0.00989177 -2.58931e-06 0)
(0.00990164 -2.77239e-06 0)
(0.00991143 -2.81553e-06 0)
(0.00992077 -2.74014e-06 0)
(0.00992939 -2.57008e-06 0)
(0.00993708 -2.32983e-06 0)
(0.00994372 -2.04304e-06 0)
(0.00994928 -1.73132e-06 0)
(0.00995375 -1.41343e-06 0)
(0.00995719 -1.10482e-06 0)
(0.00995968 -8.17398e-07 0)
(0.00996135 -5.59637e-07 0)
(0.00996231 -3.36779e-07 0)
(0.00996269 -1.51248e-07 0)
(0.00996261 -3.11093e-09 0)
(0.00996219 1.09414e-07 0)
(0.00996153 1.89457e-07 0)
(0.00996073 2.4103e-07 0)
(0.00995985 2.68608e-07 0)
(0.00995896 2.76791e-07 0)
(0.0099581 2.7003e-07 0)
(0.0099573 2.52426e-07 0)
(0.00995658 2.27599e-07 0)
(0.00995596 1.9862e-07 0)
(0.00995544 1.67979e-07 0)
(0.00995501 1.37609e-07 0)
(0.00995468 1.0892e-07 0)
(0.00995442 8.28648e-08 0)
(0.00995424 6.00085e-08 0)
(0.00995411 4.06e-08 0)
(0.00995404 2.46449e-08 0)
(0.009954 1.19715e-08 0)
(0.00995399 2.28798e-09 0)
(0.009954 -4.76877e-09 0)
(0.00995403 -9.59394e-09 0)
(0.00995407 -1.2585e-08 0)
(0.00995411 -1.41199e-08 0)
(0.00995416 -1.45428e-08 0)
(0.0099542 -1.41555e-08 0)
(0.00995424 -1.32138e-08 0)
(0.00995428 -1.19275e-08 0)
(0.00995431 -1.04626e-08 0)
(0.00995433 -8.94562e-09 0)
(0.00995436 -7.46873e-09 0)
(0.00995438 -6.09487e-09 0)
(0.00995439 -4.86322e-09 0)
(0.0099544 -3.79418e-09 0)
(0.00995441 -2.89312e-09 0)
(0.00995442 -2.15478e-09 0)
(0.00995442 -1.56395e-09 0)
(0.00995442 -1.09771e-09 0)
(0.00995443 -7.15812e-10 0)
(0.00995443 -4.35571e-10 0)
(-7.93274e-05 0.000122514 0)
(-0.000555584 0.000351252 0)
(-0.00125544 0.000488142 0)
(-0.00200856 0.000535762 0)
(-0.00277635 0.000561862 0)
(-0.00354439 0.000569318 0)
(-0.00430017 0.000576455 0)
(-0.00504904 0.000579526 0)
(-0.00578655 0.000583916 0)
(-0.00651841 0.0005894 0)
(-0.0072455 0.000598403 0)
(-0.00797285 0.000611585 0)
(-0.0087033 0.000629912 0)
(-0.00944044 0.000653573 0)
(-0.0101861 0.000682432 0)
(-0.0109412 0.00071578 0)
(-0.0117046 0.00075242 0)
(-0.0124729 0.000790629 0)
(-0.0132408 0.000828228 0)
(-0.0140003 0.000862642 0)
(-0.0147416 0.00089103 0)
(-0.0154525 0.000910434 0)
(-0.0161196 0.000917945 0)
(-0.0167282 0.000910888 0)
(-0.0172631 0.000886979 0)
(-0.0177089 0.000844457 0)
(-0.0180509 0.00078218 0)
(-0.018275 0.000699661 0)
(-0.0183686 0.000597072 0)
(-0.0183206 0.000475193 0)
(-0.0181216 0.000335353 0)
(-0.017764 0.000179335 0)
(-0.0172423 9.29028e-06 0)
(-0.016553 -0.000172351 0)
(-0.0156945 -0.000362957 0)
(-0.014667 -0.000559762 0)
(-0.0134728 -0.000759921 0)
(-0.0121159 -0.00096055 0)
(-0.0106021 -0.00115876 0)
(-0.00893891 -0.0013517 0)
(-0.00713536 -0.00153654 0)
(-0.00520219 -0.00171053 0)
(-0.00315163 -0.00187102 0)
(-0.000997342 -0.00201543 0)
(0.0012456 -0.00214134 0)
(0.00356084 -0.00224649 0)
(0.00593078 -0.00232881 0)
(0.00833674 -0.00238647 0)
(0.010759 -0.00241793 0)
(0.0131772 -0.00242199 0)
(0.0155703 -0.00239785 0)
(0.0179167 -0.00234516 0)
(0.0201948 -0.00226404 0)
(0.0223833 -0.00215518 0)
(0.0244611 -0.00201982 0)
(0.0264079 -0.00185977 0)
(0.0282045 -0.00167743 0)
(0.0298332 -0.00147573 0)
(0.0312775 -0.00125816 0)
(0.0325233 -0.00102862 0)
(0.0335582 -0.000791458 0)
(0.0343725 -0.000551334 0)
(0.0349589 -0.000313152 0)
(0.035313 -8.19551e-05 0)
(0.0354334 0.000137197 0)
(0.0353222 0.000339378 0)
(0.0349852 0.000519976 0)
(0.0344323 0.000674903 0)
(0.0336778 0.000800838 0)
(0.0327408 0.000895492 0)
(0.0316452 0.0009579 0)
(0.0304192 0.000988704 0)
(0.0290946 0.000990383 0)
(0.0277054 0.000967283 0)
(0.0262862 0.000925295 0)
(0.0248697 0.000871069 0)
(0.0234858 0.00081089 0)
(0.0221594 0.000749594 0)
(0.0209099 0.000690015 0)
(0.0197505 0.000633227 0)
(0.0186883 0.000579381 0)
(0.0177247 0.000528579 0)
(0.0168568 0.000481312 0)
(0.0160788 0.000438372 0)
(0.0153838 0.000400478 0)
(0.0147648 0.000367927 0)
(0.0142152 0.000340399 0)
(0.0137297 0.000316932 0)
(0.0133043 0.000296009 0)
(0.012936 0.000275752 0)
(0.0126237 0.000254165 0)
(0.0123676 0.000229384 0)
(0.0121689 0.000199871 0)
(0.0120303 0.000164533 0)
(0.0119546 0.000122756 0)
(0.011945 7.4386e-05 0)
(0.0120047 1.96902e-05 0)
(0.0121361 -4.07063e-05 0)
(0.0123411 -0.000105877 0)
(0.0126206 -0.000174654 0)
(0.0129742 -0.000245679 0)
(0.0134007 -0.000317464 0)
(0.0138974 -0.000388438 0)
(0.0144606 -0.000457 0)
(0.0150854 -0.000521559 0)
(0.0157655 -0.000580585 0)
(0.0164939 -0.000632647 0)
(0.0172625 -0.000676452 0)
(0.0180623 -0.000710891 0)
(0.0188837 -0.000735073 0)
(0.0197164 -0.000748364 0)
(0.02055 -0.000750426 0)
(0.0213736 -0.000741241 0)
(0.0221766 -0.000721132 0)
(0.0229487 -0.000690771 0)
(0.0236802 -0.000651164 0)
(0.0243624 -0.000603626 0)
(0.0249875 -0.000549721 0)
(0.0255496 -0.000491198 0)
(0.0260442 -0.000429895 0)
(0.0264687 -0.000367651 0)
(0.0268226 -0.000306208 0)
(0.0271072 -0.000247129 0)
(0.0273259 -0.000191738 0)
(0.0274833 -0.000141082 0)
(0.0275857 -9.59182e-05 0)
(0.0276403 -5.67212e-05 0)
(0.0276547 -2.3709e-05 0)
(0.0276368 3.12653e-06 0)
(0.0275943 2.39841e-05 0)
(0.0275346 3.92192e-05 0)
(0.0274642 4.93113e-05 0)
(0.0273889 5.48335e-05 0)
(0.0273135 5.64236e-05 0)
(0.0272419 5.47569e-05 0)
(0.0271769 5.05192e-05 0)
(0.0271208 4.43828e-05 0)
(0.0270745 3.69841e-05 0)
(0.0270387 2.89048e-05 0)
(0.0270134 2.06569e-05 0)
(0.0269978 1.26714e-05 0)
(0.026991 5.29254e-06 0)
(0.026992 -1.22413e-06 0)
(0.0269992 -6.70953e-06 0)
(0.0270114 -1.10748e-05 0)
(0.0270272 -1.43022e-05 0)
(0.0270452 -1.64339e-05 0)
(0.0270644 -1.75592e-05 0)
(0.0270837 -1.78018e-05 0)
(0.0271023 -1.73069e-05 0)
(0.0271197 -1.62297e-05 0)
(0.0271353 -1.47255e-05 0)
(0.0271489 -1.29413e-05 0)
(0.0271604 -1.10096e-05 0)
(0.0271697 -9.04406e-06 0)
(0.027177 -7.13767e-06 0)
(0.0271824 -5.36156e-06 0)
(0.0271861 -3.76596e-06 0)
(0.0271884 -2.38184e-06 0)
(0.0271895 -1.2234e-06 0)
(0.0271896 -2.90941e-07 0)
(0.0271891 4.26135e-07 0)
(0.027188 9.46333e-07 0)
(0.0271866 1.29333e-06 0)
(0.027185 1.49356e-06 0)
(0.0271834 1.57421e-06 0)
(0.0271818 1.56165e-06 0)
(0.0271803 1.48026e-06 0)
(0.0271789 1.35169e-06 0)
(0.0271778 1.19438e-06 0)
(0.0271767 1.02344e-06 0)
(0.0271759 8.50735e-07 0)
(0.0271752 6.85067e-07 0)
(0.0271747 5.32554e-07 0)
(0.0271743 3.9701e-07 0)
(0.0271741 2.80361e-07 0)
(0.0271739 1.83056e-07 0)
(0.0271738 1.04446e-07 0)
(0.0271738 4.31219e-08 0)
(0.0271738 -2.80527e-09 0)
(0.0271738 -3.54678e-08 0)
(0.0271739 -5.70625e-08 0)
(0.027174 -6.97179e-08 0)
(0.027174 -7.54021e-08 0)
(0.0271741 -7.58664e-08 0)
(0.0271742 -7.26168e-08 0)
(0.0271742 -6.6907e-08 0)
(0.0271743 -5.9747e-08 0)
(0.0271743 -5.19228e-08 0)
(0.0271744 -4.40216e-08 0)
(0.0271744 -3.64609e-08 0)
(0.0271745 -2.95174e-08 0)
(0.0271745 -2.3355e-08 0)
(0.0271745 -1.80503e-08 0)
(0.0271745 -1.36133e-08 0)
(0.0271745 -1.00067e-08 0)
(0.0271745 -7.15796e-09 0)
(0.0271745 -4.959e-09 0)
(0.0271745 -3.29952e-09 0)
(0.0271745 -1.92912e-09 0)
(-0.000176352 0.000616231 0)
(-0.00102557 0.00120122 0)
(-0.00213464 0.00148194 0)
(-0.00326676 0.00153871 0)
(-0.00436316 0.00155432 0)
(-0.00541518 0.00153403 0)
(-0.00640698 0.00151686 0)
(-0.00735062 0.00149612 0)
(-0.00824356 0.00148102 0)
(-0.00909503 0.00147075 0)
(-0.00990707 0.00146811 0)
(-0.0106849 0.00147299 0)
(-0.01143 0.0014853 0)
(-0.0121437 0.0015036 0)
(-0.0128246 0.00152578 0)
(-0.0134699 0.00154884 0)
(-0.0140744 0.00156917 0)
(-0.0146312 0.00158264 0)
(-0.0151318 0.00158486 0)
(-0.0155661 0.00157138 0)
(-0.0159229 0.00153796 0)
(-0.0161906 0.00148079 0)
(-0.0163573 0.00139667 0)
(-0.0164113 0.00128318 0)
(-0.0163416 0.00113878 0)
(-0.0161382 0.000962812 0)
(-0.015792 0.000755534 0)
(-0.0152957 0.00051803 0)
(-0.014643 0.000252138 0)
(-0.0138294 -3.96613e-05 0)
(-0.0128518 -0.000354356 0)
(-0.0117086 -0.000688516 0)
(-0.0103997 -0.00103839 0)
(-0.00892619 -0.00140001 0)
(-0.00729082 -0.00176922 0)
(-0.00549753 -0.00214178 0)
(-0.00355162 -0.00251338 0)
(-0.00145968 -0.0028797 0)
(0.000770387 -0.00323638 0)
(0.00312942 -0.0035791 0)
(0.00560696 -0.00390361 0)
(0.0081913 -0.00420566 0)
(0.0108695 -0.00448116 0)
(0.0136273 -0.00472607 0)
(0.0164494 -0.00493657 0)
(0.0193192 -0.00510901 0)
(0.0222191 -0.00524002 0)
(0.0251307 -0.00532658 0)
(0.0280344 -0.0053661 0)
(0.0309103 -0.0053565 0)
(0.0337379 -0.00529631 0)
(0.0364965 -0.00518477 0)
(0.0391655 -0.0050219 0)
(0.0417246 -0.00480856 0)
(0.0441542 -0.00454647 0)
(0.0464357 -0.00423826 0)
(0.0485516 -0.0038874 0)
(0.050486 -0.00349817 0)
(0.0522243 -0.00307555 0)
(0.0537538 -0.00262516 0)
(0.0550634 -0.0021531 0)
(0.0561435 -0.00166588 0)
(0.0569865 -0.00117029 0)
(0.0575861 -0.000673358 0)
(0.0579374 -0.000182261 0)
(0.058037 0.000295703 0)
(0.0578833 0.000753137 0)
(0.057476 0.00118256 0)
(0.0568172 0.00157644 0)
(0.0559111 0.00192729 0)
(0.0547655 0.00222781 0)
(0.0533919 0.00247129 0)
(0.0518068 0.00265213 0)
(0.0500323 0.00276661 0)
(0.0480973 0.00281368 0)
(0.046037 0.00279558 0)
(0.043893 0.00271821 0)
(0.0417108 0.00259088 0)
(0.0395379 0.00242568 0)
(0.0374197 0.00223634 0)
(0.0353963 0.00203667 0)
(0.0334999 0.00183877 0)
(0.0317535 0.00165154 0)
(0.0301705 0.00147988 0)
(0.028756 0.00132501 0)
(0.0275079 0.00118555 0)
(0.0264192 0.00105881 0)
(0.0254804 0.000941704 0)
(0.024681 0.000831179 0)
(0.0240112 0.000724266 0)
(0.0234626 0.000618086 0)
(0.0230289 0.000509931 0)
(0.0227051 0.000397434 0)
(0.0224878 0.000278758 0)
(0.0223742 0.000152738 0)
(0.0223624 1.89465e-05 0)
(0.0224505 -0.00012231 0)
(0.0226365 -0.000270057 0)
(0.0229181 -0.00042275 0)
(0.0232927 -0.000578386 0)
(0.0237568 -0.000734625 0)
(0.0243061 -0.000888894 0)
(0.0249358 -0.00103849 0)
(0.02564 -0.00118068 0)
(0.026412 -0.00131275 0)
(0.0272444 -0.00143207 0)
(0.028129 -0.00153621 0)
(0.0290567 -0.00162291 0)
(0.0300181 -0.00169021 0)
(0.0310031 -0.00173648 0)
(0.0320012 -0.00176046 0)
(0.0330015 -0.00176138 0)
(0.0339932 -0.00173895 0)
(0.0349652 -0.00169346 0)
(0.0359068 -0.00162579 0)
(0.0368076 -0.00153747 0)
(0.0376579 -0.00143066 0)
(0.0384485 -0.00130814 0)
(0.0391717 -0.00117321 0)
(0.0398207 -0.00102965 0)
(0.0403906 -0.000881514 0)
(0.0408781 -0.000732975 0)
(0.041282 -0.000588119 0)
(0.0416032 -0.00045072 0)
(0.0418449 -0.000324046 0)
(0.0420122 -0.000210688 0)
(0.0421122 -0.000112462 0)
(0.0421533 -3.03723e-05 0)
(0.0421452 3.53593e-05 0)
(0.042098 8.52016e-05 0)
(0.0420217 0.00012019 0)
(0.0419261 0.000141783 0)
(0.0418198 0.000151721 0)
(0.0417105 0.000151899 0)
(0.0416044 0.000144258 0)
(0.0415064 0.000130698 0)
(0.0414199 0.00011301 0)
(0.0413472 9.28271e-05 0)
(0.0412892 7.15843e-05 0)
(0.0412462 5.04981e-05 0)
(0.0412174 3.05524e-05 0)
(0.0412016 1.24966e-05 0)
(0.0411972 -3.14681e-06 0)
(0.0412023 -1.60665e-05 0)
(0.041215 -2.61402e-05 0)
(0.0412332 -3.34066e-05 0)
(0.0412551 -3.80351e-05 0)
(0.0412791 -4.02934e-05 0)
(0.0413037 -4.05158e-05 0)
(0.0413278 -3.90738e-05 0)
(0.0413503 -3.63497e-05 0)
(0.0413707 -3.27148e-05 0)
(0.0413886 -2.85117e-05 0)
(0.0414037 -2.40427e-05 0)
(0.041416 -1.95611e-05 0)
(0.0414256 -1.5269e-05 0)
(0.0414327 -1.13162e-05 0)
(0.0414376 -7.80448e-06 0)
(0.0414406 -4.79177e-06 0)
(0.0414421 -2.29917e-06 0)
(0.0414423 -3.17899e-07 0)
(0.0414416 1.18354e-06 0)
(0.0414402 2.25246e-06 0)
(0.0414385 2.94593e-06 0)
(0.0414364 3.32543e-06 0)
(0.0414344 3.45271e-06 0)
(0.0414323 3.38646e-06 0)
(0.0414304 3.18006e-06 0)
(0.0414287 2.88017e-06 0)
(0.0414272 2.52596e-06 0)
(0.041426 2.14907e-06 0)
(0.0414249 1.77386e-06 0)
(0.0414241 1.41811e-06 0)
(0.0414235 1.09381e-06 0)
(0.041423 8.08105e-07 0)
(0.0414227 5.64219e-07 0)
(0.0414225 3.62382e-07 0)
(0.0414224 2.0063e-07 0)
(0.0414224 7.55234e-08 0)
(0.0414224 -1.72575e-08 0)
(0.0414225 -8.24395e-08 0)
(0.0414225 -1.24792e-07 0)
(0.0414226 -1.48863e-07 0)
(0.0414227 -1.5881e-07 0)
(0.0414228 -1.58289e-07 0)
(0.0414229 -1.50417e-07 0)
(0.041423 -1.37763e-07 0)
(0.0414231 -1.22379e-07 0)
(0.0414231 -1.05844e-07 0)
(0.0414232 -8.93256e-08 0)
(0.0414232 -7.36434e-08 0)
(0.0414232 -5.93295e-08 0)
(0.0414233 -4.66894e-08 0)
(0.0414233 -3.58544e-08 0)
(0.0414233 -2.68278e-08 0)
(0.0414233 -1.95218e-08 0)
(0.0414233 -1.37892e-08 0)
(0.0414233 -9.42669e-09 0)
(0.0414233 -6.2624e-09 0)
(0.0414233 -3.7966e-09 0)
(-0.000307943 0.00122799 0)
(-0.00152567 0.00225598 0)
(-0.00288703 0.00267248 0)
(-0.00416614 0.00270899 0)
(-0.00528193 0.00266989 0)
(-0.00628413 0.00257568 0)
(-0.0071575 0.00248444 0)
(-0.00793467 0.00239152 0)
(-0.00861566 0.00230913 0)
(-0.00921551 0.0022363 0)
(-0.00973725 0.00217494 0)
(-0.0101869 0.0021235 0)
(-0.0105658 0.00208015 0)
(-0.0108744 0.00204171 0)
(-0.0111111 0.00200433 0)
(-0.0112727 0.00196346 0)
(-0.0113548 0.00191414 0)
(-0.0113516 0.00185116 0)
(-0.0112569 0.00176934 0)
(-0.0110635 0.00166376 0)
(-0.0107643 0.00153001 0)
(-0.0103522 0.00136438 0)
(-0.00982039 0.00116401 0)
(-0.00916264 0.000926986 0)
(-0.00837339 0.000652408 0)
(-0.00744794 0.000340369 0)
(-0.00638246 -8.08944e-06 0)
(-0.00517408 -0.000391058 0)
(-0.00382088 -0.000805863 0)
(-0.00232191 -0.00124917 0)
(-0.000677159 -0.00171712 0)
(0.00111242 -0.00220539 0)
(0.00304493 -0.00270933 0)
(0.00511751 -0.00322401 0)
(0.00732628 -0.0037443 0)
(0.00966636 -0.0042649 0)
(0.0121318 -0.00478037 0)
(0.0147156 -0.00528518 0)
(0.0174095 -0.00577376 0)
(0.0202041 -0.00624045 0)
(0.0230888 -0.00667961 0)
(0.0260518 -0.00708561 0)
(0.0290799 -0.00745289 0)
(0.0321589 -0.00777599 0)
(0.0352732 -0.00804962 0)
(0.0384061 -0.00826873 0)
(0.04154 -0.00842863 0)
(0.0446564 -0.00852509 0)
(0.0477359 -0.00855445 0)
(0.0507587 -0.00851381 0)
(0.0537051 -0.00840114 0)
(0.0565551 -0.00821544 0)
(0.0592895 -0.00795684 0)
(0.0618901 -0.0076267 0)
(0.0643399 -0.00722763 0)
(0.0666233 -0.00676348 0)
(0.0687269 -0.00623929 0)
(0.0706391 -0.00566111 0)
(0.0723505 -0.0050359 0)
(0.0738536 -0.00437127 0)
(0.075143 -0.00367531 0)
(0.0762148 -0.0029564 0)
(0.0770664 -0.00222299 0)
(0.0776965 -0.00148355 0)
(0.0781043 -0.000746447 0)
(0.0782896 -1.98879e-05 0)
(0.0782523 0.000688035 0)
(0.0779925 0.00136933 0)
(0.0775102 0.00201604 0)
(0.0768055 0.0026202 0)
(0.0758786 0.00317379 0)
(0.0747303 0.00366876 0)
(0.0733623 0.00409715 0)
(0.0717783 0.00445132 0)
(0.0699845 0.00472429 0)
(0.0679915 0.00491022 0)
(0.0658152 0.00500503 0)
(0.0634784 0.00500713 0)
(0.0610117 0.00491836 0)
(0.0584537 0.00474479 0)
(0.0558497 0.00449725 0)
(0.0532505 0.00419093 0)
(0.0507084 0.00384417 0)
(0.0482736 0.00347631 0)
(0.0459901 0.00310529 0)
(0.0438923 0.00274551 0)
(0.0420035 0.00240644 0)
(0.0403358 0.00209223 0)
(0.0388915 0.00180237 0)
(0.0376651 0.00153297 0)
(0.0366463 0.00127848 0)
(0.0358221 0.00103303 0)
(0.0351785 0.000791533 0)
(0.0347021 0.000550116 0)
(0.0343805 0.000306306 0)
(0.0342028 5.89299e-05 0)
(0.0341592 -0.000192057 0)
(0.0342411 -0.000445756 0)
(0.0344402 -0.000700503 0)
(0.034749 -0.000954026 0)
(0.0351598 -0.00120359 0)
(0.035665 -0.00144614 0)
(0.0362566 -0.0016784 0)
(0.0369265 -0.001897 0)
(0.0376662 -0.00209859 0)
(0.0384667 -0.00227988 0)
(0.0393189 -0.00243779 0)
(0.0402131 -0.00256945 0)
(0.0411394 -0.00267237 0)
(0.0420878 -0.00274445 0)
(0.0430482 -0.00278408 0)
(0.0440103 -0.00279023 0)
(0.0449642 -0.00276248 0)
(0.0459002 -0.00270113 0)
(0.046809 -0.00260721 0)
(0.047682 -0.00248255 0)
(0.0485112 -0.00232972 0)
(0.0492894 -0.00215208 0)
(0.0500102 -0.0019537 0)
(0.0506682 -0.0017393 0)
(0.051259 -0.00151411 0)
(0.0517792 -0.00128375 0)
(0.0522266 -0.00105404 0)
(0.0526002 -0.000830733 0)
(0.0529003 -0.000619322 0)
(0.053129 -0.000424719 0)
(0.0532896 -0.000251019 0)
(0.0533872 -0.000101276 0)
(0.0534284 2.26454e-05 0)
(0.053421 0.000120116 0)
(0.0533738 0.000191702 0)
(0.0532959 0.000239015 0)
(0.0531966 0.000264509 0)
(0.0530848 0.000271228 0)
(0.0529684 0.000262546 0)
(0.0528541 0.000241939 0)
(0.0527476 0.000212786 0)
(0.0526527 0.000178214 0)
(0.0525722 0.000141 0)
(0.0525074 0.0001035 0)
(0.0524588 6.76224e-05 0)
(0.0524256 3.48258e-05 0)
(0.0524066 6.13491e-06 0)
(0.0524001 -1.78244e-05 0)
(0.052404 -3.67794e-05 0)
(0.0524161 -5.07576e-05 0)
(0.0524344 -6.00287e-05 0)
(0.0524567 -6.50456e-05 0)
(0.0524813 -6.63863e-05 0)
(0.0525065 -6.47004e-05 0)
(0.0525311 -6.06614e-05 0)
(0.0525542 -5.49267e-05 0)
(0.0525749 -4.81055e-05 0)
(0.0525929 -4.07369e-05 0)
(0.052608 -3.32747e-05 0)
(0.0526201 -2.60812e-05 0)
(0.0526294 -1.94275e-05 0)
(0.0526361 -1.34981e-05 0)
(0.0526406 -8.40047e-06 0)
(0.0526431 -4.17635e-06 0)
(0.0526441 -8.14488e-07 0)
(0.052644 1.73654e-06 0)
(0.0526429 3.55615e-06 0)
(0.0526412 4.74091e-06 0)
(0.0526392 5.39523e-06 0)
(0.052637 5.62397e-06 0)
(0.0526348 5.52671e-06 0)
(0.0526327 5.19386e-06 0)
(0.0526308 4.70422e-06 0)
(0.0526291 4.12378e-06 0)
(0.0526277 3.50559e-06 0)
(0.0526265 2.89037e-06 0)
(0.0526255 2.30767e-06 0)
(0.0526248 1.77726e-06 0)
(0.0526242 1.31082e-06 0)
(0.0526239 9.13471e-07 0)
(0.0526236 5.85385e-07 0)
(0.0526235 3.23125e-07 0)
(0.0526234 1.20859e-07 0)
(0.0526234 -2.86541e-08 0)
(0.0526235 -1.33274e-07 0)
(0.0526235 -2.00886e-07 0)
(0.0526236 -2.38973e-07 0)
(0.0526237 -2.54339e-07 0)
(0.0526238 -2.52945e-07 0)
(0.0526239 -2.39847e-07 0)
(0.052624 -2.19196e-07 0)
(0.0526241 -1.94289e-07 0)
(0.0526242 -1.67653e-07 0)
(0.0526242 -1.41144e-07 0)
(0.0526243 -1.16053e-07 0)
(0.0526243 -9.3211e-08 0)
(0.0526243 -7.30865e-08 0)
(0.0526243 -5.58718e-08 0)
(0.0526243 -4.15586e-08 0)
(0.0526244 -2.99996e-08 0)
(0.0526244 -2.09597e-08 0)
(0.0526244 -1.41397e-08 0)
(0.0526244 -9.27824e-09 0)
(0.0526244 -5.77218e-09 0)
(-0.00041169 0.0024534 0)
(-0.00174805 0.00375834 0)
(-0.00303573 0.0041099 0)
(-0.00411105 0.00388189 0)
(-0.00489144 0.00363867 0)
(-0.00548776 0.00336759 0)
(-0.00589562 0.00313642 0)
(-0.00617307 0.00292527 0)
(-0.00632693 0.00273991 0)
(-0.00638056 0.00257407 0)
(-0.00633903 0.00242569 0)
(-0.00621048 0.00229063 0)
(-0.00599641 0.00216481 0)
(-0.0056982 0.00204347 0)
(-0.00531454 0.00192141 0)
(-0.00484351 0.00179311 0)
(-0.00428207 0.00165284 0)
(-0.00362676 0.00149493 0)
(-0.00287373 0.0013139 0)
(-0.00201908 0.00110478 0)
(-0.00105896 0.000863218 0)
(1.02704e-05 0.000585716 0)
(0.00119193 0.00026971 0)
(0.00248892 -8.63508e-05 0)
(0.0039037 -0.000482981 0)
(0.00543822 -0.000919686 0)
(0.00709389 -0.00139502 0)
(0.00887156 -0.00190665 0)
(0.0107715 -0.00245148 0)
(0.0127934 -0.00302572 0)
(0.0149361 -0.003625 0)
(0.0171979 -0.00424445 0)
(0.0195763 -0.00487879 0)
(0.0220678 -0.00552238 0)
(0.0246682 -0.00616925 0)
(0.0273721 -0.00681319 0)
(0.030173 -0.00744774 0)
(0.0330635 -0.00806623 0)
(0.0360347 -0.00866181 0)
(0.0390766 -0.00922751 0)
(0.0421776 -0.00975626 0)
(0.0453249 -0.0102409 0)
(0.0485045 -0.0106745 0)
(0.0517009 -0.0110499 0)
(0.0548975 -0.0113604 0)
(0.0580764 -0.0115996 0)
(0.0612189 -0.0117613 0)
(0.0643056 -0.0118402 0)
(0.0673166 -0.0118316 0)
(0.070232 -0.0117321 0)
(0.0730323 -0.0115395 0)
(0.0756989 -0.0112528 0)
(0.0782149 -0.0108731 0)
(0.0805652 -0.0104027 0)
(0.0827371 -0.0098461 0)
(0.0847208 -0.00920911 0)
(0.0865094 -0.00849915 0)
(0.0880988 -0.0077248 0)
(0.089488 -0.00689557 0)
(0.090678 -0.0060215 0)
(0.0916723 -0.00511283 0)
(0.0924755 -0.00417975 0)
(0.0930932 -0.00323211 0)
(0.0935313 -0.00227932 0)
(0.0937956 -0.00133023 0)
(0.0938913 -0.000393159 0)
(0.0938226 0.000524028 0)
(0.0935925 0.00141381 0)
(0.0932027 0.00226884 0)
(0.0926536 0.00308181 0)
(0.0919442 0.0038453 0)
(0.0910725 0.00455172 0)
(0.0900355 0.00519326 0)
(0.0888297 0.00576204 0)
(0.087452 0.00625021 0)
(0.0858999 0.00665025 0)
(0.0841724 0.00695528 0)
(0.0822714 0.00715945 0)
(0.0802026 0.00725847 0)
(0.0779766 0.00725022 0)
(0.075611 0.00713545 0)
(0.0731303 0.00691842 0)
(0.0705677 0.00660725 0)
(0.0679637 0.00621402 0)
(0.0653648 0.00575429 0)
(0.062821 0.00524615 0)
(0.0603816 0.00470867 0)
(0.058092 0.00416008 0)
(0.05599 0.00361581 0)
(0.0541033 0.00308716 0)
(0.0524485 0.00258068 0)
(0.0510322 0.00209854 0)
(0.0498519 0.00163954 0)
(0.0488986 0.00120051 0)
(0.0481592 0.000777626 0)
(0.0476182 0.000367442 0)
(0.0472594 -3.24567e-05 0)
(0.0470668 -0.0004232 0)
(0.0470251 -0.00080463 0)
(0.04712 -0.00117547 0)
(0.0473379 -0.00153353 0)
(0.0476661 -0.00187599 0)
(0.0480924 -0.00219955 0)
(0.0486049 -0.0025007 0)
(0.0491922 -0.00277579 0)
(0.0498426 -0.00302124 0)
(0.0505449 -0.00323363 0)
(0.0512876 -0.00340981 0)
(0.0520596 -0.00354704 0)
(0.0528496 -0.00364307 0)
(0.0536467 -0.00369628 0)
(0.0544406 -0.00370572 0)
(0.0552213 -0.00367129 0)
(0.0559796 -0.00359373 0)
(0.0567071 -0.0034747 0)
(0.0573967 -0.00331677 0)
(0.0580424 -0.00312342 0)
(0.0586393 -0.00289896 0)
(0.0591842 -0.00264845 0)
(0.0596747 -0.00237755 0)
(0.0601099 -0.00209238 0)
(0.0604898 -0.00179937 0)
(0.0608151 -0.0015051 0)
(0.0610872 -0.00121609 0)
(0.061308 -0.00093862 0)
(0.0614796 -0.000678544 0)
(0.0616045 -0.000441063 0)
(0.0616855 -0.000230509 0)
(0.0617261 -5.01489e-05 0)
(0.0617301 9.79853e-05 0)
(0.061702 0.000213188 0)
(0.061647 0.00029609 0)
(0.0615708 0.000348574 0)
(0.0614793 0.000373587 0)
(0.0613785 0.000374894 0)
(0.0612743 0.000356781 0)
(0.0611717 0.000323758 0)
(0.0610752 0.000280281 0)
(0.0609882 0.00023052 0)
(0.0609133 0.000178188 0)
(0.0608519 0.000126423 0)
(0.0608045 7.77366e-05 0)
(0.0607709 3.39959e-05 0)
(0.06075 -3.54556e-06 0)
(0.0607406 -3.41948e-05 0)
(0.0607409 -5.77468e-05 0)
(0.060749 -7.44004e-05 0)
(0.060763 -8.46695e-05 0)
(0.0607811 -8.92952e-05 0)
(0.0608016 -8.91617e-05 0)
(0.0608231 -8.5222e-05 0)
(0.0608443 -7.84322e-05 0)
(0.0608642 -6.97001e-05 0)
(0.0608823 -5.98451e-05 0)
(0.0608981 -4.95723e-05 0)
(0.0609114 -3.94576e-05 0)
(0.060922 -2.99437e-05 0)
(0.0609302 -2.13449e-05 0)
(0.0609361 -1.38579e-05 0)
(0.0609401 -7.57776e-06 0)
(0.0609423 -2.51579e-06 0)
(0.0609431 1.38161e-06 0)
(0.0609429 4.21463e-06 0)
(0.060942 6.11338e-06 0)
(0.0609405 7.22348e-06 0)
(0.0609387 7.69432e-06 0)
(0.0609367 7.66995e-06 0)
(0.0609348 7.28262e-06 0)
(0.060933 6.64865e-06 0)
(0.0609313 5.86626e-06 0)
(0.0609299 5.01501e-06 0)
(0.0609286 4.15651e-06 0)
(0.0609276 3.33586e-06 0)
(0.0609268 2.58377e-06 0)
(0.0609262 1.91882e-06 0)
(0.0609258 1.34984e-06 0)
(0.0609255 8.78161e-07 0)
(0.0609253 4.99645e-07 0)
(0.0609252 2.06496e-07 0)
(0.0609252 -1.12858e-08 0)
(0.0609252 -1.64724e-07 0)
(0.0609252 -2.64973e-07 0)
(0.0609253 -3.22676e-07 0)
(0.0609254 -3.47544e-07 0)
(0.0609255 -3.48112e-07 0)
(0.0609256 -3.31627e-07 0)
(0.0609257 -3.04051e-07 0)
(0.0609257 -2.70124e-07 0)
(0.0609258 -2.33485e-07 0)
(0.0609258 -1.9681e-07 0)
(0.0609259 -1.61966e-07 0)
(0.0609259 -1.30161e-07 0)
(0.060926 -1.02082e-07 0)
(0.060926 -7.80201e-08 0)
(0.060926 -5.79818e-08 0)
(0.060926 -4.17751e-08 0)
(0.060926 -2.90852e-08 0)
(0.060926 -1.95204e-08 0)
(0.060926 -1.27278e-08 0)
(0.060926 -8.01126e-09 0)
(-0.000703476 0.00308881 0)
(-0.00212823 0.0047001 0)
(-0.00260261 0.00492875 0)
(-0.00283689 0.00449276 0)
(-0.00264974 0.0040362 0)
(-0.00236196 0.00358554 0)
(-0.0019104 0.00319715 0)
(-0.00137813 0.00285476 0)
(-0.00075358 0.00255406 0)
(-5.91256e-05 0.00228602 0)
(0.000707112 0.00204291 0)
(0.00153992 0.00181809 0)
(0.00244105 0.00160478 0)
(0.00341108 0.00139683 0)
(0.00445275 0.00118791 0)
(0.00556867 0.000971924 0)
(0.00676206 0.000742786 0)
(0.00803603 0.000494691 0)
(0.00939365 0.00022217 0)
(0.0108378 -7.97055e-05 0)
(0.012371 -0.000415192 0)
(0.0139956 -0.000787725 0)
(0.0157134 -0.00119982 0)
(0.0175262 -0.00165302 0)
(0.019435 -0.00214784 0)
(0.0214409 -0.00268379 0)
(0.0235441 -0.00325939 0)
(0.0257447 -0.00387226 0)
(0.0280422 -0.00451914 0)
(0.0304354 -0.005196 0)
(0.0329225 -0.00589813 0)
(0.035501 -0.00662017 0)
(0.0381674 -0.00735623 0)
(0.0409174 -0.00809992 0)
(0.0437455 -0.0088444 0)
(0.0466452 -0.00958243 0)
(0.0496087 -0.0103064 0)
(0.052627 -0.0110083 0)
(0.0556896 -0.01168 0)
(0.0587847 -0.0123128 0)
(0.0618987 -0.0128981 0)
(0.0650168 -0.0134271 0)
(0.0681227 -0.0138911 0)
(0.0711987 -0.0142814 0)
(0.0742258 -0.0145896 0)
(0.0771843 -0.0148077 0)
(0.0800535 -0.0149285 0)
(0.0828126 -0.0149455 0)
(0.0854411 -0.0148536 0)
(0.0879195 -0.0146492 0)
(0.0902297 -0.0143307 0)
(0.0923565 -0.0138986 0)
(0.0942876 -0.0133557 0)
(0.0960145 -0.0127072 0)
(0.097533 -0.0119606 0)
(0.0988433 -0.0111254 0)
(0.0999498 -0.0102127 0)
(0.100861 -0.00923488 0)
(0.101587 -0.00820472 0)
(0.102143 -0.00713519 0)
(0.102542 -0.0060388 0)
(0.102802 -0.00492727 0)
(0.102936 -0.00381125 0)
(0.102959 -0.00270023 0)
(0.102883 -0.00160251 0)
(0.102718 -0.00052532 0)
(0.102472 0.000525 0)
(0.102151 0.00154276 0)
(0.101757 0.00252265 0)
(0.10129 0.00345954 0)
(0.10075 0.00434815 0)
(0.100132 0.00518295 0)
(0.0994298 0.00595799 0)
(0.0986368 0.00666685 0)
(0.0977443 0.00730262 0)
(0.096743 0.00785808 0)
(0.0956238 0.00832582 0)
(0.0943779 0.00869857 0)
(0.0929981 0.00896957 0)
(0.0914794 0.00913313 0)
(0.0898203 0.00918514 0)
(0.0880238 0.00912371 0)
(0.0860981 0.00894961 0)
(0.0840582 0.0086667 0)
(0.0819259 0.00828202 0)
(0.0797298 0.0078058 0)
(0.0775046 0.00725111 0)
(0.0752899 0.00663326 0)
(0.0731271 0.00596882 0)
(0.0710577 0.00527456 0)
(0.0691193 0.00456619 0)
(0.0673437 0.00385732 0)
(0.0657549 0.00315877 0)
(0.0643682 0.00247827 0)
(0.0631907 0.00182069 0)
(0.0622217 0.00118862 0)
(0.0614549 0.000583109 0)
(0.0608795 4.47211e-06 0)
(0.0604818 -0.000547095 0)
(0.0602466 -0.00107106 0)
(0.060158 -0.00156631 0)
(0.0601997 -0.00203108 0)
(0.0603558 -0.00246302 0)
(0.0606108 -0.00285929 0)
(0.0609496 -0.00321674 0)
(0.0613575 -0.00353208 0)
(0.0618202 -0.00380206 0)