/*--------------------------------*- C++ -*----------------------------------*\
| =========                 |                                                 |
| \\      /  F ield         | OpenFOAM: The Open Source CFD Toolbox           |
|  \\    /   O peration     | Version:  4.1                                   |
|   \\  /    A nd           | Web:      www.OpenFOAM.org                      |
|    \\/     M anipulation  |                                                 |
\*---------------------------------------------------------------------------*/
FoamFile
{
    version     2.0;
    format      ascii;
    class       volScalarField;
    location    "1200";
    object      p;
}
// * * * * * * * * * * * * * * * * * * * * * * * * * * * * * * * * * * * * * //

dimensions      [1 -1 -2 0 0 0 0];

internalField   nonuniform List<scalar> 
1275
(
0.712301
0.712253
0.712246
0.712203
0.712191
0.712147
0.712131
0.71208
0.712064
0.711996
0.712313
0.712262
0.712256
0.712211
0.7122
0.712156
0.712143
0.712097
0.712089
0.712042
0.712331
0.712277
0.712272
0.712225
0.712216
0.712172
0.71216
0.712117
0.712105
0.712066
0.712352
0.712296
0.712292
0.712244
0.712237
0.712194
0.712184
0.712145
0.712137
0.712104
0.712372
0.712316
0.712312
0.712265
0.712257
0.712217
0.712207
0.712171
0.712161
0.712131
0.712388
0.712333
0.712329
0.712284
0.712276
0.712238
0.712228
0.712194
0.712185
0.712157
0.712397
0.712344
0.71234
0.712297
0.712289
0.712252
0.712241
0.71221
0.712199
0.712172
0.7124
0.712351
0.712346
0.712305
0.712296
0.712261
0.71225
0.712219
0.712207
0.712181
0.712393
0.712351
0.712345
0.712306
0.712296
0.712262
0.71225
0.71222
0.712208
0.712182
0.712129
0.712137
0.712144
0.712152
0.712161
0.71217
0.71218
0.71219
0.712201
0.712213
0.712226
0.71224
0.712255
0.712272
0.71229
0.712309
0.71233
0.712354
0.712379
0.712407
0.712437
0.71247
0.712505
0.712543
0.712583
0.712625
0.712669
0.712714
0.71276
0.712806
0.712851
0.712895
0.712936
0.712975
0.713011
0.713043
0.713071
0.713095
0.713115
0.713131
0.713143
0.713151
0.713157
0.71316
0.713161
0.713161
0.71316
0.713158
0.713155
0.713153
0.71315
0.713147
0.713145
0.713143
0.713141
0.71314
0.71314
0.71314
0.71314
0.713141
0.713142
0.713143
0.713145
0.713147
0.71315
0.713152
0.713155
0.713159
0.713162
0.713166
0.71317
0.713175
0.71318
0.713185
0.71319
0.713196
0.713202
0.713208
0.711971
0.712023
0.712016
0.712038
0.712033
0.712041
0.712038
0.712041
0.712039
0.71204
0.712039
0.712039
0.712039
0.712039
0.712039
0.712039
0.71204
0.71204
0.712041
0.712042
0.712043
0.712044
0.712046
0.712048
0.71205
0.712052
0.712054
0.712057
0.71206
0.712063
0.712066
0.712069
0.712073
0.712077
0.712082
0.712086
0.712091
0.712097
0.712102
0.712109
0.712115
0.712122
0.712129
0.712137
0.712144
0.712155
0.712163
0.712173
0.712183
0.712195
0.712207
0.71222
0.712233
0.712248
0.712263
0.71228
0.712297
0.712316
0.712336
0.712358
0.712381
0.712405
0.712431
0.71246
0.712489
0.712521
0.712554
0.712589
0.712625
0.712663
0.712701
0.71274
0.712779
0.712817
0.712855
0.71289
0.712924
0.712955
0.712983
0.713008
0.713029
0.713047
0.713063
0.713075
0.713085
0.713092
0.713097
0.7131
0.713102
0.713103
0.713103
0.713103
0.713103
0.713103
0.713103
0.713104
0.713105
0.713106
0.713107
0.713108
0.71311
0.713112
0.713114
0.713116
0.713119
0.713121
0.713124
0.713127
0.713131
0.713134
0.713138
0.713141
0.713145
0.71315
0.713154
0.713159
0.713164
0.713169
0.713174
0.71318
0.713186
0.713192
0.713199
0.712046
0.71205
0.712044
0.712049
0.712043
0.712046
0.712041
0.712043
0.71204
0.712041
0.712039
0.71204
0.712039
0.71204
0.71204
0.712041
0.712041
0.712042
0.712043
0.712045
0.712047
0.712049
0.712051
0.712053
0.712056
0.712058
0.712062
0.712065
0.712069
0.712073
0.712077
0.712082
0.712087
0.712092
0.712098
0.712104
0.71211
0.712117
0.712125
0.712133
0.712141
0.71215
0.71216
0.71217
0.712181
0.712192
0.712204
0.712217
0.712231
0.712246
0.712261
0.712277
0.712294
0.712312
0.712331
0.712352
0.712373
0.712395
0.712419
0.712443
0.712469
0.712496
0.712524
0.712553
0.712584
0.712615
0.712647
0.71268
0.712713
0.712746
0.712779
0.712811
0.712842
0.712872
0.7129
0.712926
0.71295
0.712972
0.712991
0.713008
0.713022
0.713034
0.713043
0.71305
0.713056
0.71306
0.713063
0.713066
0.713069
0.713072
0.713074
0.713077
0.713079
0.713081
0.713083
0.713085
0.713088
0.71309
0.713092
0.713095
0.713098
0.713101
0.713104
0.713107
0.71311
0.713114
0.713117
0.713121
0.713124
0.713128
0.713132
0.713136
0.71314
0.713145
0.713149
0.713154
0.713159
0.713164
0.71317
0.713176
0.713182
0.713188
0.713194
0.712055
0.712055
0.71205
0.712055
0.71205
0.712054
0.71205
0.712051
0.712048
0.712049
0.712047
0.712047
0.712046
0.712046
0.712046
0.712047
0.712047
0.712048
0.712049
0.712051
0.712053
0.712056
0.712058
0.712061
0.712064
0.712068
0.712072
0.712077
0.712081
0.712086
0.712092
0.712098
0.712104
0.712111
0.712119
0.712127
0.712135
0.712144
0.712154
0.712164
0.712175
0.712186
0.712198
0.712211
0.712225
0.71224
0.712254
0.712271
0.712287
0.712305
0.712324
0.712344
0.712364
0.712385
0.712408
0.712431
0.712455
0.71248
0.712506
0.712532
0.712559
0.712587
0.712616
0.712645
0.712674
0.712703
0.712732
0.712761
0.712789
0.712816
0.712843
0.712869
0.712893
0.712915
0.712936
0.712955
0.712971
0.712985
0.712997
0.713008
0.713017
0.713024
0.713031
0.713037
0.713043
0.713047
0.713052
0.713055
0.713058
0.713061
0.713064
0.713067
0.71307
0.713073
0.713076
0.713079
0.713082
0.713086
0.713089
0.713092
0.713096
0.713099
0.713102
0.713105
0.713109
0.713112
0.713115
0.713119
0.713123
0.713126
0.71313
0.713134
0.713139
0.713143
0.713148
0.713153
0.713158
0.713163
0.713168
0.713174
0.71318
0.713186
0.713193
0.712101
0.712089
0.712084
0.712078
0.712072
0.712068
0.712063
0.712061
0.712057
0.712055
0.712052
0.712051
0.71205
0.71205
0.71205
0.712051
0.712052
0.712053
0.712055
0.712057
0.71206
0.712063
0.712066
0.71207
0.712074
0.712079
0.712084
0.71209
0.712096
0.712103
0.71211
0.712117
0.712125
0.712134
0.712143
0.712153
0.712163
0.712174
0.712186
0.712199
0.712212
0.712226
0.712241
0.712256
0.712273
0.71229
0.712308
0.712327
0.712347
0.712367
0.712389
0.712411
0.712434
0.712458
0.712483
0.712508
0.712533
0.71256
0.712586
0.712613
0.71264
0.712667
0.712694
0.712721
0.712748
0.712774
0.7128
0.712824
0.712848
0.71287
0.71289
0.712909
0.712927
0.712942
0.712957
0.71297
0.712981
0.712992
0.713001
0.71301
0.713017
0.713024
0.713029
0.713033
0.713037
0.713041
0.713045
0.713049
0.713053
0.713057
0.713061
0.713065
0.713069
0.713073
0.713076
0.713079
0.713083
0.713086
0.713089
0.713092
0.713095
0.713098
0.713101
0.713105
0.713108
0.713111
0.713115
0.713119
0.713122
0.713126
0.71313
0.713134
0.713139
0.713143
0.713148
0.713153
0.713158
0.713163
0.713168
0.713174
0.71318
0.713186
0.713193
0.712122
0.712105
0.712099
0.712089
0.712083
0.712077
0.712072
0.712068
0.712064
0.712061
0.712059
0.712057
0.712056
0.712055
0.712055
0.712056
0.712057
0.712058
0.712061
0.712063
0.712066
0.71207
0.712074
0.712079
0.712084
0.712089
0.712096
0.712102
0.712109
0.712117
0.712126
0.712134
0.712144
0.712154
0.712165
0.712176
0.712189
0.712201
0.712215
0.71223
0.712245
0.712261
0.712278
0.712295
0.712314
0.712333
0.712353
0.712374
0.712396
0.712419
0.712442
0.712466
0.712491
0.712516
0.712541
0.712567
0.712593
0.71262
0.712646
0.712672
0.712698
0.712724
0.712749
0.712773
0.712796
0.712819
0.71284
0.71286
0.712879
0.712896
0.712913
0.712928
0.712943
0.712956
0.712967
0.712978
0.712986
0.712994
0.713001
0.713007
0.713013
0.713018
0.713024
0.71303
0.713035
0.713041
0.713046
0.71305
0.713054
0.713058
0.713062
0.713065
0.713068
0.713072
0.713075
0.713078
0.713082
0.713085
0.713088
0.713092
0.713095
0.713098
0.713102
0.713105
0.713108
0.713112
0.713115
0.713119
0.713123
0.713127
0.713131
0.713135
0.713139
0.713143
0.713148
0.713153
0.713158
0.713163
0.713169
0.713174
0.71318
0.713187
0.713193
0.712149
0.712129
0.712122
0.712108
0.712101
0.712091
0.712085
0.712077
0.712073
0.712068
0.712065
0.712062
0.71206
0.712059
0.712059
0.71206
0.712061
0.712063
0.712065
0.712068
0.712072
0.712076
0.712081
0.712086
0.712092
0.712098
0.712105
0.712113
0.712121
0.71213
0.712139
0.712149
0.71216
0.712171
0.712183
0.712196
0.712209
0.712224
0.712239
0.712254
0.712271
0.712289
0.712307
0.712326
0.712346
0.712367
0.712388
0.71241
0.712433
0.712457
0.712481
0.712506
0.712531
0.712556
0.712581
0.712607
0.712632
0.712658
0.712683
0.712707
0.712731
0.712755
0.712778
0.7128
0.712821
0.712841
0.71286
0.712877
0.712894
0.712909
0.712922
0.712935
0.712946
0.712956
0.712965
0.712974
0.712983
0.712991
0.712999
0.713007
0.713014
0.71302
0.713026
0.713031
0.713036
0.71304
0.713045
0.713049
0.713053
0.713057
0.713061
0.713065
0.713068
0.713072
0.713076
0.713079
0.713082
0.713085
0.713089
0.713092
0.713095
0.713098
0.713102
0.713105
0.713108
0.713112
0.713116
0.713119
0.713123
0.713127
0.713131
0.713135
0.71314
0.713144
0.713149
0.713154
0.713159
0.713164
0.713169
0.713175
0.713181
0.713187
0.713194
0.712161
0.71214
0.712131
0.712115
0.712107
0.712095
0.712089
0.71208
0.712075
0.71207
0.712067
0.712063
0.712062
0.71206
0.71206
0.712061
0.712062
0.712064
0.712067
0.71207
0.712074
0.712078
0.712084
0.712089
0.712096
0.712103
0.71211
0.712118
0.712127
0.712136
0.712146
0.712157
0.712168
0.71218
0.712193
0.712206
0.71222
0.712235
0.712251
0.712267
0.712284
0.712303
0.712321
0.712341
0.712361
0.712382
0.712404
0.712427
0.71245
0.712474
0.712498
0.712522
0.712547
0.712572
0.712597
0.712622
0.712647
0.712671
0.712696
0.712719
0.712742
0.712764
0.712785
0.712806
0.712825
0.712843
0.71286
0.712876
0.712891
0.712905
0.712918
0.712931
0.712943
0.712954
0.712965
0.712975
0.712984
0.712992
0.712999
0.713006
0.713012
0.713018
0.713023
0.713029
0.713034
0.713039
0.713044
0.713049
0.713053
0.713057
0.713061
0.713064
0.713068
0.713072
0.713075
0.713078
0.713082
0.713085
0.713088
0.713092
0.713095
0.713098
0.713102
0.713105
0.713109
0.713112
0.713116
0.713119
0.713123
0.713127
0.713131
0.713135
0.71314
0.713144
0.713149
0.713154
0.713159
0.713164
0.71317
0.713175
0.713181
0.713188
0.713194
0.71217
0.712149
0.712138
0.712122
0.712113
0.7121
0.712093
0.712084
0.712078
0.712072
0.712069
0.712065
0.712063
0.712062
0.712062
0.712062
0.712064
0.712065
0.712068
0.712072
0.712076
0.71208
0.712086
0.712092
0.712098
0.712105
0.712113
0.712121
0.71213
0.71214
0.71215
0.712161
0.712172
0.712184
0.712197
0.712211
0.712225
0.71224
0.712256
0.712273
0.71229
0.712309
0.712328
0.712347
0.712368
0.712389
0.712411
0.712433
0.712456
0.71248
0.712504
0.712528
0.712552
0.712577
0.712601
0.712626
0.71265
0.712673
0.712696
0.712719
0.712741
0.712763
0.712784
0.712804
0.712823
0.712841
0.712859
0.712876
0.712891
0.712905
0.712919
0.712931
0.712943
0.712953
0.712963
0.712972
0.712981
0.712989
0.712997
0.713005
0.713011
0.713018
0.713024
0.713029
0.713034
0.713039
0.713044
0.713048
0.713052
0.713056
0.71306
0.713064
0.713068
0.713071
0.713075
0.713078
0.713082
0.713085
0.713088
0.713092
0.713095
0.713098
0.713102
0.713105
0.713108
0.713112
0.713116
0.713119
0.713123
0.713127
0.713131
0.713135
0.71314
0.713144
0.713149
0.713154
0.713159
0.713164
0.71317
0.713176
0.713182
0.713188
0.713194
0.71217
0.712149
0.712137
0.712121
0.712111
0.712098
0.712091
0.712082
0.712076
0.71207
0.712066
0.712063
0.712061
0.712059
0.712059
0.71206
0.712061
0.712063
0.712066
0.712069
0.712074
0.712078
0.712084
0.71209
0.712096
0.712103
0.712111
0.712119
0.712128
0.712138
0.712148
0.712159
0.71217
0.712182
0.712195
0.712209
0.712223
0.712238
0.712254
0.71227
0.712287
0.712306
0.712324
0.712344
0.712364
0.712385
0.712407
0.712429
0.712452
0.712475
0.712499
0.712523
0.712547
0.712571
0.712596
0.71262
0.712645
0.712669
0.712692
0.712715
0.712738
0.712759
0.712781
0.712801
0.71282
0.712838
0.712856
0.712872
0.712887
0.712902
0.712916
0.712928
0.71294
0.712952
0.712962
0.712972
0.712981
0.712989
0.712997
0.713004
0.713011
0.713017
0.713023
0.713028
0.713034
0.713039
0.713043
0.713048
0.713052
0.713056
0.71306
0.713064
0.713068
0.713071
0.713075
0.713078
0.713081
0.713085
0.713088
0.713091
0.713095
0.713098
0.713101
0.713105
0.713108
0.713112
0.713115
0.713119
0.713123
0.713127
0.713131
0.713135
0.713139
0.713144
0.713149
0.713153
0.713159
0.713164
0.713169
0.713175
0.713181
0.713187
0.713194
)
;

boundaryField
{
    inlet
    {
        type            zeroGradient;
    }
    outlet
    {
        type            fixedValue;
        value           nonuniform 0();
    }
    walls
    {
        type            zeroGradient;
    }
    symwall
    {
        type            empty;
    }
    procBoundary2to0
    {
        type            processor;
        value           nonuniform List<scalar> 
133
(
0.712116
0.712122
0.712128
0.712134
0.712141
0.712148
0.712156
0.712164
0.712173
0.712182
0.712192
0.712203
0.712215
0.712228
0.712242
0.712258
0.712276
0.712296
0.712318
0.712343
0.712371
0.712401
0.712435
0.712473
0.712514
0.712558
0.712605
0.712655
0.712706
0.71276
0.712813
0.712867
0.712919
0.71297
0.713017
0.713061
0.7131
0.713135
0.713166
0.713191
0.713211
0.713226
0.713237
0.713244
0.713248
0.713249
0.713247
0.713244
0.713239
0.713233
0.713227
0.713221
0.713215
0.71321
0.713204
0.713199
0.713195
0.713191
0.713188
0.713185
0.713183
0.713182
0.713181
0.71318
0.713181
0.713181
0.713182
0.713184
0.713186
0.713189
0.713192
0.713195
0.713199
0.713203
0.713208
0.713213
0.713219
0.712292
0.71225
0.712243
0.712201
0.712189
0.712145
0.71213
0.712079
0.712069
0.711995
0.712012
0.712039
0.712033
0.712038
0.712033
0.712035
0.712032
0.712034
0.712032
0.712033
0.712032
0.712033
0.712033
0.712034
0.712034
0.712035
0.712036
0.712037
0.712037
0.712039
0.71204
0.712041
0.712042
0.712044
0.712046
0.712048
0.71205
0.712052
0.712054
0.712057
0.71206
0.712063
0.712066
0.712069
0.712073
0.712077
0.712081
0.712085
0.712089
0.712094
0.712099
0.712105
0.71211
0.712116
0.712123
0.712123
)
;
    }
    procBoundary2to1
    {
        type            processor;
        value           uniform 0.713225;
    }
    procBoundary2to3
    {
        type            processor;
        value           nonuniform List<scalar> 10(0.713215 0.713206 0.713201 0.713199 0.713199 0.7132 0.713201 0.713201 0.713201 0.713201);
    }
}


// ************************************************************************* //
