/*--------------------------------*- C++ -*----------------------------------*\
| =========                 |                                                 |
| \\      /  F ield         | OpenFOAM: The Open Source CFD Toolbox           |
|  \\    /   O peration     | Version:  4.1                                   |
|   \\  /    A nd           | Web:      www.OpenFOAM.org                      |
|    \\/     M anipulation  |                                                 |
\*---------------------------------------------------------------------------*/
FoamFile
{
    version     2.0;
    format      ascii;
    class       volScalarField;
    location    "600";
    object      p;
}
// * * * * * * * * * * * * * * * * * * * * * * * * * * * * * * * * * * * * * //

dimensions      [1 -1 -2 0 0 0 0];

internalField   nonuniform List<scalar> 
1275
(
0.713394
0.713404
0.713414
0.713423
0.713431
0.713439
0.713447
0.713454
0.71346
0.713466
0.713472
0.713477
0.713482
0.713487
0.713491
0.713495
0.713499
0.713502
0.713506
0.713509
0.713512
0.713515
0.713518
0.713521
0.713524
0.713527
0.71353
0.713533
0.713536
0.713539
0.713542
0.713545
0.713549
0.713552
0.713556
0.71356
0.713564
0.713568
0.713572
0.713576
0.71358
0.713584
0.713587
0.713591
0.713594
0.713597
0.713599
0.713601
0.713602
0.713604
0.713604
0.713605
0.713606
0.713606
0.713607
0.713608
0.71361
0.713613
0.713618
0.713623
0.713631
0.713641
0.713653
0.713668
0.713685
0.713705
0.713727
0.713752
0.71378
0.713809
0.713841
0.713874
0.713908
0.713943
0.713979
0.714014
0.714049
0.714083
0.714117
0.714149
0.714179
0.714208
0.714235
0.714259
0.714282
0.714302
0.71432
0.714335
0.714348
0.714357
0.714365
0.714369
0.714371
0.71437
0.714366
0.71436
0.714351
0.71434
0.714326
0.714311
0.714294
0.714276
0.714257
0.714236
0.714215
0.714192
0.71417
0.714147
0.714124
0.714103
0.714084
0.714067
0.714054
0.714044
0.71404
0.714038
0.714045
0.714054
0.714071
0.714088
0.714115
0.714135
0.714169
0.714189
0.714224
0.714237
0.714268
0.714274
0.713396
0.713406
0.713416
0.713425
0.713434
0.713442
0.713449
0.713456
0.713462
0.713468
0.713473
0.713478
0.713483
0.713487
0.713491
0.713495
0.713499
0.713503
0.713506
0.713509
0.713512
0.713515
0.713518
0.713521
0.713524
0.713527
0.71353
0.713533
0.713536
0.713539
0.713542
0.713545
0.713549
0.713552
0.713556
0.71356
0.713564
0.713568
0.713572
0.713576
0.71358
0.713584
0.713588
0.713591
0.713595
0.713598
0.7136
0.713602
0.713604
0.713605
0.713606
0.713607
0.713607
0.713607
0.713608
0.713609
0.713611
0.713613
0.713617
0.713623
0.71363
0.713639
0.713651
0.713665
0.713682
0.713701
0.713723
0.713748
0.713775
0.713805
0.713836
0.713869
0.713903
0.713938
0.713974
0.714009
0.714044
0.714078
0.714111
0.714143
0.714174
0.714203
0.714229
0.714254
0.714276
0.714297
0.714315
0.71433
0.714343
0.714353
0.714361
0.714366
0.714368
0.714368
0.714365
0.71436
0.714352
0.714341
0.714329
0.714315
0.714299
0.714282
0.714262
0.714242
0.71422
0.714198
0.714175
0.714151
0.714128
0.714106
0.714086
0.714068
0.714054
0.714043
0.714037
0.714035
0.714041
0.71405
0.714068
0.714084
0.714112
0.714133
0.714167
0.714187
0.714223
0.714237
0.71427
0.714275
0.713399
0.713409
0.713418
0.713427
0.713435
0.713442
0.713449
0.713456
0.713462
0.713468
0.713474
0.713479
0.713484
0.713488
0.713492
0.713496
0.7135
0.713503
0.713506
0.713509
0.713512
0.713515
0.713518
0.713521
0.713524
0.713527
0.71353
0.713533
0.713536
0.713539
0.713542
0.713545
0.713548
0.713552
0.713556
0.71356
0.713564
0.713568
0.713572
0.713576
0.71358
0.713584
0.713588
0.713592
0.713595
0.713598
0.713601
0.713603
0.713605
0.713606
0.713607
0.713607
0.713607
0.713607
0.713608
0.713608
0.71361
0.713612
0.713615
0.713621
0.713627
0.713636
0.713648
0.713662
0.713678
0.713698
0.71372
0.713744
0.713772
0.713801
0.713832
0.713865
0.713899
0.713934
0.71397
0.714005
0.71404
0.714074
0.714107
0.714139
0.714169
0.714197
0.714224
0.714248
0.714271
0.714291
0.714309
0.714324
0.714337
0.714347
0.714355
0.71436
0.714363
0.714362
0.714359
0.714354
0.714346
0.714335
0.714323
0.714309
0.714293
0.714275
0.714256
0.714236
0.714215
0.714192
0.714169
0.714146
0.714123
0.7141
0.71408
0.714062
0.714048
0.714037
0.714032
0.71403
0.714036
0.714045
0.714063
0.71408
0.714108
0.71413
0.714166
0.714187
0.714225
0.714239
0.714272
0.714276
0.713395
0.713406
0.713417
0.713427
0.713436
0.713445
0.713452
0.713459
0.713465
0.713471
0.713475
0.71348
0.713484
0.713488
0.713493
0.713497
0.7135
0.713504
0.713507
0.71351
0.713513
0.713516
0.713519
0.713522
0.713524
0.713527
0.71353
0.713532
0.713535
0.713538
0.713542
0.713545
0.713548
0.713552
0.713556
0.713559
0.713564
0.713568
0.713572
0.713576
0.713581
0.713585
0.713589
0.713593
0.713596
0.713599
0.713602
0.713604
0.713606
0.713607
0.713608
0.713608
0.713608
0.713608
0.713608
0.713608
0.713609
0.71361
0.713613
0.713618
0.713624
0.713633
0.713644
0.713657
0.713673
0.713692
0.713714
0.713739
0.713766
0.713795
0.713826
0.713859
0.713893
0.713928
0.713962
0.713997
0.714032
0.714065
0.714098
0.714129
0.714158
0.714186
0.714212
0.714236
0.714257
0.714277
0.714294
0.714309
0.714322
0.714331
0.714339
0.714344
0.714346
0.714345
0.714342
0.714336
0.714328
0.714318
0.714306
0.714292
0.714277
0.71426
0.714242
0.714222
0.714201
0.71418
0.714157
0.714135
0.714112
0.714091
0.714071
0.714054
0.71404
0.71403
0.714025
0.714024
0.714031
0.714042
0.714061
0.71408
0.714109
0.714132
0.714167
0.714189
0.714227
0.714241
0.714275
0.714276
0.713382
0.713395
0.713407
0.713418
0.713429
0.713439
0.713448
0.713456
0.713464
0.71347
0.713477
0.713482
0.713487
0.713491
0.713495
0.713498
0.713501
0.713505
0.713508
0.713511
0.713514
0.713516
0.713519
0.713522
0.713525
0.713527
0.71353
0.713533
0.713535
0.713538
0.713541
0.713545
0.713548
0.713551
0.713555
0.713559
0.713563
0.713567
0.713572
0.713576
0.713581
0.713585
0.713589
0.713593
0.713597
0.7136
0.713603
0.713605
0.713607
0.713608
0.713609
0.713609
0.713609
0.713608
0.713608
0.713608
0.713608
0.71361
0.713612
0.713617
0.713623
0.713631
0.713642
0.713655
0.713671
0.71369
0.713712
0.713736
0.713763
0.713792
0.713823
0.713855
0.713888
0.713922
0.713956
0.71399
0.714024
0.714056
0.714088
0.714118
0.714146
0.714172
0.714197
0.71422
0.71424
0.714258
0.714274
0.714288
0.714299
0.714308
0.714314
0.714317
0.714318
0.714316
0.714311
0.714304
0.714295
0.714284
0.714271
0.714256
0.71424
0.714224
0.714206
0.714188
0.714169
0.71415
0.71413
0.71411
0.71409
0.714072
0.714055
0.71404
0.714029
0.714021
0.714019
0.71402
0.714029
0.714041
0.714061
0.71408
0.71411
0.714135
0.714172
0.714195
0.714233
0.714246
0.714278
0.714275
0.713355
0.713371
0.713386
0.713401
0.713415
0.713427
0.713439
0.71345
0.713459
0.713468
0.713475
0.713482
0.713487
0.713493
0.713497
0.713502
0.713505
0.713509
0.713511
0.713514
0.713516
0.713519
0.713521
0.713523
0.713526
0.713528
0.713531
0.713533
0.713536
0.713539
0.713542
0.713545
0.713548
0.713552
0.713555
0.713559
0.713563
0.713567
0.713572
0.713576
0.713581
0.713585
0.71359
0.713594
0.713598
0.713601
0.713604
0.713607
0.713609
0.71361
0.71361
0.71361
0.71361
0.71361
0.713609
0.713609
0.713609
0.71361
0.713613
0.713617
0.713623
0.713631
0.713641
0.713654
0.71367
0.713689
0.71371
0.713734
0.71376
0.713789
0.713819
0.71385
0.713883
0.713916
0.713948
0.713981
0.714013
0.714044
0.714074
0.714102
0.714128
0.714153
0.714176
0.714197
0.714215
0.714232
0.714246
0.714258
0.714267
0.714273
0.714277
0.714278
0.714276
0.714271
0.714264
0.714255
0.714243
0.71423
0.714216
0.714201
0.714185
0.714169
0.714153
0.714137
0.714121
0.714106
0.71409
0.714075
0.71406
0.714046
0.714034
0.714023
0.714016
0.714012
0.714013
0.714017
0.714028
0.714042
0.714064
0.714086
0.714116
0.714142
0.714177
0.7142
0.714237
0.71425
0.714281
0.714272
0.713315
0.713334
0.713352
0.71337
0.713387
0.713404
0.713419
0.713434
0.713447
0.71346
0.713471
0.71348
0.713489
0.713496
0.713502
0.713507
0.713511
0.713515
0.713518
0.71352
0.713523
0.713525
0.713527
0.713529
0.713531
0.713533
0.713534
0.713536
0.713539
0.713541
0.713544
0.713546
0.713549
0.713553
0.713556
0.71356
0.713564
0.713568
0.713573
0.713577
0.713582
0.713586
0.713591
0.713595
0.713599
0.713602
0.713606
0.713608
0.71361
0.713611
0.713612
0.713612
0.713612
0.713612
0.713611
0.713611
0.713612
0.713613
0.713616
0.71362
0.713626
0.713634
0.713645
0.713658
0.713674
0.713692
0.713713
0.713737
0.713762
0.71379
0.713819
0.713849
0.71388
0.713911
0.713942
0.713972
0.714002
0.714031
0.714058
0.714084
0.714108
0.71413
0.714151
0.714169
0.714186
0.7142
0.714212
0.714221
0.714227
0.714231
0.714231
0.714229
0.714223
0.714215
0.714204
0.71419
0.714175
0.714158
0.714141
0.714124
0.714107
0.714091
0.714077
0.714064
0.714052
0.714041
0.714032
0.714024
0.714016
0.71401
0.714005
0.714001
0.714
0.714002
0.714007
0.714015
0.714029
0.714045
0.714067
0.71409
0.714121
0.714147
0.714182
0.714206
0.714241
0.714253
0.714281
0.71427
0.713264
0.713285
0.713307
0.713329
0.71335
0.713372
0.713392
0.713412
0.713431
0.713448
0.713463
0.713477
0.71349
0.713501
0.71351
0.713518
0.713524
0.713529
0.713533
0.713536
0.713538
0.71354
0.713541
0.713542
0.713543
0.713544
0.713545
0.713546
0.713548
0.713549
0.713551
0.713553
0.713556
0.713558
0.713561
0.713565
0.713568
0.713572
0.713576
0.713581
0.713585
0.713589
0.713594
0.713598
0.713602
0.713606
0.713609
0.713611
0.713613
0.713615
0.713616
0.713616
0.713616
0.713616
0.713616
0.713616
0.713617
0.713619
0.713622
0.713627
0.713633
0.713642
0.713652
0.713666
0.713681
0.713699
0.71372
0.713742
0.713767
0.713793
0.71382
0.713848
0.713877
0.713905
0.713934
0.713961
0.713988
0.714014
0.714039
0.714062
0.714083
0.714103
0.714121
0.714137
0.714151
0.714163
0.714172
0.714178
0.714181
0.714182
0.714178
0.714172
0.714162
0.714149
0.714133
0.714115
0.714095
0.714074
0.714053
0.714033
0.714015
0.713998
0.713985
0.713975
0.713967
0.713963
0.713961
0.713961
0.713963
0.713966
0.71397
0.713976
0.713982
0.713991
0.714001
0.714014
0.714031
0.71405
0.714073
0.714097
0.714126
0.714153
0.714185
0.71421
0.714241
0.714255
0.714281
0.71427
0.713205
0.713228
0.713253
0.713278
0.713304
0.71333
0.713357
0.713382
0.713407
0.713431
0.713453
0.713473
0.713492
0.713508
0.713522
0.713534
0.713544
0.713552
0.713558
0.713563
0.713566
0.713568
0.71357
0.71357
0.71357
0.71357
0.71357
0.713569
0.713569
0.713569
0.71357
0.713571
0.713572
0.713573
0.713575
0.713578
0.71358
0.713583
0.713587
0.71359
0.713594
0.713598
0.713602
0.713606
0.71361
0.713613
0.713616
0.713619
0.713621
0.713623
0.713624
0.713625
0.713625
0.713626
0.713626
0.713627
0.713629
0.713631
0.713635
0.713641
0.713648
0.713657
0.713668
0.713681
0.713697
0.713714
0.713734
0.713755
0.713778
0.713802
0.713826
0.713852
0.713877
0.713902
0.713927
0.713951
0.713975
0.713997
0.714018
0.714038
0.714057
0.714074
0.71409
0.714103
0.714115
0.714124
0.714131
0.714135
0.714136
0.714133
0.714126
0.714116
0.714101
0.714084
0.714063
0.714039
0.714014
0.713987
0.713962
0.713937
0.713916
0.713898
0.713884
0.713876
0.713873
0.713874
0.71388
0.713889
0.713901
0.713915
0.71393
0.713945
0.713961
0.713978
0.713995
0.714014
0.714033
0.714055
0.714078
0.714103
0.71413
0.714157
0.714187
0.71421
0.714239
0.714253
0.714278
0.71427
0.713147
0.713171
0.713199
0.713227
0.713257
0.713287
0.713319
0.71335
0.713382
0.713412
0.713442
0.713469
0.713495
0.713519
0.71354
0.713558
0.713573
0.713586
0.713596
0.713604
0.71361
0.713613
0.713615
0.713616
0.713616
0.713615
0.713613
0.713611
0.713609
0.713608
0.713606
0.713605
0.713604
0.713604
0.713604
0.713604
0.713606
0.713607
0.713609
0.713611
0.713614
0.713617
0.71362
0.713623
0.713626
0.713629
0.713632
0.713634
0.713636
0.713638
0.713639
0.713641
0.713642
0.713643
0.713644
0.713646
0.713649
0.713652
0.713657
0.713663
0.713671
0.71368
0.713692
0.713705
0.713719
0.713736
0.713754
0.713773
0.713793
0.713814
0.713835
0.713856
0.713878
0.713899
0.71392
0.71394
0.71396
0.713978
0.713996
0.714013
0.714029
0.714044
0.714058
0.714069
0.714079
0.714087
0.714092
0.714094
0.714093
0.714088
0.714079
0.714065
0.714047
0.714026
0.714
0.713971
0.713941
0.713909
0.713879
0.71385
0.713824
0.713804
0.713789
0.713782
0.713781
0.713787
0.713799
0.713817
0.713838
0.713863
0.713888
0.713914
0.71394
0.713965
0.71399
0.714014
0.714037
0.714061
0.714085
0.71411
0.714134
0.71416
0.714185
)
;

boundaryField
{
    inlet
    {
        type            zeroGradient;
    }
    outlet
    {
        type            fixedValue;
        value           uniform 0.714286;
    }
    walls
    {
        type            zeroGradient;
    }
    symwall
    {
        type            empty;
    }
    procBoundary1to0
    {
        type            processor;
        value           nonuniform List<scalar> 10(0.713383 0.713385 0.713388 0.713383 0.713368 0.713339 0.713297 0.713243 0.713182 0.713123);
    }
    procBoundary1to2
    {
        type            processor;
        value           uniform 0.713097;
    }
    procBoundary1to3
    {
        type            processor;
        value           nonuniform List<scalar> 
128
(
0.714209
0.714233
0.71425
0.714272
0.714272
0.713121
0.71315
0.713179
0.713212
0.713246
0.713282
0.713319
0.713356
0.713394
0.71343
0.713466
0.7135
0.713532
0.713561
0.713586
0.713609
0.713628
0.713644
0.713657
0.713666
0.713673
0.713677
0.71368
0.71368
0.713679
0.713676
0.713673
0.71367
0.713666
0.713662
0.713658
0.713655
0.713652
0.71365
0.713648
0.713647
0.713646
0.713646
0.713647
0.713647
0.713649
0.71365
0.713652
0.713654
0.713656
0.713658
0.71366
0.713662
0.713663
0.713665
0.713667
0.713669
0.713671
0.713673
0.713676
0.713679
0.713684
0.71369
0.713696
0.713704
0.713714
0.713725
0.713737
0.71375
0.713765
0.71378
0.713796
0.713813
0.71383
0.713847
0.713864
0.713881
0.713897
0.713914
0.71393
0.713945
0.713961
0.713975
0.71399
0.714003
0.714016
0.714028
0.714039
0.714048
0.714055
0.71406
0.714061
0.714059
0.714053
0.714043
0.714028
0.714008
0.713983
0.713954
0.713921
0.713886
0.71385
0.713814
0.713781
0.713751
0.713727
0.71371
0.713701
0.713701
0.71371
0.713727
0.71375
0.71378
0.713813
0.713848
0.713883
0.713918
0.713952
0.713983
0.714013
0.71404
0.714066
0.71409
0.714115
0.714137
0.714162
0.714209
0.714182
)
;
    }
}


// ************************************************************************* //
