/*--------------------------------*- C++ -*----------------------------------*\
| =========                 |                                                 |
| \\      /  F ield         | OpenFOAM: The Open Source CFD Toolbox           |
|  \\    /   O peration     | Version:  4.1                                   |
|   \\  /    A nd           | Web:      www.OpenFOAM.org                      |
|    \\/     M anipulation  |                                                 |
\*---------------------------------------------------------------------------*/
FoamFile
{
    version     2.0;
    format      ascii;
    class       volVectorField;
    location    "131";
    object      U;
}
// * * * * * * * * * * * * * * * * * * * * * * * * * * * * * * * * * * * * * //

dimensions      [0 1 -1 0 0 0 0];

internalField   nonuniform List<vector> 
3264
(
(4.4592e-05 -5.10171e-05 0)
(6.61463e-05 -3.34106e-05 0)
(-4.78743e-05 -1.09792e-05 0)
(-0.000258615 8.59434e-07 0)
(-0.000551112 1.12316e-05 0)
(-0.000915522 1.96519e-05 0)
(-0.00134383 3.17583e-05 0)
(-0.00183745 4.6505e-05 0)
(-0.0023927 6.55212e-05 0)
(-0.00301085 8.81023e-05 0)
(-0.00368921 0.000114367 0)
(-0.00442591 0.000143613 0)
(-0.00521583 0.000175149 0)
(-0.0060522 0.000207837 0)
(-0.00692523 0.000240322 0)
(-0.00782258 0.000271016 0)
(-0.00872937 0.000298265 0)
(-0.00962866 0.000320477 0)
(-0.0105021 0.000336269 0)
(-0.0113304 0.000344562 0)
(-0.0120945 0.000344646 0)
(-0.0127758 0.000336191 0)
(-0.0133571 0.000319221 0)
(-0.0138229 0.000294075 0)
(-0.01416 0.000261342 0)
(-0.0143573 0.000221817 0)
(-0.0144065 0.000176444 0)
(-0.0143019 0.000126282 0)
(-0.0140403 7.24763e-05 0)
(-0.0136214 1.62349e-05 0)
(-0.0130475 -4.11864e-05 0)
(-0.0123237 -9.8498e-05 0)
(-0.0114574 -0.00015439 0)
(-0.0104592 -0.000207544 0)
(-0.00934166 -0.000256654 0)
(-0.00812035 -0.000300452 0)
(-0.00681306 -0.000337733 0)
(-0.00543991 -0.000367405 0)
(-0.00402306 -0.000388534 0)
(-0.00258646 -0.000400408 0)
(-0.00115531 -0.000402597 0)
(0.000244483 -0.000395023 0)
(0.00158707 -0.000378008 0)
(0.00284759 -0.000352315 0)
(0.00400322 -0.000319142 0)
(0.00503426 -0.000280079 0)
(0.00592524 -0.00023702 0)
(0.0066658 -0.000192027 0)
(0.00725131 -0.000147175 0)
(0.00768308 -0.000104381 0)
(0.00796804 -6.52548e-05 0)
(0.00811801 -3.09664e-05 0)
(0.00814857 -2.14724e-06 0)
(0.00807778 2.11641e-05 0)
(0.00792488 3.95037e-05 0)
(0.00770918 5.38502e-05 0)
(0.00744911 6.53489e-05 0)
(0.00716163 7.49284e-05 0)
(0.00686214 8.29435e-05 0)
(0.00656457 8.90249e-05 0)
(0.00628182 9.22477e-05 0)
(0.00602598 9.1538e-05 0)
(0.0058084 8.61027e-05 0)
(0.00563951 7.56768e-05 0)
(0.00552854 6.05354e-05 0)
(0.00548311 4.13543e-05 0)
(0.00550882 1.90429e-05 0)
(0.00560879 -5.36828e-06 0)
(0.00578327 -3.07744e-05 0)
(0.00602937 -5.60059e-05 0)
(0.00634095 -7.98447e-05 0)
(0.00670876 -0.000101075 0)
(0.00712077 -0.000118575 0)
(0.00756286 -0.000131433 0)
(0.00801972 -0.000139069 0)
(0.00847593 -0.000141316 0)
(0.00891714 -0.000138447 0)
(0.00933106 -0.000131135 0)
(0.00970825 -0.000120341 0)
(0.0100425 -0.000107175 0)
(0.0103307 -9.27536e-05 0)
(0.0105728 -7.80741e-05 0)
(0.0107709 -6.39419e-05 0)
(0.0109287 -5.0936e-05 0)
(0.0110509 -3.94139e-05 0)
(0.0111428 -2.9542e-05 0)
(0.0112094 -2.13372e-05 0)
(0.0112557 -1.47112e-05 0)
(0.0112861 -9.50974e-06 0)
(0.0113042 -5.5451e-06 0)
(0.0113132 -2.61972e-06 0)
(0.0113158 -5.42513e-07 0)
(0.011314 8.6125e-07 0)
(0.0113094 1.74473e-06 0)
(0.0113032 2.23775e-06 0)
(0.0112962 2.44719e-06 0)
(0.0112891 2.45878e-06 0)
(0.0112822 2.33954e-06 0)
(0.011276 2.14052e-06 0)
(0.0112703 1.89949e-06 0)
(0.0112654 1.64349e-06 0)
(0.0112613 1.39103e-06 0)
(0.0112578 1.15404e-06 0)
(0.0112549 9.39539e-07 0)
(0.0112526 7.50911e-07 0)
(0.0112508 5.89008e-07 0)
(0.0112494 4.52973e-07 0)
(0.0112483 3.40882e-07 0)
(0.0112475 2.50218e-07 0)
(0.011247 1.78215e-07 0)
(0.0112466 1.22088e-07 0)
(0.0112463 7.91959e-08 0)
(0.0112461 4.71269e-08 0)
(0.011246 2.37497e-08 0)
(0.011246 7.22722e-09 0)
(0.011246 -3.98874e-09 0)
(0.011246 -1.11777e-08 0)
(0.011246 -1.53775e-08 0)
(0.011246 -1.74154e-08 0)
(0.0112461 -1.79387e-08 0)
(0.0112461 -1.74449e-08 0)
(0.0112462 -1.63085e-08 0)
(0.0112462 -1.48057e-08 0)
(0.0112463 -1.31341e-08 0)
(0.0112463 -1.14311e-08 0)
(0.0112463 -9.78764e-09 0)
(0.0112463 -8.26022e-09 0)
(0.0112464 -6.88013e-09 0)
(0.0112464 -5.66072e-09 0)
(0.0112464 -4.60307e-09 0)
(0.0112464 -3.7002e-09 0)
(0.0112464 -2.94028e-09 0)
(0.0112464 -2.30885e-09 0)
(0.0112464 -1.79047e-09 0)
(0.0112464 -1.36978e-09 0)
(0.0112464 -1.03222e-09 0)
(0.0112464 -7.64427e-10 0)
(0.0112464 -5.54464e-10 0)
(0.0112464 -3.91866e-10 0)
(0.0112464 -2.67623e-10 0)
(0.0112464 -1.74101e-10 0)
(0.0112464 -1.04903e-10 0)
(0.0112464 -5.47484e-11 0)
(0.0112464 -1.93199e-11 0)
(0.0112464 4.87277e-12 0)
(0.0112464 2.06179e-11 0)
(0.0112464 3.01213e-11 0)
(0.0112464 3.51029e-11 0)
(0.0112464 3.6893e-11 0)
(0.0112464 3.65056e-11 0)
(0.0112464 3.46994e-11 0)
(0.0112464 3.20397e-11 0)
(0.0112464 2.89299e-11 0)
(0.0112464 2.56579e-11 0)
(0.0112464 2.24183e-11 0)
(0.0112464 1.93387e-11 0)
(0.0112464 1.64954e-11 0)
(0.0112464 1.39289e-11 0)
(0.0112464 1.16525e-11 0)
(0.0112464 9.66217e-12 0)
(0.0112464 7.94482e-12 0)
(0.0112464 6.47982e-12 0)
(0.0112464 5.24245e-12 0)
(0.0112464 4.2072e-12 0)
(0.0112464 3.34727e-12 0)
(0.0112464 2.63944e-12 0)
(0.0112464 2.0631e-12 0)
(0.0112464 1.59882e-12 0)
(0.0112464 1.22661e-12 0)
(0.0112464 9.30438e-13 0)
(0.0112464 6.97012e-13 0)
(0.0112464 5.1483e-13 0)
(0.0112464 3.73781e-13 0)
(0.0112464 2.64955e-13 0)
(0.0112464 1.8097e-13 0)
(0.0112464 1.17085e-13 0)
(0.0112464 6.93274e-14 0)
(0.0112464 3.53948e-14 0)
(0.0112464 1.15917e-14 0)
(0.0112464 -5.46998e-15 0)
(0.0112464 -1.68676e-14 0)
(0.0112464 -2.43073e-14 0)
(0.0112464 -2.94343e-14 0)
(0.0112464 -3.21342e-14 0)
(0.0112464 -3.40186e-14 0)
(0.0112464 -3.45483e-14 0)
(0.0112464 -3.36141e-14 0)
(0.0112464 -3.13465e-14 0)
(0.0112464 -2.79018e-14 0)
(0.0112464 -2.37686e-14 0)
(0.0112464 -1.80608e-14 0)
(0.0112464 -1.53763e-14 0)
(0.0112464 -1.0476e-14 0)
(0.0112464 -2.58077e-14 0)
(0.0112464 -4.1066e-14 0)
(0.0112464 -1.33362e-13 0)
(0.0112464 -3.25358e-13 0)
(0.0112464 -4.93179e-13 0)
(0.0112464 -2.02235e-12 0)
(0.0112464 -1.43583e-12 0)
(-4.56573e-05 -5.84144e-05 0)
(-0.000442655 0.000134142 0)
(-0.00115412 0.000355151 0)
(-0.00205659 0.000528211 0)
(-0.00311399 0.000682397 0)
(-0.00429602 0.00081438 0)
(-0.00556964 0.000940135 0)
(-0.00691832 0.00105675 0)
(-0.00831797 0.00116806 0)
(-0.00975285 0.00127187 0)
(-0.0112024 0.001367 0)
(-0.0126478 0.00145016 0)
(-0.0140671 0.00151781 0)
(-0.0154382 0.00156586 0)
(-0.0167375 0.00159039 0)
(-0.0179417 0.00158795 0)
(-0.0190278 0.00155591 0)
(-0.0199741 0.00149264 0)
(-0.0207607 0.0013976 0)
(-0.0213698 0.00127132 0)
(-0.0217864 0.00111529 0)
(-0.021998 0.000931779 0)
(-0.0219947 0.000723707 0)
(-0.0217698 0.000494451 0)
(-0.0213187 0.000247716 0)
(-0.0206399 -1.25783e-05 0)
(-0.0197342 -0.000282366 0)
(-0.018605 -0.000557489 0)
(-0.0172581 -0.00083372 0)
(-0.0157019 -0.00110678 0)
(-0.013947 -0.00137233 0)
(-0.0120067 -0.001626 0)
(-0.00989662 -0.00186338 0)
(-0.00763504 -0.00208004 0)
(-0.00524283 -0.00227155 0)
(-0.00274348 -0.00243357 0)
(-0.000163172 -0.00256193 0)
(0.0024693 -0.0026527 0)
(0.0051226 -0.00270245 0)
(0.00776304 -0.00270836 0)
(0.010355 -0.00266855 0)
(0.0128614 -0.00258233 0)
(0.0152444 -0.00245049 0)
(0.0174666 -0.00227559 0)
(0.0194923 -0.00206213 0)
(0.0212886 -0.00181661 0)
(0.0228279 -0.00154735 0)
(0.0240888 -0.0012641 0)
(0.0250584 -0.00097741 0)
(0.0257335 -0.000697754 0)
(0.0261216 -0.00043467 0)
(0.026241 -0.00019602 0)
(0.0261203 1.24364e-05 0)
(0.0257967 0.000187073 0)
(0.0253129 0.000326143 0)
(0.0247143 0.000429422 0)
(0.024045 0.000497901 0)
(0.0233453 0.000533542 0)
(0.0226506 0.000539017 0)
(0.0219916 0.000517425 0)
(0.0213947 0.000472008 0)
(0.0208829 0.000405921 0)
(0.0204755 0.000322073 0)
(0.0201878 0.000223085 0)
(0.0200308 0.00011146 0)
(0.020011 -1.00655e-05 0)
(0.0201305 -0.000138147 0)
(0.020387 -0.000268624 0)
(0.0207739 -0.000396557 0)
(0.0212803 -0.000516495 0)
(0.021891 -0.00062288 0)
(0.0225866 -0.000710522 0)
(0.0233444 -0.000775117 0)
(0.0241394 -0.000813724 0)
(0.0249452 -0.000825166 0)
(0.0257363 -0.000810244 0)
(0.0264897 -0.000771689 0)
(0.0271863 -0.000713831 0)
(0.0278122 -0.000642032 0)
(0.0283592 -0.000562 0)
(0.0288245 -0.000479136 0)
(0.0292101 -0.000398038 0)
(0.0295212 -0.000322212 0)
(0.0297656 -0.000253999 0)
(0.0299523 -0.000194664 0)
(0.0300905 -0.000144589 0)
(0.0301892 -0.000103495 0)
(0.0302565 -7.06667e-05 0)
(0.0302994 -4.5141e-05 0)
(0.0303241 -2.58517e-05 0)
(0.0303354 -1.17341e-05 0)
(0.0303373 -1.7918e-06 0)
(0.030333 4.86547e-06 0)
(0.0303248 9.00502e-06 0)
(0.0303144 1.12688e-05 0)
(0.0303032 1.21799e-05 0)
(0.0302921 1.21543e-05 0)
(0.0302815 1.1515e-05 0)
(0.0302718 1.05062e-05 0)
(0.0302632 9.30764e-06 0)
(0.0302558 8.04694e-06 0)
(0.0302495 6.81095e-06 0)
(0.0302443 5.65512e-06 0)
(0.0302401 4.61148e-06 0)
(0.0302367 3.69506e-06 0)
(0.030234 2.90894e-06 0)
(0.0302319 2.24831e-06 0)
(0.0302303 1.70345e-06 0)
(0.0302291 1.26197e-06 0)
(0.0302283 9.104e-07 0)
(0.0302276 6.35309e-07 0)
(0.0302272 4.23988e-07 0)
(0.030227 2.64878e-07 0)
(0.0302268 1.47779e-07 0)
(0.0302267 6.39112e-08 0)
(0.0302267 5.8721e-09 0)
(0.0302267 -3.24573e-08 0)
(0.0302268 -5.60484e-08 0)
(0.0302268 -6.88715e-08 0)
(0.0302269 -7.40446e-08 0)
(0.0302269 -7.39741e-08 0)
(0.030227 -7.04834e-08 0)
(0.0302271 -6.49258e-08 0)
(0.0302271 -5.82823e-08 0)
(0.0302272 -5.12436e-08 0)
(0.0302272 -4.4278e-08 0)
(0.0302272 -3.76868e-08 0)
(0.0302272 -3.16479e-08 0)
(0.0302273 -2.62508e-08 0)
(0.0302273 -2.1523e-08 0)
(0.0302273 -1.7451e-08 0)
(0.0302273 -1.3995e-08 0)
(0.0302273 -1.11001e-08 0)
(0.0302273 -8.70439e-09 0)
(0.0302273 -6.74418e-09 0)
(0.0302273 -5.15783e-09 0)
(0.0302274 -3.88784e-09 0)
(0.0302274 -2.88215e-09 0)
(0.0302274 -2.09466e-09 0)
(0.0302274 -1.48532e-09 0)
(0.0302274 -1.01988e-09 0)
(0.0302274 -6.69418e-10 0)
(0.0302274 -4.09861e-10 0)
(0.0302274 -2.21376e-10 0)
(0.0302274 -8.78079e-11 0)
(0.0302274 3.86978e-12 0)
(0.0302274 6.40451e-11 0)
(0.0302274 1.00916e-10 0)
(0.0302274 1.20881e-10 0)
(0.0302274 1.28875e-10 0)
(0.0302274 1.28656e-10 0)
(0.0302274 1.23051e-10 0)
(0.0302274 1.14147e-10 0)
(0.0302274 1.03458e-10 0)
(0.0302274 9.20525e-11 0)
(0.0302274 8.06616e-11 0)
(0.0302274 6.97658e-11 0)
(0.0302274 5.9657e-11 0)
(0.0302274 5.04962e-11 0)
(0.0302274 4.23442e-11 0)
(0.0302274 3.52006e-11 0)
(0.0302274 2.90215e-11 0)
(0.0302274 2.3737e-11 0)
(0.0302274 1.92658e-11 0)
(0.0302274 1.55161e-11 0)
(0.0302274 1.23984e-11 0)
(0.0302274 9.82841e-12 0)
(0.0302274 7.72736e-12 0)
(0.0302274 6.02517e-12 0)
(0.0302274 4.65588e-12 0)
(0.0302274 3.56119e-12 0)
(0.0302274 2.69269e-12 0)
(0.0302274 2.00941e-12 0)
(0.0302274 1.47124e-12 0)
(0.0302274 1.05247e-12 0)
(0.0302274 7.30453e-13 0)
(0.0302274 4.83511e-13 0)
(0.0302274 2.9934e-13 0)
(0.0302274 1.60545e-13 0)
(0.0302274 5.85538e-14 0)
(0.0302274 -1.38264e-14 0)
(0.0302274 -6.63332e-14 0)
(0.0302274 -1.01695e-13 0)
(0.0302274 -1.28922e-13 0)
(0.0302274 -1.49062e-13 0)
(0.0302274 -1.60455e-13 0)
(0.0302274 -1.66992e-13 0)
(0.0302274 -1.63823e-13 0)
(0.0302274 -1.5658e-13 0)
(0.0302274 -1.43247e-13 0)
(0.0302274 -1.19436e-13 0)
(0.0302274 -9.02024e-14 0)
(0.0302274 -4.89602e-14 0)
(0.0302274 -4.00152e-14 0)
(0.0302274 9.06478e-15 0)
(0.0302274 -1.38815e-13 0)
(0.0302274 -3.52858e-13 0)
(0.0302274 -5.33385e-13 0)
(0.0302274 -3.91521e-12 0)
(0.0302274 -3.34876e-12 0)
(-0.000187947 0.000433464 0)
(-0.00116432 0.00107638 0)
(-0.00253197 0.00158626 0)
(-0.00403309 0.0019211 0)
(-0.00559327 0.00219824 0)
(-0.00716736 0.00240364 0)
(-0.00871118 0.0025723 0)
(-0.0102079 0.00270111 0)
(-0.011634 0.00279993 0)
(-0.0129767 0.00286705 0)
(-0.0142192 0.00290215 0)
(-0.0153469 0.00290186 0)
(-0.0163439 0.00286296 0)
(-0.017195 0.00278218 0)
(-0.0178855 0.00265704 0)
(-0.0184019 0.00248605 0)
(-0.0187322 0.00226888 0)
(-0.018866 0.00200639 0)
(-0.0187949 0.00170053 0)
(-0.0185124 0.00135422 0)
(-0.0180138 0.000971181 0)
(-0.0172962 0.000555749 0)
(-0.0163581 0.000112733 0)
(-0.0152 -0.000352717 0)
(-0.0138236 -0.000835199 0)
(-0.0122325 -0.00132912 0)
(-0.0104315 -0.00182873 0)
(-0.00842724 -0.0023281 0)
(-0.00622794 -0.00282117 0)
(-0.00384364 -0.00330167 0)
(-0.00128624 -0.00376314 0)
(0.00143031 -0.0041989 0)
(0.00428992 -0.00460205 0)
(0.00727418 -0.00496551 0)
(0.0103623 -0.00528199 0)
(0.0135307 -0.00554415 0)
(0.0167533 -0.00574464 0)
(0.0200012 -0.00587632 0)
(0.0232425 -0.00593251 0)
(0.0264427 -0.00590731 0)
(0.0295645 -0.00579604 0)
(0.0325687 -0.00559576 0)
(0.0354143 -0.0053058 0)
(0.0380597 -0.00492839 0)
(0.0404635 -0.00446914 0)
(0.0425862 -0.00393752 0)
(0.0443914 -0.00334699 0)
(0.0458476 -0.00271494 0)
(0.0469304 -0.0020622 0)
(0.0476241 -0.00141213 0)
(0.0479244 -0.000789279 0)
(0.0478395 -0.000217471 0)
(0.0473926 0.000282385 0)
(0.0466217 0.000694695 0)
(0.045579 0.00101115 0)
(0.0443283 0.00123154 0)
(0.042941 0.00136281 0)
(0.0414908 0.00141616 0)
(0.0400482 0.00140329 0)
(0.0386758 0.00133349 0)
(0.037424 0.00121286 0)
(0.0363293 0.00104569 0)
(0.0354149 0.000836559 0)
(0.0346936 0.000591779 0)
(0.0341714 0.000319583 0)
(0.0338498 2.95341e-05 0)
(0.0337271 -0.000268206 0)
(0.0337983 -0.000563362 0)
(0.0340541 -0.000845719 0)
(0.0344807 -0.00110516 0)
(0.0350596 -0.00133179 0)
(0.0357676 -0.00151637 0)
(0.0365771 -0.00165107 0)
(0.037457 -0.00173036 0)
(0.0383738 -0.00175203 0)
(0.039294 -0.00171779 0)
(0.0401859 -0.00163339 0)
(0.0410223 -0.00150807 0)
(0.0417821 -0.00135337 0)
(0.0424516 -0.00118164 0)
(0.0430245 -0.00100457 0)
(0.0435009 -0.000832044 0)
(0.0438863 -0.000671517 0)
(0.0441896 -0.000527837 0)
(0.0444217 -0.000403494 0)
(0.044594 -0.000299068 0)
(0.0447176 -0.000213763 0)
(0.0448026 -0.000145896 0)
(0.0448577 -9.33131e-05 0)
(0.0448904 -5.36929e-05 0)
(0.0449067 -2.47605e-05 0)
(0.0449114 -4.41524e-06 0)
(0.0449084 9.20069e-06 0)
(0.0449005 1.76754e-05 0)
(0.0448898 2.23293e-05 0)
(0.0448779 2.42329e-05 0)
(0.0448658 2.42345e-05 0)
(0.0448541 2.29904e-05 0)
(0.0448435 2.0996e-05 0)
(0.044834 1.8615e-05 0)
(0.0448257 1.61054e-05 0)
(0.0448187 1.36423e-05 0)
(0.0448129 1.13376e-05 0)
(0.0448081 9.2558e-06 0)
(0.0448043 7.42713e-06 0)
(0.0448012 5.85792e-06 0)
(0.0447989 4.53858e-06 0)
(0.0447971 3.44974e-06 0)
(0.0447957 2.56668e-06 0)
(0.0447947 1.86261e-06 0)
(0.044794 1.31076e-06 0)
(0.0447936 8.85879e-07 0)
(0.0447932 5.64987e-07 0)
(0.044793 3.27831e-07 0)
(0.0447929 1.5698e-07 0)
(0.0447929 3.7747e-08 0)
(0.0447929 -4.20105e-08 0)
(0.0447929 -9.21601e-08 0)
(0.044793 -1.20587e-07 0)
(0.0447931 -1.33491e-07 0)
(0.0447931 -1.35661e-07 0)
(0.0447932 -1.30738e-07 0)
(0.0447932 -1.21429e-07 0)
(0.0447933 -1.09707e-07 0)
(0.0447933 -9.6968e-08 0)
(0.0447934 -8.41684e-08 0)
(0.0447934 -7.19313e-08 0)
(0.0447934 -6.06341e-08 0)
(0.0447934 -5.0477e-08 0)
(0.0447935 -4.15357e-08 0)
(0.0447935 -3.38014e-08 0)
(0.0447935 -2.72116e-08 0)
(0.0447935 -2.16716e-08 0)
(0.0447935 -1.70707e-08 0)
(0.0447935 -1.32931e-08 0)
(0.0447935 -1.0225e-08 0)
(0.0447935 -7.75957e-09 0)
(0.0447935 -5.79934e-09 0)
(0.0447935 -4.25763e-09 0)
(0.0447935 -3.0588e-09 0)
(0.0447935 -2.13787e-09 0)
(0.0447935 -1.43984e-09 0)
(0.0447935 -9.18721e-10 0)
(0.0447935 -5.36517e-10 0)
(0.0447935 -2.62171e-10 0)
(0.0447935 -7.05609e-11 0)
(0.0447935 5.842e-11 0)
(0.0447935 1.40704e-10 0)
(0.0447935 1.88778e-10 0)
(0.0447935 2.12322e-10 0)
(0.0447935 2.18753e-10 0)
(0.0447935 2.13674e-10 0)
(0.0447935 2.01259e-10 0)
(0.0447935 1.84561e-10 0)
(0.0447935 1.65766e-10 0)
(0.0447935 1.46401e-10 0)
(0.0447935 1.27483e-10 0)
(0.0447935 1.09666e-10 0)
(0.0447935 9.33256e-11 0)
(0.0447935 7.8649e-11 0)
(0.0447935 6.5688e-11 0)
(0.0447935 5.44013e-11 0)
(0.0447935 4.46942e-11 0)
(0.0447935 3.64351e-11 0)
(0.0447935 2.94778e-11 0)
(0.0447935 2.36713e-11 0)
(0.0447935 1.88639e-11 0)
(0.0447935 1.49171e-11 0)
(0.0447935 1.17006e-11 0)
(0.0447935 9.10119e-12 0)
(0.0447935 7.0145e-12 0)
(0.0447935 5.3492e-12 0)
(0.0447935 4.02768e-12 0)
(0.0447935 2.98868e-12 0)
(0.0447935 2.1746e-12 0)
(0.0447935 1.54381e-12 0)
(0.0447935 1.05752e-12 0)
(0.0447935 6.85374e-13 0)
(0.0447935 4.0608e-13 0)
(0.0447935 1.9786e-13 0)
(0.0447935 4.46987e-14 0)
(0.0447935 -6.75734e-14 0)
(0.0447935 -1.519e-13 0)
(0.0447935 -2.12374e-13 0)
(0.0447935 -2.56751e-13 0)
(0.0447935 -2.86554e-13 0)
(0.0447935 -3.05079e-13 0)
(0.0447935 -3.14782e-13 0)
(0.0447935 -3.1071e-13 0)
(0.0447935 -2.93402e-13 0)
(0.0447935 -2.60484e-13 0)
(0.0447935 -2.11485e-13 0)
(0.0447935 -1.44181e-13 0)
(0.0447935 -6.58902e-14 0)
(0.0447935 5.92454e-14 0)
(0.0447935 5.72088e-14 0)
(0.0447935 2.42711e-13 0)
(0.0447935 -2.22534e-14 0)
(0.0447935 -1.43488e-12 0)
(0.0447935 -8.95513e-13 0)
(-0.000345675 0.00118458 0)
(-0.00177582 0.00241451 0)
(-0.00343893 0.00314877 0)
(-0.00503024 0.00350991 0)
(-0.00645097 0.00374613 0)
(-0.00772348 0.00386275 0)
(-0.00882479 0.00392175 0)
(-0.00977405 0.00392705 0)
(-0.010565 0.00389455 0)
(-0.0112025 0.00382362 0)
(-0.0116822 0.0037142 0)
(-0.0120019 0.00356264 0)
(-0.0121562 0.00336567 0)
(-0.0121406 0.0031201 0)
(-0.01195 0.00282385 0)
(-0.0115798 0.00247594 0)
(-0.0110262 0.00207665 0)
(-0.0102859 0.00162746 0)
(-0.0093564 0.00113094 0)
(-0.00823587 0.000590618 0)
(-0.0069233 1.07874e-05 0)
(-0.0054184 -0.000603602 0)
(-0.00372167 -0.00124708 0)
(-0.00183449 -0.00191376 0)
(0.000240839 -0.00259738 0)
(0.00250093 -0.00329135 0)
(0.0049412 -0.00398875 0)
(0.00755571 -0.00468232 0)
(0.010337 -0.00536443 0)
(0.0132759 -0.00602706 0)
(0.0163613 -0.00666177 0)
(0.0195802 -0.00725971 0)
(0.0229174 -0.00781156 0)
(0.0263552 -0.00830759 0)
(0.0298736 -0.00873768 0)
(0.0334496 -0.00909139 0)
(0.0370579 -0.00935808 0)
(0.0406697 -0.00952716 0)
(0.0442538 -0.00958841 0)
(0.0477759 -0.0095324 0)
(0.0511989 -0.00935109 0)
(0.054484 -0.00903855 0)
(0.0575908 -0.00859174 0)
(0.0604782 -0.00801134 0)
(0.0631061 -0.00730248 0)
(0.0654359 -0.00647532 0)
(0.0674322 -0.00554537 0)
(0.0690632 -0.00453344 0)
(0.0703018 -0.00346533 0)
(0.0711263 -0.00237113 0)
(0.0715207 -0.00128433 0)
(0.0714757 -0.000240605 0)
(0.0709901 0.000723737 0)
(0.0700731 0.00157373 0)
(0.068747 0.00227828 0)
(0.0670504 0.00281315 0)
(0.0650404 0.00316388 0)
(0.0627937 0.00332816 0)
(0.0604028 0.00331672 0)
(0.0579695 0.00315214 0)
(0.0555949 0.00286514 0)
(0.0533696 0.00248887 0)
(0.0513652 0.00205292 0)
(0.0496307 0.00157942 0)
(0.0481927 0.00108275 0)
(0.0470593 0.000572408 0)
(0.0462246 5.681e-05 0)
(0.0456749 -0.000453901 0)
(0.0453921 -0.000946901 0)
(0.0453561 -0.00140711 0)
(0.0455444 -0.00181831 0)
(0.0459316 -0.00216453 0)
(0.0464881 -0.00243156 0)
(0.04718 -0.00260858 0)
(0.0479694 -0.00268986 0)
(0.0488165 -0.00267605 0)
(0.0496813 -0.00257473 0)
(0.050527 -0.00239987 0)
(0.0513226 -0.00217005 0)
(0.0520449 -0.00190602 0)
(0.0526792 -0.00162799 0)
(0.0532194 -0.00135347 0)
(0.0536661 -0.00109586 0)
(0.0540255 -0.000864098 0)
(0.054307 -0.000662926 0)
(0.0545215 -0.000493698 0)
(0.0546804 -0.000355307 0)
(0.0547944 -0.000245088 0)
(0.054873 -0.000159554 0)
(0.0549244 -9.49338e-05 0)
(0.0549555 -4.75408e-05 0)
(0.0549718 -1.3982e-05 0)
(0.0549777 8.73011e-06 0)
(0.0549765 2.31418e-05 0)
(0.0549708 3.13651e-05 0)
(0.0549625 3.51114e-05 0)
(0.054953 3.57367e-05 0)
(0.0549432 3.42922e-05 0)
(0.0549337 3.15734e-05 0)
(0.054925 2.81669e-05 0)
(0.0549172 2.44913e-05 0)
(0.0549104 2.08335e-05 0)
(0.0549046 1.73791e-05 0)
(0.0548998 1.42379e-05 0)
(0.0548959 1.14646e-05 0)
(0.0548928 9.07486e-06 0)
(0.0548903 7.05859e-06 0)
(0.0548883 5.38928e-06 0)
(0.0548869 4.03141e-06 0)
(0.0548858 2.94549e-06 0)
(0.054885 2.09163e-06 0)
(0.0548844 1.43186e-06 0)
(0.054884 9.31475e-07 0)
(0.0548837 5.59761e-07 0)
(0.0548836 2.90198e-07 0)
(0.0548835 1.00388e-07 0)
(0.0548835 -2.82314e-08 0)
(0.0548835 -1.10771e-07 0)
(0.0548835 -1.59336e-07 0)
(0.0548835 -1.8346e-07 0)
(0.0548836 -1.90536e-07 0)
(0.0548836 -1.86191e-07 0)
(0.0548837 -1.74634e-07 0)
(0.0548837 -1.58943e-07 0)
(0.0548837 -1.41311e-07 0)
(0.0548838 -1.23256e-07 0)
(0.0548838 -1.05778e-07 0)
(0.0548838 -8.94998e-08 0)
(0.0548839 -7.47653e-08 0)
(0.0548839 -6.1724e-08 0)
(0.0548839 -5.03923e-08 0)
(0.0548839 -4.06994e-08 0)
(0.0548839 -3.25218e-08 0)
(0.0548839 -2.57082e-08 0)
(0.0548839 -2.00962e-08 0)
(0.0548839 -1.55241e-08 0)
(0.0548839 -1.18386e-08 0)
(0.0548839 -8.8989e-09 0)
(0.054884 -6.57889e-09 0)
(0.054884 -4.76809e-09 0)
(0.054884 -3.37124e-09 0)
(0.054884 -2.30741e-09 0)
(0.054884 -1.50873e-09 0)
(0.054884 -9.18936e-10 0)
(0.054884 -4.91928e-10 0)
(0.054884 -1.90305e-10 0)
(0.054884 1.59646e-11 0)
(0.054884 1.50741e-10 0)
(0.054884 2.32793e-10 0)
(0.054884 2.76719e-10 0)
(0.054884 2.93744e-10 0)
(0.054884 2.92397e-10 0)
(0.054884 2.7906e-10 0)
(0.054884 2.58435e-10 0)
(0.054884 2.33915e-10 0)
(0.054884 2.07892e-10 0)
(0.054884 1.81994e-10 0)
(0.054884 1.57281e-10 0)
(0.054884 1.34397e-10 0)
(0.054884 1.13687e-10 0)
(0.054884 9.52825e-11 0)
(0.054884 7.91718e-11 0)
(0.054884 6.52497e-11 0)
(0.054884 5.33576e-11 0)
(0.054884 4.33022e-11 0)
(0.054884 3.48804e-11 0)
(0.054884 2.78869e-11 0)
(0.054884 2.21265e-11 0)
(0.054884 1.74191e-11 0)
(0.054884 1.36e-11 0)
(0.054884 1.05251e-11 0)
(0.054884 8.06341e-12 0)
(0.054884 6.10627e-12 0)
(0.054884 4.5606e-12 0)
(0.054884 3.34834e-12 0)
(0.054884 2.40407e-12 0)
(0.054884 1.67415e-12 0)
(0.054884 1.11628e-12 0)
(0.054884 6.92432e-13 0)
(0.054884 3.73836e-13 0)
(0.054884 1.36794e-13 0)
(0.054884 -4.08042e-14 0)
(0.054884 -1.71415e-13 0)
(0.054884 -2.68753e-13 0)
(0.054884 -3.4044e-13 0)
(0.054884 -3.93749e-13 0)
(0.054884 -4.31987e-13 0)
(0.054884 -4.54894e-13 0)
(0.054884 -4.62824e-13 0)
(0.054884 -4.53297e-13 0)
(0.054884 -4.23954e-13 0)
(0.054884 -3.69281e-13 0)
(0.054884 -2.82687e-13 0)
(0.054884 -1.5235e-13 0)
(0.054884 2.68308e-14 0)
(0.054884 2.55549e-13 0)
(0.054884 6.69054e-13 0)
(0.054884 7.55912e-13 0)
(0.054884 1.87933e-12 0)
(0.054884 2.28997e-12 0)
(-0.000422005 0.00253337 0)
(-0.00181829 0.00412267 0)
(-0.00318684 0.00479648 0)
(-0.00429549 0.00485083 0)
(-0.0050545 0.00482898 0)
(-0.00556416 0.0047103 0)
(-0.00582951 0.00457093 0)
(-0.00590756 0.00439766 0)
(-0.00580752 0.00419948 0)
(-0.00554999 0.00396968 0)
(-0.00513882 0.00370452 0)
(-0.00457953 0.00339823 0)
(-0.0038722 0.0030462 0)
(-0.00301691 0.00264458 0)
(-0.00201205 0.00219086 0)
(-0.000855934 0.00168382 0)
(0.000453599 0.00112356 0)
(0.00191868 0.000511416 0)
(0.00354142 -0.000150182 0)
(0.00532375 -0.000857803 0)
(0.00726724 -0.00160715 0)
(0.00937298 -0.00239315 0)
(0.0116413 -0.00321006 0)
(0.0140719 -0.00405154 0)
(0.016663 -0.00491066 0)
(0.019412 -0.00577996 0)
(0.0223146 -0.00665139 0)
(0.0253651 -0.00751638 0)
(0.0285558 -0.0083657 0)
(0.0318774 -0.00918951 0)
(0.0353181 -0.00997733 0)
(0.0388641 -0.010718 0)
(0.0424991 -0.0113998 0)
(0.0462045 -0.0120103 0)
(0.0499589 -0.0125365 0)
(0.0537382 -0.0129647 0)
(0.0575155 -0.0132812 0)
(0.0612609 -0.0134717 0)
(0.0649417 -0.0135226 0)
(0.0685229 -0.013421 0)
(0.0719673 -0.0131557 0)
(0.0752366 -0.0127185 0)
(0.0782929 -0.0121047 0)
(0.0810998 -0.0113148 0)
(0.0836242 -0.0103547 0)
(0.0858374 -0.00923706 0)
(0.0877164 -0.00798067 0)
(0.0892437 -0.00661046 0)
(0.0904077 -0.00515657 0)
(0.0912014 -0.0036532 0)
(0.0916211 -0.00213739 0)
(0.0916651 -0.000647774 0)
(0.0913323 0.000776459 0)
(0.090622 0.00209653 0)
(0.0895341 0.00327491 0)
(0.0880708 0.0042763 0)
(0.08624 0.00506895 0)
(0.0840601 0.0056267 0)
(0.0815647 0.00593182 0)
(0.0788072 0.00597832 0)
(0.0758625 0.00577497 0)
(0.0728244 0.0053465 0)
(0.0697989 0.00473177 0)
(0.0668936 0.00397902 0)
(0.0642055 0.00313899 0)
(0.0618113 0.00225809 0)
(0.0597617 0.00137382 0)
(0.0580813 0.000513583 0)
(0.0567722 -0.000302878 0)
(0.0558198 -0.00105953 0)
(0.0551986 -0.00174062 0)
(0.0548764 -0.00232916 0)
(0.054817 -0.00280769 0)
(0.0549811 -0.00316056 0)
(0.0553264 -0.00337698 0)
(0.0558082 -0.00345397 0)
(0.0563816 -0.0033983 0)
(0.0570032 -0.00322654 0)
(0.0576343 -0.00296327 0)
(0.0582429 -0.00263765 0)
(0.0588054 -0.00227938 0)
(0.0593065 -0.00191514 0)
(0.0597387 -0.00156621 0)
(0.0601008 -0.00124741 0)
(0.0603961 -0.00096738 0)
(0.0606309 -0.000729515 0)
(0.0608131 -0.000533341 0)
(0.0609508 -0.000375838 0)
(0.0610521 -0.000252571 0)
(0.0611242 -0.000158536 0)
(0.0611737 -8.87338e-05 0)
(0.0612058 -3.8511e-05 0)
(0.0612249 -3.74135e-06 0)
(0.0612348 1.91095e-05 0)
(0.0612381 3.29867e-05 0)
(0.061237 4.02879e-05 0)
(0.0612332 4.29241e-05 0)
(0.0612278 4.23871e-05 0)
(0.0612218 3.9816e-05 0)
(0.0612156 3.60601e-05 0)
(0.0612097 3.17343e-05 0)
(0.0612043 2.72683e-05 0)
(0.0611995 2.29485e-05 0)
(0.0611954 1.89525e-05 0)
(0.0611919 1.53778e-05 0)
(0.061189 1.22646e-05 0)
(0.0611867 9.61426e-06 0)
(0.0611848 7.40247e-06 0)
(0.0611833 5.59007e-06 0)
(0.0611822 4.1304e-06 0)
(0.0611813 2.97453e-06 0)
(0.0611807 2.07476e-06 0)
(0.0611802 1.38681e-06 0)
(0.0611799 8.70996e-07 0)
(0.0611797 4.92731e-07 0)
(0.0611796 2.22572e-07 0)
(0.0611795 3.59499e-08 0)
(0.0611794 -8.727e-08 0)
(0.0611794 -1.63309e-07 0)
(0.0611794 -2.05026e-07 0)
(0.0611794 -2.22449e-07 0)
(0.0611795 -2.2327e-07 0)
(0.0611795 -2.13282e-07 0)
(0.0611795 -1.96762e-07 0)
(0.0611796 -1.76796e-07 0)
(0.0611796 -1.55546e-07 0)
(0.0611796 -1.34474e-07 0)
(0.0611796 -1.14516e-07 0)
(0.0611796 -9.62217e-08 0)
(0.0611797 -7.98689e-08 0)
(0.0611797 -6.55434e-08 0)
(0.0611797 -5.32039e-08 0)
(0.0611797 -4.27293e-08 0)
(0.0611797 -3.39529e-08 0)
(0.0611797 -2.66865e-08 0)
(0.0611797 -2.0737e-08 0)
(0.0611797 -1.59176e-08 0)
(0.0611797 -1.20545e-08 0)
(0.0611797 -8.99022e-09 0)
(0.0611797 -6.5857e-09 0)
(0.0611797 -4.7201e-09 0)
(0.0611797 -3.29012e-09 0)
(0.0611797 -2.20863e-09 0)
(0.0611797 -1.40307e-09 0)
(0.0611797 -8.13665e-10 0)
(0.0611797 -3.91697e-10 0)
(0.0611797 -9.78787e-11 0)
(0.0611797 9.91619e-11 0)
(0.0611797 2.24215e-10 0)
(0.0611797 2.96668e-10 0)
(0.0611797 3.31513e-10 0)
(0.0611797 3.40209e-10 0)
(0.0611797 3.31392e-10 0)
(0.0611797 3.11478e-10 0)
(0.0611797 2.8515e-10 0)
(0.0611797 2.55748e-10 0)
(0.0611797 2.25589e-10 0)
(0.0611797 1.96226e-10 0)
(0.0611797 1.68635e-10 0)
(0.0611797 1.43382e-10 0)
(0.0611797 1.20737e-10 0)
(0.0611797 1.00765e-10 0)
(0.0611797 8.3399e-11 0)
(0.0611797 6.84775e-11 0)
(0.0611797 5.57956e-11 0)
(0.0611797 4.51215e-11 0)
(0.0611797 3.62172e-11 0)
(0.0611797 2.88541e-11 0)
(0.0611797 2.2811e-11 0)
(0.0611797 1.78884e-11 0)
(0.0611797 1.39065e-11 0)
(0.0611797 1.07083e-11 0)
(0.0611797 8.15636e-12 0)
(0.0611797 6.13358e-12 0)
(0.0611797 4.54279e-12 0)
(0.0611797 3.29948e-12 0)
(0.0611797 2.33548e-12 0)
(0.0611797 1.59421e-12 0)
(0.0611797 1.02886e-12 0)
(0.0611797 6.02203e-13 0)
(0.0611797 2.816e-13 0)
(0.0611797 4.11984e-14 0)
(0.0611797 -1.39068e-13 0)
(0.0611797 -2.74336e-13 0)
(0.0611797 -3.76214e-13 0)
(0.0611797 -4.54387e-13 0)
(0.0611797 -5.14262e-13 0)
(0.0611797 -5.57004e-13 0)
(0.0611797 -5.8316e-13 0)
(0.0611797 -5.91303e-13 0)
(0.0611797 -5.77484e-13 0)
(0.0611797 -5.35367e-13 0)
(0.0611797 -4.49664e-13 0)
(0.0611797 -3.09233e-13 0)
(0.0611797 -7.98241e-14 0)
(0.0611797 2.77046e-13 0)
(0.0611797 8.37042e-13 0)
(0.0611797 1.48109e-12 0)
(0.0611797 3.96804e-12 0)
(0.0611797 4.27238e-12 0)
(-0.000688335 0.00311462 0)
(-0.00200014 0.0049857 0)
(-0.00229654 0.00550687 0)
(-0.00230132 0.00529681 0)
(-0.0018247 0.005 0)
(-0.00119626 0.00464531 0)
(-0.000361854 0.00430077 0)
(0.000592877 0.00395381 0)
(0.001676 0.00360115 0)
(0.00286649 0.00323214 0)
(0.00416576 0.00283674 0)
(0.00557006 0.00240637 0)
(0.00708136 0.00193347 0)
(0.00870111 0.00141247 0)
(0.0104324 0.000839274 0)
(0.0122784 0.000211506 0)
(0.0142427 -0.000471723 0)
(0.0163291 -0.00120985 0)
(0.0185411 -0.002001 0)
(0.0208819 -0.00284205 0)
(0.0233539 -0.00372876 0)
(0.0259591 -0.00465582 0)
(0.0286978 -0.00561696 0)
(0.0315694 -0.00660506 0)
(0.0345715 -0.00761213 0)
(0.0377002 -0.00862945 0)
(0.0409497 -0.00964751 0)
(0.0443123 -0.010656 0)
(0.0477784 -0.0116439 0)
(0.051336 -0.0125992 0)
(0.0549709 -0.0135091 0)
(0.0586664 -0.0143599 0)
(0.0624033 -0.0151372 0)
(0.0661597 -0.0158258 0)
(0.0699108 -0.0164094 0)
(0.073629 -0.0168713 0)
(0.0772839 -0.0171939 0)
(0.080842 -0.0173598 0)
(0.0842676 -0.0173516 0)
(0.0875235 -0.0171535 0)
(0.0905719 -0.0167522 0)
(0.0933767 -0.0161385 0)
(0.0959053 -0.0153086 0)
(0.0981314 -0.0142656 0)
(0.100036 -0.0130206 0)
(0.101611 -0.0115923 0)
(0.102855 -0.0100069 0)
(0.103777 -0.00829663 0)
(0.104393 -0.00649829 0)
(0.10472 -0.00465104 0)
(0.104779 -0.00279487 0)
(0.104588 -0.000969187 0)
(0.104159 0.00078814 0)
(0.103502 0.00244125 0)
(0.102618 0.00395646 0)
(0.101501 0.00530224 0)
(0.100143 0.00644917 0)
(0.0985316 0.00737018 0)
(0.0966544 0.0080413 0)
(0.0945054 0.00844318 0)
(0.0920891 0.00856343 0)
(0.0894266 0.00839946 0)
(0.0865591 0.00796106 0)
(0.0835498 0.00727193 0)
(0.0804806 0.00636944 0)
(0.0774453 0.00530227 0)
(0.07454 0.00412617 0)
(0.0718526 0.00289878 0)
(0.0694534 0.00167456 0)
(0.0673897 0.000501249 0)
(0.0656843 -0.000581387 0)
(0.0643375 -0.0015409 0)
(0.0633319 -0.00235073 0)
(0.0626365 -0.00298977 0)
(0.0622117 -0.00344351 0)
(0.0620127 -0.00370664 0)
(0.061993 -0.00378553 0)
(0.0621074 -0.00369905 0)
(0.0623141 -0.00347694 0)
(0.0625769 -0.00315586 0)
(0.0628663 -0.00277427 0)
(0.0631593 -0.00236774 0)
(0.0634394 -0.00196551 0)
(0.0636955 -0.00158895 0)
(0.0639213 -0.00125155 0)
(0.0641142 -0.000960012 0)
(0.0642742 -0.000715818 0)
(0.0644034 -0.000516855 0)
(0.0645049 -0.000358846 0)
(0.0645824 -0.000236455 0)
(0.0646398 -0.000144057 0)
(0.0646809 -7.62417e-05 0)
(0.0647092 -2.80932e-05 0)
(0.0647275 4.67912e-06 0)
(0.0647385 2.57056e-05 0)
(0.0647441 3.79815e-05 0)
(0.064746 4.39236e-05 0)
(0.0647454 4.54411e-05 0)
(0.0647433 4.40107e-05 0)
(0.0647403 4.07487e-05 0)
(0.064737 3.64768e-05 0)
(0.0647336 3.17818e-05 0)
(0.0647304 2.70658e-05 0)
(0.0647275 2.25897e-05 0)
(0.0647249 1.85086e-05 0)
(0.0647227 1.49008e-05 0)
(0.0647208 1.17911e-05 0)
(0.0647193 9.16791e-06 0)
(0.064718 6.99753e-06 0)
(0.0647171 5.2336e-06 0)
(0.0647163 3.82435e-06 0)
(0.0647157 2.71742e-06 0)