/*--------------------------------*- C++ -*----------------------------------*\
| =========                 |                                                 |
| \\      /  F ield         | OpenFOAM: The Open Source CFD Toolbox           |
|  \\    /   O peration     | Version:  4.1                                   |
|   \\  /    A nd           | Web:      www.OpenFOAM.org                      |
|    \\/     M anipulation  |                                                 |
\*---------------------------------------------------------------------------*/
FoamFile
{
    version     2.0;
    format      ascii;
    class       volVectorField;
    location    "34";
    object      U;
}
// * * * * * * * * * * * * * * * * * * * * * * * * * * * * * * * * * * * * * //

dimensions      [0 1 -1 0 0 0 0];

internalField   nonuniform List<vector> 
3264
(
(-0.000342441 0.000227831 0)
(-0.00233319 0.000541647 0)
(-0.00512769 0.000854153 0)
(-0.00825834 0.00114875 0)
(-0.0115573 0.00133414 0)
(-0.0146002 0.00135873 0)
(-0.017077 0.00122559 0)
(-0.0187532 0.000966169 0)
(-0.0195118 0.00062316 0)
(-0.0193183 0.000237046 0)
(-0.0182065 -0.000153654 0)
(-0.0162648 -0.000514719 0)
(-0.0136242 -0.00081744 0)
(-0.0104492 -0.00104247 0)
(-0.00692168 -0.00118115 0)
(-0.0032281 -0.00123544 0)
(0.000455729 -0.00121519 0)
(0.0039739 -0.00113494 0)
(0.00719863 -0.00101143 0)
(0.0100359 -0.00086181 0)
(0.01243 -0.00070239 0)
(0.0143647 -0.000547208 0)
(0.0158597 -0.000406777 0)
(0.0169622 -0.000287429 0)
(0.0177358 -0.000191517 0)
(0.0182491 -0.000118308 0)
(0.0185672 -6.51288e-05 0)
(0.0187458 -2.84147e-05 0)
(0.0188298 -4.4764e-06 0)
(0.0188529 1.00365e-05 0)
(0.0188394 1.7919e-05 0)
(0.0188059 2.13597e-05 0)
(0.0187631 2.19855e-05 0)
(0.0187179 2.09515e-05 0)
(0.0186742 1.90417e-05 0)
(0.0186342 1.67642e-05 0)
(0.0185986 1.44305e-05 0)
(0.0185677 1.22184e-05 0)
(0.0185414 1.02178e-05 0)
(0.0185193 8.46371e-06 0)
(0.0185008 6.95878e-06 0)
(0.0184854 5.68768e-06 0)
(0.0184728 4.62652e-06 0)
(0.0184624 3.74842e-06 0)
(0.0184539 3.02678e-06 0)
(0.018447 2.43694e-06 0)
(0.0184414 1.95692e-06 0)
(0.0184368 1.56771e-06 0)
(0.0184331 1.25308e-06 0)
(0.0184302 9.99438e-07 0)
(0.0184278 7.95442e-07 0)
(0.0184258 6.31741e-07 0)
(0.0184243 5.00648e-07 0)
(0.018423 3.95881e-07 0)
(0.018422 3.12319e-07 0)
(0.0184212 2.45801e-07 0)
(0.0184206 1.92959e-07 0)
(0.0184201 1.51067e-07 0)
(0.0184197 1.17927e-07 0)
(0.0184194 9.17688e-08 0)
(0.0184191 7.11704e-08 0)
(0.0184189 5.49902e-08 0)
(0.0184188 4.23141e-08 0)
(0.0184187 3.24114e-08 0)
(0.0184186 2.46988e-08 0)
(0.0184185 1.87118e-08 0)
(0.0184184 1.40813e-08 0)
(0.0184184 1.0514e-08 0)
(0.0184184 7.77813e-09 0)
(0.0184183 5.69019e-09 0)
(0.0184183 4.1057e-09 0)
(0.0184183 2.91097e-09 0)
(0.0184183 2.01685e-09 0)
(0.0184183 1.35356e-09 0)
(0.0184183 8.66671e-10 0)
(0.0184183 5.13872e-10 0)
(0.0184183 2.62366e-10 0)
(0.0184182 8.68348e-11 0)
(0.0184182 -3.21872e-11 0)
(0.0184182 -1.09603e-10 0)
(0.0184182 -1.56753e-10 0)
(0.0184182 -1.8222e-10 0)
(0.0184182 -1.92448e-10 0)
(0.0184182 -1.9224e-10 0)
(0.0184182 -1.85148e-10 0)
(0.0184182 -1.73767e-10 0)
(0.0184182 -1.59973e-10 0)
(0.0184182 -1.45085e-10 0)
(0.0184182 -1.30015e-10 0)
(0.0184182 -1.15365e-10 0)
(0.0184182 -1.01522e-10 0)
(0.0184182 -8.87132e-11 0)
(0.0184182 -7.70549e-11 0)
(0.0184182 -6.65768e-11 0)
(0.0184182 -5.7256e-11 0)
(0.0184182 -4.9031e-11 0)
(0.0184182 -4.18284e-11 0)
(0.0184182 -3.55616e-11 0)
(0.0184182 -3.0141e-11 0)
(0.0184182 -2.54753e-11 0)
(0.0184182 -2.14751e-11 0)
(0.0184182 -1.8053e-11 0)
(0.0184182 -1.51365e-11 0)
(0.0184182 -1.26626e-11 0)
(0.0184182 -1.05725e-11 0)
(0.0184182 -8.81479e-12 0)
(0.0184182 -7.33581e-12 0)
(0.0184182 -6.0918e-12 0)
(0.0184182 -5.04755e-12 0)
(0.0184182 -4.17263e-12 0)
(0.0184182 -3.44596e-12 0)
(0.0184182 -2.84254e-12 0)
(0.0184182 -2.34231e-12 0)
(0.0184182 -1.92859e-12 0)
(0.0184182 -1.58457e-12 0)
(0.0184182 -1.30144e-12 0)
(0.0184182 -1.06623e-12 0)
(0.0184182 -8.73851e-13 0)
(0.0184182 -7.19017e-13 0)
(0.0184182 -5.91545e-13 0)
(0.0184182 -4.83583e-13 0)
(0.0184182 -3.91397e-13 0)
(0.0184182 -3.14129e-13 0)
(0.0184182 -2.51857e-13 0)
(0.0184182 -2.03884e-13 0)
(0.0184182 -1.69532e-13 0)
(0.0184182 -1.41119e-13 0)
(0.0184182 -1.16143e-13 0)
(0.0184182 -9.15249e-14 0)
(0.0184182 -6.72826e-14 0)
(0.0184182 -4.79072e-14 0)
(0.0184182 -3.40141e-14 0)
(0.0184182 -2.71953e-14 0)
(0.0184182 -2.55043e-14 0)
(0.0184182 -2.44299e-14 0)
(0.0184182 -2.28642e-14 0)
(0.0184182 -1.76225e-14 0)
(0.0184182 -1.16651e-14 0)
(0.0184182 -7.34171e-15 0)
(0.0184182 -5.17116e-15 0)
(0.0184182 -7.86286e-15 0)
(0.0184182 -1.06133e-14 0)
(0.0184182 -1.2809e-14 0)
(0.0184182 -1.15495e-14 0)
(0.0184182 -6.20244e-15 0)
(0.0184182 -3.4754e-16 0)
(0.0184182 6.58936e-15 0)
(0.0184182 1.15794e-14 0)
(0.0184182 1.32665e-14 0)
(0.0184182 1.24281e-14 0)
(0.0184182 8.42956e-15 0)
(0.0184182 3.50385e-15 0)
(0.0184182 -2.50866e-15 0)
(0.0184182 -9.24364e-15 0)
(0.0184182 -1.55287e-14 0)
(0.0184182 -2.02418e-14 0)
(0.0184182 -2.16397e-14 0)
(0.0184182 -1.76495e-14 0)
(0.0184182 -9.14392e-15 0)
(0.0184182 6.71761e-16 0)
(0.0184182 8.86222e-15 0)
(0.0184182 1.4669e-14 0)
(0.0184182 1.60263e-14 0)
(0.0184182 1.18295e-14 0)
(0.0184182 4.33155e-15 0)
(0.0184182 -3.85113e-15 0)
(0.0184182 -8.93869e-15 0)
(0.0184182 -8.8667e-15 0)
(0.0184182 -4.92716e-15 0)
(0.0184182 1.82156e-15 0)
(0.0184182 7.63452e-15 0)
(0.0184182 1.24423e-14 0)
(0.0184182 1.51863e-14 0)
(0.0184182 1.58577e-14 0)
(0.0184182 1.52688e-14 0)
(0.0184182 1.41353e-14 0)
(0.0184182 1.4816e-14 0)
(0.0184182 1.80295e-14 0)
(0.0184182 2.30082e-14 0)
(0.0184182 2.85688e-14 0)
(0.0184182 3.57877e-14 0)
(0.0184182 4.43087e-14 0)
(0.0184182 5.53006e-14 0)
(0.0184182 7.02367e-14 0)
(0.0184182 8.9539e-14 0)
(0.0184182 1.15563e-13 0)
(0.0184182 1.49424e-13 0)
(0.0184182 1.93939e-13 0)
(0.0184182 2.50043e-13 0)
(0.0184182 3.22345e-13 0)
(0.0184182 4.13361e-13 0)
(0.0184182 5.29348e-13 0)
(0.0184182 6.8035e-13 0)
(0.0184182 7.95588e-13 0)
(0.0184182 1.06017e-12 0)
(0.0184182 7.46147e-13 0)
(0.0184182 5.17363e-13 0)
(0.0184182 2.14784e-13 0)
(0.0184182 -1.31332e-11 0)
(0.0184182 -8.97518e-12 0)
(-0.000961507 0.00242272 0)
(-0.00537274 0.00430622 0)
(-0.0103403 0.00497723 0)
(-0.0148724 0.00516509 0)
(-0.0187036 0.00484807 0)
(-0.0215135 0.0040273 0)
(-0.0231845 0.00282877 0)
(-0.0236773 0.00138626 0)
(-0.0230188 -0.000178069 0)
(-0.0212719 -0.00176244 0)
(-0.0185232 -0.00327414 0)
(-0.0148842 -0.00462814 0)
(-0.010485 -0.00574818 0)
(-0.0054817 -0.00657444 0)
(-5.01366e-05 -0.00707097 0)
(0.00561418 -0.00722967 0)
(0.0113069 -0.00706924 0)
(0.016825 -0.00663042 0)
(0.021982 -0.00597113 0)
(0.026623 -0.00516185 0)
(0.030639 -0.00427974 0)
(0.0339763 -0.00339992 0)
(0.0366376 -0.00258534 0)
(0.0386734 -0.00187905 0)
(0.0401673 -0.00130171 0)
(0.0412186 -0.00085437 0)
(0.041927 -0.000524482 0)
(0.0423824 -0.000292395 0)
(0.0426588 -0.000136661 0)
(0.0428139 -3.74388e-05 0)
(0.04289 2.18475e-05 0)
(0.0429166 5.40933e-05 0)
(0.042914 6.87994e-05 0)
(0.0428954 7.26634e-05 0)
(0.042869 7.02283e-05 0)
(0.04284 6.4465e-05 0)
(0.0428112 5.72435e-05 0)
(0.0427843 4.96881e-05 0)
(0.04276 4.24349e-05 0)
(0.0427387 3.58091e-05 0)
(0.0427202 2.9946e-05 0)
(0.0427043 2.48686e-05 0)
(0.0426909 2.05389e-05 0)
(0.0426796 1.68879e-05 0)
(0.0426702 1.38354e-05 0)
(0.0426623 1.12997e-05 0)
(0.0426558 9.20428e-06 0)
(0.0426504 7.47979e-06 0)
(0.0426459 6.06545e-06 0)
(0.0426423 4.90883e-06 0)
(0.0426393 3.96536e-06 0)
(0.0426368 3.1975e-06 0)
(0.0426348 2.57383e-06 0)
(0.0426332 2.06825e-06 0)
(0.0426318 1.65913e-06 0)
(0.0426308 1.32866e-06 0)
(0.0426299 1.06215e-06 0)
(0.0426292 8.47595e-07 0)
(0.0426286 6.7515e-07 0)
(0.0426281 5.36783e-07 0)
(0.0426278 4.25947e-07 0)
(0.0426275 3.37314e-07 0)
(0.0426272 2.66562e-07 0)
(0.042627 2.10185e-07 0)
(0.0426269 1.65343e-07 0)
(0.0426268 1.29747e-07 0)
(0.0426267 1.01544e-07 0)
(0.0426266 7.92465e-08 0)
(0.0426265 6.16557e-08 0)
(0.0426265 4.781e-08 0)
(0.0426264 3.69385e-08 0)
(0.0426264 2.84244e-08 0)
(0.0426264 2.17751e-08 0)
(0.0426264 1.65976e-08 0)
(0.0426264 1.25792e-08 0)
(0.0426264 9.47146e-09 0)
(0.0426263 7.07737e-09 0)
(0.0426263 5.24101e-09 0)
(0.0426263 3.83929e-09 0)
(0.0426263 2.77518e-09 0)
(0.0426263 1.97243e-09 0)
(0.0426263 1.37122e-09 0)
(0.0426263 9.24787e-10 0)
(0.0426263 5.96672e-10 0)
(0.0426263 3.5853e-10 0)
(0.0426263 1.8839e-10 0)
(0.0426263 6.92806e-11 0)
(0.0426263 -1.18505e-11 0)
(0.0426263 -6.49912e-11 0)
(0.0426263 -9.77352e-11 0)
(0.0426263 -1.15826e-10 0)
(0.0426263 -1.23585e-10 0)
(0.0426263 -1.24241e-10 0)
(0.0426263 -1.20187e-10 0)
(0.0426263 -1.13174e-10 0)
(0.0426263 -1.04464e-10 0)
(0.0426263 -9.49518e-11 0)
(0.0426263 -8.52539e-11 0)
(0.0426263 -7.57844e-11 0)
(0.0426263 -6.68078e-11 0)
(0.0426263 -5.84795e-11 0)
(0.0426263 -5.08747e-11 0)
(0.0426263 -4.40164e-11 0)
(0.0426263 -3.78904e-11 0)
(0.0426263 -3.24644e-11 0)
(0.0426263 -2.76984e-11 0)
(0.0426263 -2.35446e-11 0)
(0.0426263 -1.99511e-11 0)
(0.0426263 -1.68574e-11 0)
(0.0426263 -1.42037e-11 0)
(0.0426263 -1.19363e-11 0)
(0.0426263 -1.00064e-11 0)
(0.0426263 -8.37101e-12 0)
(0.0426263 -6.99342e-12 0)
(0.0426263 -5.83783e-12 0)
(0.0426263 -4.87188e-12 0)
(0.0426263 -4.06406e-12 0)
(0.0426263 -3.38562e-12 0)
(0.0426263 -2.81529e-12 0)
(0.0426263 -2.33578e-12 0)
(0.0426263 -1.93374e-12 0)
(0.0426263 -1.59926e-12 0)
(0.0426263 -1.32236e-12 0)
(0.0426263 -1.09894e-12 0)
(0.0426263 -9.18793e-13 0)
(0.0426263 -7.72093e-13 0)
(0.0426263 -6.49075e-13 0)
(0.0426263 -5.39552e-13 0)
(0.0426263 -4.38382e-13 0)
(0.0426263 -3.44491e-13 0)
(0.0426263 -2.60511e-13 0)
(0.0426263 -1.92063e-13 0)
(0.0426263 -1.41634e-13 0)
(0.0426263 -1.09913e-13 0)
(0.0426263 -9.0579e-14 0)
(0.0426263 -7.42439e-14 0)
(0.0426263 -5.52439e-14 0)
(0.0426263 -3.23462e-14 0)
(0.0426263 -1.16831e-14 0)
(0.0426263 6.45242e-16 0)
(0.0426263 1.11261e-15 0)
(0.0426263 -9.28156e-15 0)
(0.0426263 -2.76096e-14 0)
(0.0426263 -5.0177e-14 0)
(0.0426263 -6.88521e-14 0)
(0.0426263 -7.7703e-14 0)
(0.0426263 -7.68694e-14 0)
(0.0426263 -6.68632e-14 0)
(0.0426263 -5.19285e-14 0)
(0.0426263 -3.4919e-14 0)
(0.0426263 -1.68111e-14 0)
(0.0426263 -3.65771e-15 0)
(0.0426263 2.19785e-15 0)
(0.0426263 -1.93682e-15 0)
(0.0426263 -1.34837e-14 0)
(0.0426263 -2.90433e-14 0)
(0.0426263 -4.30706e-14 0)
(0.0426263 -4.93489e-14 0)
(0.0426263 -4.5753e-14 0)
(0.0426263 -3.32507e-14 0)
(0.0426263 -1.83692e-14 0)
(0.0426263 -5.9325e-15 0)
(0.0426263 4.83562e-16 0)
(0.0426263 -2.87625e-16 0)
(0.0426263 -6.54476e-15 0)
(0.0426263 -1.3541e-14 0)
(0.0426263 -1.55217e-14 0)
(0.0426263 -7.99493e-15 0)
(0.0426263 8.87457e-15 0)
(0.0426263 3.15414e-14 0)
(0.0426263 5.24923e-14 0)
(0.0426263 6.74567e-14 0)
(0.0426263 7.41564e-14 0)
(0.0426263 7.47808e-14 0)
(0.0426263 7.15201e-14 0)
(0.0426263 7.14854e-14 0)
(0.0426263 7.87948e-14 0)
(0.0426263 9.45256e-14 0)
(0.0426263 1.19857e-13 0)
(0.0426263 1.51786e-13 0)
(0.0426263 1.89422e-13 0)
(0.0426263 2.31168e-13 0)
(0.0426263 2.77481e-13 0)
(0.0426263 3.34744e-13 0)
(0.0426263 4.07938e-13 0)
(0.0426263 5.07506e-13 0)
(0.0426263 6.40048e-13 0)
(0.0426263 8.14642e-13 0)
(0.0426263 1.04252e-12 0)
(0.0426263 1.33451e-12 0)
(0.0426263 1.7086e-12 0)
(0.0426263 2.19163e-12 0)
(0.0426263 2.80887e-12 0)
(0.0426263 3.55018e-12 0)
(0.0426263 4.67822e-12 0)
(0.0426263 5.3013e-12 0)
(0.0426263 7.17763e-12 0)
(0.0426263 7.67199e-12 0)
(0.0426263 -2.27161e-13 0)
(0.0426263 3.62201e-12 0)
(-0.00101901 0.00576173 0)
(-0.00575673 0.00915535 0)
(-0.0106302 0.00954356 0)
(-0.0145361 0.00892111 0)
(-0.0173572 0.00760801 0)
(-0.0190107 0.00570473 0)
(-0.0195847 0.00342352 0)
(-0.0191668 0.000916306 0)
(-0.0178524 -0.00168572 0)
(-0.0157288 -0.0042764 0)
(-0.0128704 -0.00675335 0)
(-0.00934755 -0.00901352 0)
(-0.00522135 -0.0109531 0)
(-0.000559478 -0.0124736 0)
(0.00455899 -0.0134948 0)
(0.010027 -0.0139651 0)
(0.0157028 -0.0138717 0)
(0.0214078 -0.013245 0)
(0.0269397 -0.0121598 0)
(0.0320979 -0.0107306 0)
(0.0367145 -0.00909859 0)
(0.0406798 -0.00741163 0)
(0.0439524 -0.00580094 0)
(0.0465534 -0.0043635 0)
(0.0485495 -0.00315434 0)
(0.0500325 -0.00218932 0)
(0.051102 -0.00145477 0)
(0.0518524 -0.000919295 0)
(0.0523653 -0.000544419 0)
(0.052707 -0.000292113 0)
(0.0529285 -0.000129129 0)
(0.0530677 -2.86898e-05 0)
(0.0531517 2.95044e-05 0)
(0.0531992 6.01369e-05 0)
(0.0532233 7.34324e-05 0)
(0.0532327 7.62832e-05 0)
(0.0532332 7.32011e-05 0)
(0.0532285 6.70545e-05 0)
(0.053221 5.961e-05 0)
(0.0532124 5.1913e-05 0)
(0.0532036 4.45481e-05 0)
(0.053195 3.78123e-05 0)
(0.0531871 3.18281e-05 0)
(0.0531799 2.66164e-05 0)
(0.0531735 2.21414e-05 0)
(0.053168 1.83393e-05 0)
(0.0531632 1.51349e-05 0)
(0.0531591 1.24511e-05 0)
(0.0531555 1.0215e-05 0)
(0.0531526 8.35956e-06 0)
(0.0531501 6.82555e-06 0)
(0.053148 5.5612e-06 0)
(0.0531462 4.52196e-06 0)
(0.0531448 3.66986e-06 0)
(0.0531436 2.97279e-06 0)
(0.0531426 2.40376e-06 0)
(0.0531417 1.94018e-06 0)
(0.0531411 1.56323e-06 0)
(0.0531405 1.2573e-06 0)
(0.0531401 1.00945e-06 0)
(0.0531397 8.09014e-07 0)
(0.0531394 6.47205e-07 0)
(0.0531391 5.16807e-07 0)
(0.0531389 4.11904e-07 0)
(0.0531388 3.2766e-07 0)
(0.0531386 2.60125e-07 0)
(0.0531385 2.06082e-07 0)
(0.0531384 1.62913e-07 0)
(0.0531384 1.28495e-07 0)
(0.0531383 1.01107e-07 0)
(0.0531383 7.93544e-08 0)
(0.0531382 6.2114e-08 0)
(0.0531382 4.84786e-08 0)
(0.0531382 3.77185e-08 0)
(0.0531382 2.92471e-08 0)
(0.0531382 2.25942e-08 0)
(0.0531381 1.73832e-08 0)
(0.0531381 1.33131e-08 0)
(0.0531381 1.01439e-08 0)
(0.0531381 7.68421e-09 0)
(0.0531381 5.78214e-09 0)
(0.0531381 4.31709e-09 0)
(0.0531381 3.1936e-09 0)
(0.0531381 2.33631e-09 0)
(0.0531381 1.68578e-09 0)
(0.0531381 1.19531e-09 0)
(0.0531381 8.28267e-10 0)
(0.0531381 5.55973e-10 0)
(0.0531381 3.56076e-10 0)
(0.0531381 2.11197e-10 0)
(0.0531381 1.07881e-10 0)
(0.0531381 3.57527e-11 0)
(0.0531381 -1.3166e-11 0)
(0.0531381 -4.49886e-11 0)
(0.0531381 -6.43733e-11 0)
(0.0531381 -7.48574e-11 0)
(0.0531381 -7.90924e-11 0)
(0.0531381 -7.90541e-11 0)
(0.0531381 -7.61985e-11 0)
(0.0531381 -7.15868e-11 0)
(0.0531381 -6.59779e-11 0)
(0.0531381 -5.99122e-11 0)
(0.0531381 -5.37497e-11 0)
(0.0531381 -4.77301e-11 0)
(0.0531381 -4.20129e-11 0)
(0.0531381 -3.66939e-11 0)
(0.0531381 -3.18395e-11 0)
(0.0531381 -2.74768e-11 0)
(0.0531381 -2.36019e-11 0)
(0.0531381 -2.01918e-11 0)
(0.0531381 -1.72037e-11 0)
(0.0531381 -1.4603e-11 0)
(0.0531381 -1.23535e-11 0)
(0.0531381 -1.04234e-11 0)
(0.0531381 -8.78507e-12 0)
(0.0531381 -7.39865e-12 0)
(0.0531381 -6.2297e-12 0)
(0.0531381 -5.23759e-12 0)
(0.0531381 -4.38817e-12 0)
(0.0531381 -3.66105e-12 0)
(0.0531381 -3.04784e-12 0)
(0.0531381 -2.53802e-12 0)
(0.0531381 -2.1243e-12 0)
(0.0531381 -1.79159e-12 0)
(0.0531381 -1.52186e-12 0)
(0.0531381 -1.29678e-12 0)
(0.0531381 -1.10004e-12 0)
(0.0531381 -9.2141e-13 0)
(0.0531381 -7.58543e-13 0)
(0.0531381 -6.12097e-13 0)
(0.0531381 -4.84177e-13 0)
(0.0531381 -3.78692e-13 0)
(0.0531381 -2.93046e-13 0)
(0.0531381 -2.23772e-13 0)
(0.0531381 -1.63914e-13 0)
(0.0531381 -1.10353e-13 0)
(0.0531381 -6.29868e-14 0)
(0.0531381 -2.27655e-14 0)
(0.0531381 6.50032e-15 0)
(0.0531381 2.30263e-14 0)
(0.0531381 2.51179e-14 0)
(0.0531381 1.25664e-14 0)
(0.0531381 -1.32714e-14 0)
(0.0531381 -4.84354e-14 0)
(0.0531381 -8.92383e-14 0)
(0.0531381 -1.29857e-13 0)
(0.0531381 -1.62552e-13 0)
(0.0531381 -1.82412e-13 0)
(0.0531381 -1.82834e-13 0)
(0.0531381 -1.63571e-13 0)
(0.0531381 -1.2887e-13 0)
(0.0531381 -8.69551e-14 0)
(0.0531381 -4.81787e-14 0)
(0.0531381 -1.96487e-14 0)
(0.0531381 -6.52996e-15 0)
(0.0531381 -7.05508e-15 0)
(0.0531381 -1.77752e-14 0)
(0.0531381 -3.36789e-14 0)
(0.0531381 -4.84357e-14 0)
(0.0531381 -5.74735e-14 0)
(0.0531381 -6.07326e-14 0)
(0.0531381 -6.16179e-14 0)
(0.0531381 -6.0562e-14 0)
(0.0531381 -5.74184e-14 0)
(0.0531381 -5.02976e-14 0)
(0.0531381 -3.59526e-14 0)
(0.0531381 -1.4574e-14 0)
(0.0531381 1.35934e-14 0)
(0.0531381 4.63338e-14 0)
(0.0531381 7.84248e-14 0)
(0.0531381 1.04823e-13 0)
(0.0531381 1.19108e-13 0)
(0.0531381 1.2327e-13 0)
(0.0531381 1.19246e-13 0)
(0.0531381 1.14016e-13 0)
(0.0531381 1.1669e-13 0)
(0.0531381 1.3131e-13 0)
(0.0531381 1.62101e-13 0)
(0.0531381 2.09987e-13 0)
(0.0531381 2.71163e-13 0)
(0.0531381 3.43444e-13 0)
(0.0531381 4.21073e-13 0)
(0.0531381 5.06875e-13 0)
(0.0531381 6.02747e-13 0)
(0.0531381 7.17323e-13 0)
(0.0531381 8.6617e-13 0)
(0.0531381 1.06305e-12 0)
(0.0531381 1.32571e-12 0)
(0.0531381 1.67412e-12 0)
(0.0531381 2.12962e-12 0)
(0.0531381 2.72277e-12 0)
(0.0531381 3.49364e-12 0)
(0.0531381 4.47999e-12 0)
(0.0531381 5.80442e-12 0)
(0.0531381 7.53332e-12 0)
(0.0531381 9.61832e-12 0)
(0.0531381 1.37309e-11 0)
(0.0531381 1.4906e-11 0)
(0.0531381 2.72073e-11 0)
(0.0531381 3.30929e-11 0)
(-0.000714603 0.00843556 0)
(-0.00460575 0.0131818 0)
(-0.0082684 0.0130982 0)
(-0.0107413 0.0115887 0)
(-0.0120653 0.00934904 0)
(-0.0123686 0.00657642 0)
(-0.0118188 0.0035004 0)
(-0.0105605 0.000260491 0)
(-0.0087066 -0.00302609 0)
(-0.00635957 -0.00626658 0)
(-0.00359042 -0.00937446 0)
(-0.000455149 -0.0122604 0)
(0.00302058 -0.0148296 0)
(0.00682868 -0.0169789 0)
(0.0109744 -0.0186021 0)
(0.0154542 -0.0195965 0)
(0.0202326 -0.0198766 0)
(0.0252162 -0.019396 0)
(0.0302433 -0.0181763 0)
(0.0350999 -0.016331 0)
(0.039565 -0.01406 0)
(0.0434659 -0.011609 0)
(0.0467145 -0.00921057 0)
(0.0493092 -0.0070389 0)
(0.0513115 -0.00519301 0)
(0.052815 -0.00370444 0)
(0.0539199 -0.00255654 0)
(0.0547179 -0.00170506 0)
(0.0552863 -0.00109487 0)
(0.0556861 -0.000671182 0)
(0.0559642 -0.00038572 0)
(0.0561553 -0.000199184 0)
(0.0562851 -8.13498e-05 0)
(0.0563718 -9.96374e-06 0)
(0.0564286 3.08067e-05 0)
(0.0564648 5.19139e-05 0)
(0.0564869 6.07566e-05 0)
(0.0564995 6.22287e-05 0)
(0.0565059 5.95026e-05 0)
(0.0565081 5.45912e-05 0)
(0.0565078 4.87405e-05 0)
(0.0565059 4.26969e-05 0)
(0.0565032 3.68864e-05 0)
(0.0565001 3.15329e-05 0)
(0.0564969 2.67358e-05 0)
(0.0564938 2.25194e-05 0)
(0.0564909 1.88655e-05 0)
(0.0564883 1.57324e-05 0)
(0.0564859 1.30684e-05 0)
(0.0564838 1.08182e-05 0)
(0.056482 8.92798e-06 0)
(0.0564804 7.3476e-06 0)
(0.056479 6.03152e-06 0)
(0.0564779 4.93939e-06 0)
(0.0564769 4.03595e-06 0)
(0.056476 3.29072e-06 0)
(0.0564754 2.67761e-06 0)
(0.0564748 2.17442e-06 0)
(0.0564743 1.76239e-06 0)
(0.0564739 1.42573e-06 0)
(0.0564736 1.15124e-06 0)
(0.0564733 9.27881e-07 0)
(0.0564731 7.46479e-07 0)
(0.0564729 5.99434e-07 0)
(0.0564727 4.80461e-07 0)
(0.0564726 3.84377e-07 0)
(0.0564725 3.06921e-07 0)
(0.0564724 2.44594e-07 0)
(0.0564724 1.94533e-07 0)
(0.0564723 1.54397e-07 0)
(0.0564723 1.22279e-07 0)
(0.0564722 9.66246e-08 0)
(0.0564722 7.61733e-08 0)
(0.0564722 5.99018e-08 0)
(0.0564722 4.69822e-08 0)
(0.0564721 3.67458e-08 0)
(0.0564721 2.8653e-08 0)
(0.0564721 2.22698e-08 0)
(0.0564721 1.72472e-08 0)
(0.0564721 1.33055e-08 0)
(0.0564721 1.02204e-08 0)
(0.0564721 7.81297e-09 0)
(0.0564721 5.94021e-09 0)
(0.0564721 4.48843e-09 0)
(0.0564721 3.36725e-09 0)
(0.0564721 2.50499e-09 0)
(0.0564721 1.84494e-09 0)
(0.0564721 1.3423e-09 0)
(0.0564721 9.61802e-10 0)
(0.0564721 6.75713e-10 0)
(0.0564721 4.62325e-10 0)
(0.0564721 3.04672e-10 0)
(0.0564721 1.89537e-10 0)
(0.0564721 1.06649e-10 0)
(0.0564721 4.8046e-11 0)
(0.0564721 7.59299e-12 0)
(0.0564721 -1.9421e-11 0)
(0.0564721 -3.65867e-11 0)
(0.0564721 -4.66294e-11 0)
(0.0564721 -5.16062e-11 0)
(0.0564721 -5.30581e-11 0)
(0.0564721 -5.21219e-11 0)
(0.0564721 -4.96293e-11 0)
(0.0564721 -4.61844e-11 0)
(0.0564721 -4.22234e-11 0)
(0.0564721 -3.80625e-11 0)
(0.0564721 -3.39222e-11 0)
(0.0564721 -2.99531e-11 0)
(0.0564721 -2.6246e-11 0)
(0.0564721 -2.28441e-11 0)
(0.0564721 -1.97638e-11 0)
(0.0564721 -1.70041e-11 0)
(0.0564721 -1.45623e-11 0)
(0.0564721 -1.24283e-11 0)
(0.0564721 -1.05815e-11 0)
(0.0564721 -8.99429e-12 0)
(0.0564721 -7.6286e-12 0)
(0.0564721 -6.45141e-12 0)
(0.0564721 -5.43513e-12 0)
(0.0564721 -4.56321e-12 0)
(0.0564721 -3.82341e-12 0)
(0.0564721 -3.20914e-12 0)
(0.0564721 -2.70802e-12 0)
(0.0564721 -2.30028e-12 0)
(0.0564721 -1.9658e-12 0)
(0.0564721 -1.68206e-12 0)
(0.0564721 -1.43337e-12 0)
(0.0564721 -1.21175e-12 0)
(0.0564721 -1.0134e-12 0)
(0.0564721 -8.39896e-13 0)
(0.0564721 -6.89391e-13 0)
(0.0564721 -5.59576e-13 0)
(0.0564721 -4.45872e-13 0)
(0.0564721 -3.43695e-13 0)
(0.0564721 -2.51436e-13 0)
(0.0564721 -1.69447e-13 0)
(0.0564721 -9.9992e-14 0)
(0.0564721 -4.56803e-14 0)
(0.0564721 -5.41747e-15 0)
(0.0564721 1.83648e-14 0)
(0.0564721 2.7355e-14 0)
(0.0564721 2.13327e-14 0)
(0.0564721 -3.97756e-16 0)
(0.0564721 -3.71039e-14 0)
(0.0564721 -8.86946e-14 0)
(0.0564721 -1.47427e-13 0)
(0.0564721 -2.0404e-13 0)
(0.0564721 -2.46137e-13 0)
(0.0564721 -2.62902e-13 0)
(0.0564721 -2.51559e-13 0)
(0.0564721 -2.14506e-13 0)
(0.0564721 -1.60326e-13 0)
(0.0564721 -1.02641e-13 0)
(0.0564721 -5.5771e-14 0)
(0.0564721 -2.68575e-14 0)
(0.0564721 -1.72439e-14 0)
(0.0564721 -2.52415e-14 0)
(0.0564721 -4.45532e-14 0)
(0.0564721 -6.4832e-14 0)
(0.0564721 -8.30139e-14 0)
(0.0564721 -9.34963e-14 0)
(0.0564721 -9.76672e-14 0)
(0.0564721 -9.51704e-14 0)
(0.0564721 -8.43456e-14 0)
(0.0564721 -6.45934e-14 0)
(0.0564721 -3.5419e-14 0)
(0.0564721 8.77275e-16 0)
(0.0564721 4.02191e-14 0)
(0.0564721 7.95756e-14 0)
(0.0564721 1.12294e-13 0)
(0.0564721 1.35368e-13 0)
(0.0564721 1.45003e-13 0)
(0.0564721 1.43039e-13 0)
(0.0564721 1.37617e-13 0)
(0.0564721 1.35934e-13 0)
(0.0564721 1.45748e-13 0)
(0.0564721 1.72828e-13 0)
(0.0564721 2.20844e-13 0)
(0.0564721 2.90245e-13 0)
(0.0564721 3.76605e-13 0)
(0.0564721 4.73353e-13 0)
(0.0564721 5.77139e-13 0)
(0.0564721 6.8647e-13 0)
(0.0564721 8.08218e-13 0)
(0.0564721 9.52441e-13 0)
(0.0564721 1.13355e-12 0)
(0.0564721 1.37186e-12 0)
(0.0564721 1.68933e-12 0)
(0.0564721 2.11272e-12 0)
(0.0564721 2.66907e-12 0)
(0.0564721 3.39376e-12 0)
(0.0564721 4.33071e-12 0)
(0.0564721 5.56036e-12 0)
(0.0564721 7.18164e-12 0)
(0.0564721 9.33054e-12 0)
(0.0564721 1.24013e-11 0)
(0.0564721 1.67211e-11 0)
(0.0564721 2.10082e-11 0)
(0.0564721 3.97176e-11 0)
(0.0564721 4.38602e-11 0)
(-7.72539e-05 0.0104658 0)
(-0.00214701 0.0160902 0)
(-0.0039456 0.0154495 0)
(-0.00453235 0.0129589 0)
(-0.00414798 0.00989242 0)
(-0.00299612 0.0064338 0)
(-0.00125488 0.00280012 0)
(0.000925457 -0.000899673 0)
(0.00343595 -0.00457035 0)
(0.00617448 -0.00813664 0)
(0.0090689 -0.0115355 0)
(0.0120639 -0.0147047 0)
(0.0151342 -0.0175801 0)
(0.0182809 -0.0200871 0)
(0.0215314 -0.0221355 0)
(0.024929 -0.0236134 0)
(0.0285127 -0.0243872 0)
(0.032287 -0.0243177 0)
(0.03619 -0.0233061 0)
(0.0400775 -0.0213661 0)
(0.0437463 -0.0186781 0)
(0.0469961 -0.0155685 0)
(0.049695 -0.0124086 0)
(0.0518104 -0.00950141 0)
(0.0533936 -0.00702432 0)
(0.0545412 -0.00503532 0)
(0.0553578 -0.00351046 0)
(0.0559349 -0.00238366 0)
(0.0563429 -0.00157567 0)
(0.0566327 -0.00101087 0)
(0.0568393 -0.000624931 0)
(0.0569869 -0.000366851 0)
(0.0570921 -0.000198068 0)
(0.0571668 -9.04345e-05 0)
(0.0572192 -2.39411e-05 0)
(0.0572555 1.53421e-05 0)
(0.0572801 3.69488e-05 0)
(0.0572963 4.73092e-05 0)
(0.0573066 5.07036e-05 0)
(0.0573126 4.99445e-05 0)
(0.0573158 4.68542e-05 0)
(0.0573171 4.25934e-05 0)
(0.057317 3.78856e-05 0)
(0.0573161 3.31673e-05 0)
(0.0573148 2.86891e-05 0)
(0.0573133 2.45824e-05 0)
(0.0573116 2.09041e-05 0)
(0.05731 1.76648e-05 0)
(0.0573085 1.48486e-05 0)
(0.0573071 1.24245e-05 0)
(0.0573058 1.03547e-05 0)
(0.0573047 8.599e-06 0)
(0.0573037 7.11812e-06 0)
(0.0573029 5.875e-06 0)
(0.0573021 4.83584e-06 0)
(0.0573015 3.97043e-06 0)
(0.0573009 3.25212e-06 0)
(0.0573005 2.65774e-06 0)
(0.0573001 2.16729e-06 0)
(0.0572998 1.76366e-06 0)
(0.0572995 1.4323e-06 0)
(0.0572993 1.1609e-06 0)
(0.0572991 9.3911e-07 0)
(0.0572989 7.58242e-07 0)
(0.0572988 6.1105e-07 0)
(0.0572987 4.91502e-07 0)
(0.0572986 3.94596e-07 0)
(0.0572986 3.16193e-07 0)
(0.0572985 2.52881e-07 0)
(0.0572985 2.01849e-07 0)
(0.0572984 1.60793e-07 0)
(0.0572984 1.27824e-07 0)
(0.0572984 1.01399e-07 0)
(0.0572983 8.0259e-08 0)
(0.0572983 6.33799e-08 0)
(0.0572983 4.99294e-08 0)
(0.0572983 3.92328e-08 0)
(0.0572983 3.07441e-08 0)
(0.0572983 2.40221e-08 0)
(0.0572983 1.87112e-08 0)
(0.0572983 1.45251e-08 0)
(0.0572983 1.12338e-08 0)
(0.0572983 8.65295e-09 0)
(0.0572983 6.63493e-09 0)
(0.0572983 5.06181e-09 0)
(0.0572983 3.83954e-09 0)
(0.0572983 2.89328e-09 0)
(0.0572983 2.16359e-09 0)
(0.0572983 1.60334e-09 0)
(0.0572983 1.17529e-09 0)
(0.0572983 8.50035e-10 0)
(0.0572983 6.04457e-10 0)
(0.0572983 4.20387e-10 0)
(0.0572983 2.836e-10 0)
(0.0572983 1.82983e-10 0)
(0.0572983 1.0989e-10 0)
(0.0572983 5.76158e-11 0)
(0.0572983 2.09818e-11 0)
(0.0572983 -3.99677e-12 0)
(0.0572983 -2.03759e-11 0)
(0.0572983 -3.04823e-11 0)
(0.0572983 -3.60752e-11 0)
(0.0572983 -3.84742e-11 0)
(0.0572983 -3.86665e-11 0)
(0.0572983 -3.73829e-11 0)
(0.0572983 -3.51691e-11 0)
(0.0572983 -3.24255e-11 0)
(0.0572983 -2.94328e-11 0)
(0.0572983 -2.63874e-11 0)
(0.0572983 -2.34136e-11 0)
(0.0572983 -2.05921e-11 0)
(0.0572983 -1.79749e-11 0)
(0.0572983 -1.55922e-11 0)
(0.0572983 -1.3459e-11 0)
(0.0572983 -1.15717e-11 0)
(0.0572983 -9.91274e-12 0)
(0.0572983 -8.4604e-12 0)
(0.0572983 -7.1898e-12 0)
(0.0572983 -6.08551e-12 0)
(0.0572983 -5.13383e-12 0)
(0.0572983 -4.32802e-12 0)
(0.0572983 -3.65661e-12 0)
(0.0572983 -3.10443e-12 0)
(0.0572983 -2.64998e-12 0)
(0.0572983 -2.26986e-12 0)
(0.0572983 -1.94615e-12 0)
(0.0572983 -1.6643e-12 0)
(0.0572983 -1.41827e-12 0)
(0.0572983 -1.20353e-12 0)
(0.0572983 -1.01656e-12 0)
(0.0572983 -8.543e-13 0)
(0.0572983 -7.09395e-13 0)
(0.0572983 -5.76317e-13 0)
(0.0572983 -4.52847e-13 0)
(0.0572983 -3.37807e-13 0)
(0.0572983 -2.35803e-13 0)
(0.0572983 -1.50159e-13 0)
(0.0572983 -8.27394e-14 0)
(0.0572983 -3.2339e-14 0)
(0.0572983 3.89053e-15 0)
(0.0572983 2.61409e-14 0)
(0.0572983 3.23167e-14 0)
(0.0572983 1.85767e-14 0)
(0.0572983 -1.63788e-14 0)
(0.0572983 -7.17833e-14 0)
(0.0572983 -1.42056e-13 0)
(0.0572983 -2.13865e-13 0)
(0.0572983 -2.71551e-13 0)
(0.0572983 -3.02224e-13 0)
(0.0572983 -2.99459e-13 0)
(0.0572983 -2.67141e-13 0)
(0.0572983 -2.15655e-13 0)
(0.0572983 -1.59556e-13 0)
(0.0572983 -1.11304e-13 0)
(0.0572983 -7.91114e-14 0)
(0.0572983 -6.64583e-14 0)
(0.0572983 -7.03609e-14 0)
(0.0572983 -8.11937e-14 0)
(0.0572983 -9.66504e-14 0)
(0.0572983 -1.09842e-13 0)
(0.0572983 -1.17129e-13 0)
(0.0572983 -1.16733e-13 0)
(0.0572983 -1.06542e-13 0)
(0.0572983 -8.70821e-14 0)
(0.0572983 -5.85104e-14 0)
(0.0572983 -2.24708e-14 0)
(0.0572983 1.9004e-14 0)
(0.0572983 6.24207e-14 0)
(0.0572983 1.00932e-13 0)
(0.0572983 1.29381e-13 0)
(0.0572983 1.43942e-13 0)
(0.0572983 1.46789e-13 0)
(0.0572983 1.43019e-13 0)
(0.0572983 1.37811e-13 0)
(0.0572983 1.41595e-13 0)
(0.0572983 1.61347e-13 0)
(0.0572983 2.02246e-13 0)
(0.0572983 2.68597e-13 0)
(0.0572983 3.5518e-13 0)
(0.0572983 4.58582e-13 0)
(0.0572983 5.7176e-13 0)
(0.0572983 6.90367e-13 0)
(0.0572983 8.15857e-13 0)
(0.0572983 9.50918e-13 0)
(0.0572983 1.11034e-12 0)
(0.0572983 1.30856e-12 0)
(0.0572983 1.56749e-12 0)
(0.0572983 1.91454e-12 0)
(0.0572983 2.37172e-12 0)
(0.0572983 2.97266e-12 0)
(0.0572983 3.74921e-12 0)
(0.0572983 4.75535e-12 0)
(0.0572983 6.06973e-12 0)
(0.0572983 7.78303e-12 0)
(0.0572983 1.01377e-11 0)
(0.0572983 1.32343e-11 0)
(0.0572983 1.77543e-11 0)
(0.0572983 2.33557e-11 0)
(0.0572983 3.74422e-11 0)
(0.0572983 4.17073e-11 0)
(0.000335621 0.0101753 0)
(0.000411916 0.016664 0)
(0.00134328 0.015636 0)
(0.00296556 0.0124602 0)
(0.00532549 0.00887327 0)
(0.00807127 0.00504394 0)
(0.0111148 0.00113751 0)
(0.0143217 -0.00275293 0)
(0.0176091 -0.00655194 0)
(0.0208961 -0.0101969 0)
(0.0241239 -0.0136394 0)
(0.0272494 -0.016837 0)
(0.0302495 -0.0197488 0)
(0.0331182 -0.022327 0)
(0.0358662 -0.0245084 0)
(0.0385167 -0.0262019 0)
(0.0410982 -0.0272754 0)
(0.0436315 -0.0275544 0)
(0.0461111 -0.0268522 0)
(0.0484902 -0.0250536 0)
(0.0506799 -0.0222299 0)
(0.0525748 -0.0186965 0)
(0.0540962 -0.0149287 0)
(0.0552241 -0.0113806 0)
(0.0559995 -0.00834503 0)
(0.0565002 -0.00592865 0)
(0.056811 -0.00410458 0)
(0.057003 -0.00277978 0)
(0.0571261 -0.00184427 0)
(0.0572106 -0.0011974 0)
(0.0572732 -0.000757474 0)
(0.0573222 -0.000462602 0)
(0.0573613 -0.000267795 0)
(0.0573926 -0.00014119 0)
(0.0574172 -6.0606e-05 0)
(0.0574361 -1.07752e-05 0)
(0.0574503 1.87199e-05 0)
(0.0574605 3.49389e-05 0)
(0.0574675 4.26353e-05 0)
(0.0574722 4.49884e-05 0)
(0.057475 4.41081e-05 0)
(0.0574765 4.13807e-05 0)
(0.057477 3.77054e-05 0)
(0.0574769 3.36538e-05 0)
(0.0574763 2.95796e-05 0)
(0.0574756 2.56921e-05 0)
(0.0574746 2.21056e-05 0)
(0.0574737 1.88733e-05 0)
(0.0574727 1.60098e-05 0)
(0.0574718 1.35061e-05 0)
(0.057471 1.13396e-05 0)
(0.0574702 9.48047e-06 0)
(0.0574696 7.89638e-06 0)
(0.057469 6.5546e-06 0)
(0.0574685 5.42391e-06 0)
(0.057468 4.47538e-06 0)
(0.0574676 3.68285e-06 0)
(0.0574673 3.02306e-06 0)
(0.057467 2.47557e-06 0)
(0.0574668 2.02264e-06 0)
(0.0574666 1.64899e-06 0)
(0.0574664 1.34154e-06 0)
(0.0574663 1.0892e-06 0)
(0.0574662 8.82562e-07 0)
(0.0574661 7.13731e-07 0)
(0.057466 5.76086e-07 0)
(0.0574659 4.64097e-07 0)
(0.0574659 3.73166e-07 0)
(0.0574659 2.99477e-07 0)
(0.0574658 2.39877e-07 0)
(0.0574658 1.91764e-07 0)
(0.0574658 1.52996e-07 0)
(0.0574657 1.21818e-07 0)
(0.0574657 9.67906e-08 0)
(0.0574657 7.67389e-08 0)
(0.0574657 6.07045e-08 0)
(0.0574657 4.79077e-08 0)
(0.0574657 3.77151e-08 0)
(0.0574657 2.96135e-08 0)
(0.0574657 2.31875e-08 0)
(0.0574657 1.81019e-08 0)
(0.0574657 1.40863e-08 0)
(0.0574657 1.09233e-08 0)
(0.0574657 8.43826e-09 0)
(0.0574657 6.49113e-09 0)
(0.0574657 4.96992e-09 0)
(0.0574657 3.78517e-09 0)
(0.0574657 2.8656e-09 0)
(0.0574657 2.15448e-09 0)
(0.0574657 1.6068e-09 0)
(0.0574657 1.18691e-09 0)
(0.0574657 8.66607e-10 0)
(0.0574657 6.23679e-10 0)
(0.0574657 4.40641e-10 0)
(0.0574657 3.0378e-10 0)
(0.0574657 2.02372e-10 0)
(0.0574657 1.28053e-10 0)
(0.0574657 7.43185e-11 0)
(0.0574657 3.61227e-11 0)
(0.0574657 9.57031e-12 0)
(0.0574657 -8.33029e-12 0)
(0.0574657 -1.98672e-11 0)
(0.0574657 -2.67767e-11 0)
(0.0574657 -3.03717e-11 0)
(0.0574657 -3.16425e-11 0)
(0.0574657 -3.13307e-11 0)
(0.0574657 -2.99867e-11 0)
(0.0574657 -2.80096e-11 0)
(0.0574657 -2.56844e-11 0)
(0.0574657 -2.32125e-11 0)
(0.0574657 -2.07309e-11 0)