/*--------------------------------*- C++ -*----------------------------------*\
| =========                 |                                                 |
| \\      /  F ield         | OpenFOAM: The Open Source CFD Toolbox           |
|  \\    /   O peration     | Version:  4.1                                   |
|   \\  /    A nd           | Web:      www.OpenFOAM.org                      |
|    \\/     M anipulation  |                                                 |
\*---------------------------------------------------------------------------*/
FoamFile
{
    version     2.0;
    format      ascii;
    class       volScalarField;
    location    "19";
    object      p;
}
// * * * * * * * * * * * * * * * * * * * * * * * * * * * * * * * * * * * * * //

dimensions      [1 -1 -2 0 0 0 0];

internalField   nonuniform List<scalar> 
3264
(
0.716016
0.71602
0.716061
0.716154
0.716311
0.716539
0.71683
0.717168
0.717526
0.717873
0.718181
0.718433
0.718622
0.718754
0.718836
0.718881
0.718898
0.718896
0.718881
0.718859
0.718832
0.718802
0.71877
0.718739
0.718708
0.718677
0.718646
0.718616
0.718587
0.718559
0.718531
0.718503
0.718476
0.718449
0.718423
0.718397
0.718371
0.718345
0.718319
0.718294
0.718268
0.718243
0.718217
0.718192
0.718167
0.718142
0.718117
0.718092
0.718067
0.718042
0.718017
0.717992
0.717967
0.717942
0.717917
0.717892
0.717867
0.717842
0.717817
0.717792
0.717767
0.717742
0.717717
0.717692
0.717667
0.717642
0.717617
0.717592
0.717567
0.717542
0.717517
0.717492
0.717467
0.717442
0.717417
0.717392
0.717368
0.717343
0.717318
0.717293
0.717268
0.717243
0.717218
0.717193
0.717168
0.717143
0.717118
0.717093
0.717068
0.717043
0.717018
0.716993
0.716968
0.716943
0.716918
0.716893
0.716869
0.716844
0.716819
0.716794
0.716769
0.716744
0.716719
0.716694
0.716669
0.716644
0.716619
0.716594
0.716569
0.716544
0.716519
0.716494
0.716469
0.716444
0.716419
0.716394
0.716369
0.716345
0.71632
0.716295
0.71627
0.716245
0.71622
0.716195
0.71617
0.716145
0.71612
0.716095
0.71607
0.716045
0.71602
0.715995
0.71597
0.715945
0.71592
0.715895
0.71587
0.715845
0.715821
0.715796
0.715771
0.715746
0.715721
0.715696
0.715671
0.715646
0.715621
0.715596
0.715571
0.715546
0.715521
0.715496
0.715471
0.715446
0.715421
0.715396
0.715371
0.715346
0.715321
0.715297
0.715272
0.715247
0.715222
0.715197
0.715172
0.715147
0.715122
0.715097
0.715072
0.715047
0.715022
0.714997
0.714972
0.714947
0.714922
0.714897
0.714872
0.714847
0.714822
0.714798
0.714773
0.714748
0.714723
0.714698
0.714673
0.714648
0.714623
0.714598
0.714573
0.714548
0.714523
0.714498
0.714473
0.714448
0.714423
0.714398
0.714373
0.714348
0.714323
0.714298
0.715991
0.715986
0.716014
0.716095
0.716242
0.716464
0.716754
0.717097
0.717466
0.717827
0.71815
0.718414
0.718611
0.718746
0.71883
0.718875
0.718893
0.718891
0.718877
0.718855
0.718828
0.718798
0.718768
0.718736
0.718705
0.718675
0.718645
0.718615
0.718586
0.718558
0.71853
0.718503
0.718476
0.718449
0.718423
0.718396
0.71837
0.718345
0.718319
0.718293
0.718268
0.718243
0.718217
0.718192
0.718167
0.718142
0.718117
0.718092
0.718067
0.718042
0.718017
0.717992
0.717967
0.717942
0.717917
0.717892
0.717867
0.717842
0.717817
0.717792
0.717767
0.717742
0.717717
0.717692
0.717667
0.717642
0.717617
0.717592
0.717567
0.717542
0.717517
0.717492
0.717467
0.717442
0.717417
0.717392
0.717368
0.717343
0.717318
0.717293
0.717268
0.717243
0.717218
0.717193
0.717168
0.717143
0.717118
0.717093
0.717068
0.717043
0.717018
0.716993
0.716968
0.716943
0.716918
0.716893
0.716869
0.716844
0.716819
0.716794
0.716769
0.716744
0.716719
0.716694
0.716669
0.716644
0.716619
0.716594
0.716569
0.716544
0.716519
0.716494
0.716469
0.716444
0.716419
0.716394
0.716369
0.716345
0.71632
0.716295
0.71627
0.716245
0.71622
0.716195
0.71617
0.716145
0.71612
0.716095
0.71607
0.716045
0.71602
0.715995
0.71597
0.715945
0.71592
0.715895
0.71587
0.715845
0.715821
0.715796
0.715771
0.715746
0.715721
0.715696
0.715671
0.715646
0.715621
0.715596
0.715571
0.715546
0.715521
0.715496
0.715471
0.715446
0.715421
0.715396
0.715371
0.715346
0.715321
0.715297
0.715272
0.715247
0.715222
0.715197
0.715172
0.715147
0.715122
0.715097
0.715072
0.715047
0.715022
0.714997
0.714972
0.714947
0.714922
0.714897
0.714872
0.714847
0.714822
0.714798
0.714773
0.714748
0.714723
0.714698
0.714673
0.714648
0.714623
0.714598
0.714573
0.714548
0.714523
0.714498
0.714473
0.714448
0.714423
0.714398
0.714373
0.714348
0.714323
0.714298
0.715919
0.715906
0.715916
0.715978
0.716107
0.716317
0.716603
0.716954
0.717342
0.717732
0.718087
0.718377
0.718592
0.718736
0.718823
0.718869
0.718885
0.718883
0.718869
0.718847
0.718821
0.718792
0.718762
0.718732
0.718702
0.718672
0.718642
0.718613
0.718585
0.718556
0.718529
0.718502
0.718475
0.718448
0.718422
0.718396
0.71837
0.718344
0.718319
0.718293
0.718268
0.718243
0.718217
0.718192
0.718167
0.718142
0.718117
0.718092
0.718067
0.718042
0.718017
0.717992
0.717967
0.717942
0.717917
0.717892
0.717867
0.717842
0.717817
0.717792
0.717767
0.717742
0.717717
0.717692
0.717667
0.717642
0.717617
0.717592
0.717567
0.717542
0.717517
0.717492
0.717467
0.717442
0.717417
0.717392
0.717368
0.717343
0.717318
0.717293
0.717268
0.717243
0.717218
0.717193
0.717168
0.717143
0.717118
0.717093
0.717068
0.717043
0.717018
0.716993
0.716968
0.716943
0.716918
0.716893
0.716869
0.716844
0.716819
0.716794
0.716769
0.716744
0.716719
0.716694
0.716669
0.716644
0.716619
0.716594
0.716569
0.716544
0.716519
0.716494
0.716469
0.716444
0.716419
0.716394
0.716369
0.716345
0.71632
0.716295
0.71627
0.716245
0.71622
0.716195
0.71617
0.716145
0.71612
0.716095
0.71607
0.716045
0.71602
0.715995
0.71597
0.715945
0.71592
0.715895
0.71587
0.715845
0.715821
0.715796
0.715771
0.715746
0.715721
0.715696
0.715671
0.715646
0.715621
0.715596
0.715571
0.715546
0.715521
0.715496
0.715471
0.715446
0.715421
0.715396
0.715371
0.715346
0.715321
0.715297
0.715272
0.715247
0.715222
0.715197
0.715172
0.715147
0.715122
0.715097
0.715072
0.715047
0.715022
0.714997
0.714972
0.714947
0.714922
0.714897
0.714872
0.714847
0.714822
0.714798
0.714773
0.714748
0.714723
0.714698
0.714673
0.714648
0.714623
0.714598
0.714573
0.714548
0.714523
0.714498
0.714473
0.714448
0.714423
0.714398
0.714373
0.714348
0.714323
0.714298
0.715788
0.715757
0.715739
0.715775
0.715881
0.716074
0.716355
0.716716
0.717132
0.717566
0.717971
0.718306
0.718553
0.718715
0.718811
0.718859
0.718876
0.718874
0.71886
0.718838
0.718812
0.718784
0.718755
0.718726
0.718696
0.718667
0.718638
0.71861
0.718582
0.718554
0.718527
0.7185
0.718474
0.718447
0.718421
0.718395
0.718369
0.718344
0.718318
0.718293
0.718268
0.718242
0.718217
0.718192
0.718167
0.718142
0.718117
0.718092
0.718067
0.718042
0.718017
0.717992
0.717967
0.717942
0.717917
0.717892
0.717867
0.717842
0.717817
0.717792
0.717767
0.717742
0.717717
0.717692
0.717667
0.717642
0.717617
0.717592
0.717567
0.717542
0.717517
0.717492
0.717467
0.717442
0.717417
0.717392
0.717368
0.717343
0.717318
0.717293
0.717268
0.717243
0.717218
0.717193
0.717168
0.717143
0.717118
0.717093
0.717068
0.717043
0.717018
0.716993
0.716968
0.716943
0.716918
0.716893
0.716869
0.716844
0.716819
0.716794
0.716769
0.716744
0.716719
0.716694
0.716669
0.716644
0.716619
0.716594
0.716569
0.716544
0.716519
0.716494
0.716469
0.716444
0.716419
0.716394
0.716369
0.716345
0.71632
0.716295
0.71627
0.716245
0.71622
0.716195
0.71617
0.716145
0.71612
0.716095
0.71607
0.716045
0.71602
0.715995
0.71597
0.715945
0.71592
0.715895
0.71587
0.715845
0.715821
0.715796
0.715771
0.715746
0.715721
0.715696
0.715671
0.715646
0.715621
0.715596
0.715571
0.715546
0.715521
0.715496
0.715471
0.715446
0.715421
0.715396
0.715371
0.715346
0.715321
0.715297
0.715272
0.715247
0.715222
0.715197
0.715172
0.715147
0.715122
0.715097
0.715072
0.715047
0.715022
0.714997
0.714972
0.714947
0.714922
0.714897
0.714872
0.714847
0.714822
0.714798
0.714773
0.714748
0.714723
0.714698
0.714673
0.714648
0.714623
0.714598
0.714573
0.714548
0.714523
0.714498
0.714473
0.714448
0.714423
0.714398
0.714373
0.714348
0.714323
0.714298
0.715643
0.715595
0.715547
0.715547
0.715622
0.715795
0.716068
0.716437
0.716881
0.71736
0.717821
0.718211
0.718499
0.718686
0.718794
0.718848
0.718867
0.718864
0.71885
0.718829
0.718803
0.718776
0.718748
0.718719
0.71869
0.718662
0.718634
0.718606
0.718579
0.718552
0.718525
0.718498
0.718472
0.718446
0.71842
0.718394
0.718369
0.718343
0.718318
0.718293
0.718267
0.718242
0.718217
0.718192
0.718167
0.718142
0.718117
0.718091
0.718066
0.718041
0.718016
0.717991
0.717967
0.717942
0.717917
0.717892
0.717867
0.717842
0.717817
0.717792
0.717767
0.717742
0.717717
0.717692
0.717667
0.717642
0.717617
0.717592
0.717567
0.717542
0.717517
0.717492
0.717467
0.717442
0.717417
0.717392
0.717368
0.717343
0.717318
0.717293
0.717268
0.717243
0.717218
0.717193
0.717168
0.717143
0.717118
0.717093
0.717068
0.717043
0.717018
0.716993
0.716968
0.716943
0.716918
0.716893
0.716869
0.716844
0.716819
0.716794
0.716769
0.716744
0.716719
0.716694
0.716669
0.716644
0.716619
0.716594
0.716569
0.716544
0.716519
0.716494
0.716469
0.716444
0.716419
0.716394
0.716369
0.716345
0.71632
0.716295
0.71627
0.716245
0.71622
0.716195
0.71617
0.716145
0.71612
0.716095
0.71607
0.716045
0.71602
0.715995
0.71597
0.715945
0.71592
0.715895
0.71587
0.715845
0.715821
0.715796
0.715771
0.715746
0.715721
0.715696
0.715671
0.715646
0.715621
0.715596
0.715571
0.715546
0.715521
0.715496
0.715471
0.715446
0.715421
0.715396
0.715371
0.715346
0.715321
0.715297
0.715272
0.715247
0.715222
0.715197
0.715172
0.715147
0.715122
0.715097
0.715072
0.715047
0.715022
0.714997
0.714972
0.714947
0.714922
0.714897
0.714872
0.714847
0.714822
0.714798
0.714773
0.714748
0.714723
0.714698
0.714673
0.714648
0.714623
0.714598
0.714573
0.714548
0.714523
0.714498
0.714473
0.714448
0.714423
0.714398
0.714373
0.714348
0.714323
0.714298
0.71545
0.715399
0.715321
0.715307
0.71537
0.715538
0.715812
0.716191
0.716656
0.71717
0.717677
0.718114
0.718442
0.718655
0.718777
0.718835
0.718856
0.718854
0.718839
0.718818
0.718793
0.718766
0.718739
0.718711
0.718684
0.718656
0.718629
0.718602
0.718575
0.718549
0.718522
0.718496
0.71847
0.718445
0.718419
0.718393
0.718368
0.718343
0.718317
0.718292
0.718267
0.718242
0.718217
0.718192
0.718166
0.718141
0.718116
0.718091
0.718066
0.718041
0.718016
0.717991
0.717966
0.717941
0.717917
0.717892
0.717867
0.717842
0.717817
0.717792
0.717767
0.717742
0.717717
0.717692
0.717667
0.717642
0.717617
0.717592
0.717567
0.717542
0.717517
0.717492
0.717467
0.717442
0.717417
0.717392
0.717368
0.717343
0.717318
0.717293
0.717268
0.717243
0.717218
0.717193
0.717168
0.717143
0.717118
0.717093
0.717068
0.717043
0.717018
0.716993
0.716968
0.716943
0.716918
0.716893
0.716869
0.716844
0.716819
0.716794
0.716769
0.716744
0.716719
0.716694
0.716669
0.716644
0.716619
0.716594
0.716569
0.716544
0.716519
0.716494
0.716469
0.716444
0.716419
0.716394
0.716369
0.716345
0.71632
0.716295
0.71627
0.716245
0.71622
0.716195
0.71617
0.716145
0.71612
0.716095
0.71607
0.716045
0.71602
0.715995
0.71597
0.715945
0.71592
0.715895
0.71587
0.715845
0.715821
0.715796
0.715771
0.715746
0.715721
0.715696
0.715671
0.715646
0.715621
0.715596
0.715571
0.715546
0.715521
0.715496
0.715471
0.715446
0.715421
0.715396
0.715371
0.715346
0.715321
0.715297
0.715272
0.715247
0.715222
0.715197
0.715172
0.715147
0.715122
0.715097
0.715072
0.715047
0.715022
0.714997
0.714972
0.714947
0.714922
0.714897
0.714872
0.714847
0.714822
0.714798
0.714773
0.714748
0.714723
0.714698
0.714673
0.714648
0.714623
0.714598
0.714573
0.714548
0.714523
0.714498
0.714473
0.714448
0.714423
0.714398
0.714373
0.714348
0.714323
0.714298
0.715395
0.715327
0.715219
0.715177
0.715224
0.715382
0.715655
0.716039
0.716517
0.717051
0.717583
0.71805
0.718404
0.718635
0.718765
0.718826
0.718846
0.718843
0.718828
0.718807
0.718782
0.718756
0.71873
0.718703
0.718676
0.71865
0.718624
0.718597
0.718571
0.718545
0.71852
0.718494
0.718468
0.718443
0.718418
0.718392
0.718367
0.718342
0.718317
0.718292
0.718266
0.718241
0.718216
0.718191
0.718166
0.718141
0.718116
0.718091
0.718066
0.718041
0.718016
0.717991
0.717966
0.717941
0.717917
0.717892
0.717867
0.717842
0.717817
0.717792
0.717767
0.717742
0.717717
0.717692
0.717667
0.717642
0.717617
0.717592
0.717567
0.717542
0.717517
0.717492
0.717467
0.717442
0.717417
0.717392
0.717368
0.717343
0.717318
0.717293
0.717268
0.717243
0.717218
0.717193
0.717168
0.717143
0.717118
0.717093
0.717068
0.717043
0.717018
0.716993
0.716968
0.716943
0.716918
0.716893
0.716869
0.716844
0.716819
0.716794
0.716769
0.716744
0.716719
0.716694
0.716669
0.716644
0.716619
0.716594
0.716569
0.716544
0.716519
0.716494
0.716469
0.716444
0.716419
0.716394
0.716369
0.716345
0.71632
0.716295
0.71627
0.716245
0.71622
0.716195
0.71617
0.716145
0.71612
0.716095
0.71607
0.716045
0.71602
0.715995
0.71597
0.715945
0.71592
0.715895
0.71587
0.715845
0.715821
0.715796
0.715771
0.715746
0.715721
0.715696
0.715671
0.715646
0.715621
0.715596
0.715571
0.715546
0.715521
0.715496
0.715471
0.715446
0.715421
0.715396
0.715371
0.715346
0.715321
0.715297
0.715272
0.715247
0.715222
0.715197
0.715172
0.715147
0.715122
0.715097
0.715072
0.715047
0.715022
0.714997
0.714972
0.714947
0.714922
0.714897
0.714872
0.714847
0.714822
0.714798
0.714773
0.714748
0.714723
0.714698
0.714673
0.714648
0.714623
0.714598
0.714573
0.714548
0.714523
0.714498
0.714473
0.714448
0.714423
0.714398
0.714373
0.714348
0.714323
0.714298
0.715197
0.715249
0.715137
0.715101
0.715152
0.715316
0.715598
0.715993
0.71648
0.717022
0.717563
0.718039
0.718401
0.718636
0.718766
0.718823
0.718839
0.718833
0.718816
0.718794
0.71877
0.718745
0.71872
0.718694
0.718669
0.718643
0.718618
0.718592
0.718567
0.718542
0.718517
0.718492
0.718466
0.718441
0.718416
0.718391
0.718366
0.718341
0.718316
0.718291
0.718266
0.718241
0.718216
0.718191
0.718166
0.718141
0.718116
0.718091
0.718066
0.718041
0.718016
0.717991
0.717966
0.717941
0.717916
0.717892
0.717867
0.717842
0.717817
0.717792
0.717767
0.717742
0.717717
0.717692
0.717667
0.717642
0.717617
0.717592
0.717567
0.717542
0.717517
0.717492
0.717467
0.717442
0.717417
0.717392
0.717368
0.717343
0.717318
0.717293
0.717268
0.717243
0.717218
0.717193
0.717168
0.717143
0.717118
0.717093
0.717068
0.717043
0.717018
0.716993
0.716968
0.716943
0.716918
0.716893
0.716869
0.716844
0.716819
0.716794
0.716769
0.716744
0.716719
0.716694
0.716669
0.716644
0.716619
0.716594
0.716569
0.716544
0.716519
0.716494
0.716469
0.716444
0.716419
0.716394
0.716369
0.716345
0.71632
0.716295
0.71627
0.716245
0.71622
0.716195
0.71617
0.716145
0.71612
0.716095
0.71607
0.716045
0.71602
0.715995
0.71597
0.715945
0.71592
0.715895
0.71587
0.715845
0.715821
0.715796
0.715771
0.715746
0.715721
0.715696
0.715671
0.715646
0.715621
0.715596
0.715571
0.715546
0.715521
0.715496
0.715471
0.715446
0.715421
0.715396
0.715371
0.715346
0.715321
0.715297
0.715272
0.715247
0.715222
0.715197
0.715172
0.715147
0.715122
0.715097
0.715072
0.715047
0.715022
0.714997
0.714972
0.714947
0.714922
0.714897
0.714872
0.714847
0.714822
0.714798
0.714773
0.714748
0.714723
0.714698
0.714673
0.714648
0.714623
0.714598
0.714573
0.714548
0.714523
0.714498
0.714473
0.714448
0.714423
0.714398
0.714373
0.714348
0.714323
0.714298
0.716192
0.716129
0.716054
0.715972
0.71588
0.71578
0.715678
0.715514
0.71621
0.716156
0.71608
0.715996
0.715906
0.715811
0.7157
0.715573
0.71623
0.716185
0.716119
0.716044
0.715965
0.715882
0.715802
0.71572
0.716259
0.716223
0.716167
0.716104
0.716038
0.715976
0.715918
0.71587
0.716291
0.716261
0.716214
0.716161
0.71611
0.716065
0.716033
0.716016
0.716325
0.716297
0.716255
0.716209
0.716167
0.716136
0.716122
0.716127
0.716356
0.716325
0.716282
0.716238
0.716202
0.716184
0.716186
0.716211
0.716375
0.716335
0.716292
0.716248
0.716213
0.716195
0.716197
0.716222
0.715424
0.715294
0.715177
0.715142
0.71521
0.715391
0.715684
0.716082
0.716564
0.717094
0.717619
0.718081
0.718432
0.718657
0.718776
0.718824
0.718833
0.718822
0.718803
0.718781
0.718757
0.718733
0.718709
0.718685
0.718661
0.718636
0.718612
0.718588
0.718563
0.718538
0.718514
0.718489
0.718464
0.71844
0.718415
0.71839
0.718365
0.71834
0.718315
0.71829
0.718266
0.718241
0.718216
0.718191
0.718166
0.718141
0.718116
0.718091
0.718066
0.718041
0.718016
0.717991
0.717966
0.717941
0.717916
0.717892
0.717867
0.717842
0.717817
0.717792
0.717767
0.717742
0.717717
0.717692
0.717667
0.717642
0.717617
0.717592
0.717567
0.717542
0.717517
0.717492
0.717467
0.717442
0.717417
0.717392
0.717368
0.717343
0.717318
0.717293
0.717268
0.717243
0.717218
0.717193
0.717168
0.717143
0.717118
0.717093
0.717068
0.717043
0.717018
0.716993
0.716968
0.716943
0.716918
0.716893
0.716869
0.716844
0.716819
0.716794
0.716769
0.716744
0.716719
0.716694
0.716669
0.716644
0.716619
0.716594
0.716569
0.716544
0.716519
0.716494
0.716469
0.716444
0.716419
0.716394
0.716369
0.716345
0.71632
0.716295
0.71627
0.716245
0.71622
0.716195
0.71617
0.716145
0.71612
0.716095
0.71607
0.716045
0.71602
0.715995
0.71597
0.715945
0.71592
0.715895
0.71587
0.715845
0.715821
0.715796
0.715771
0.715746
0.715721
0.715696
0.715671
0.715646
0.715621
0.715596
0.715571
0.715546
0.715521
0.715496
0.715471
0.715446
0.715421
0.715396
0.715371
0.715346
0.715321
0.715297
0.715272
0.715247
0.715222
0.715197
0.715172
0.715147
0.715122
0.715097
0.715072
0.715047
0.715022
0.714997
0.714972
0.714947
0.714922
0.714897
0.714872
0.714847
0.714822
0.714798
0.714773
0.714748
0.714723
0.714698
0.714673
0.714648
0.714623
0.714598
0.714573
0.714548
0.714523
0.714498
0.714473
0.714448
0.714423
0.714398
0.714373
0.714348
0.714323
0.714298
0.715454
0.715383
0.715327
0.715332
0.715423
0.715611
0.715898
0.716279
0.716734
0.717228
0.717715
0.718142
0.718465
0.718671
0.718776
0.718813
0.718816
0.718803
0.718784
0.718763
0.718741
0.71872
0.718697
0.718675
0.718652
0.718629
0.718606
0.718582
0.718559
0.718535
0.718511
0.718487
0.718462
0.718438
0.718413
0.718389
0.718364
0.718339
0.718315
0.71829
0.718265
0.71824
0.718215
0.718191
0.718166
0.718141
0.718116
0.718091
0.718066
0.718041
0.718016
0.717991
0.717966
0.717941
0.717916
0.717891
0.717867
0.717842
0.717817
0.717792
0.717767
0.717742
0.717717
0.717692
0.717667
0.717642
0.717617
0.717592
0.717567
0.717542
0.717517
0.717492
0.717467
0.717442
0.717417
0.717392
0.717368
0.717343
0.717318
0.717293
0.717268
0.717243
0.717218
0.717193
0.717168
0.717143
0.717118
0.717093
0.717068
0.717043
0.717018
0.716993
0.716968
0.716943
0.716918
0.716893
0.716869
0.716844
0.716819
0.716794
0.716769
0.716744
0.716719
0.716694
0.716669
0.716644
0.716619
0.716594
0.716569
0.716544
0.716519
0.716494
0.716469
0.716444
0.716419
0.716394
0.716369
0.716345
0.71632
0.716295
0.71627
0.716245
0.71622
0.716195
0.71617
0.716145
0.71612
0.716095
0.71607
0.716045
0.71602
0.715995
0.71597
0.715945
0.71592
0.715895
0.71587
0.715845
0.715821
0.715796
0.715771
0.715746
0.715721
0.715696
0.715671
0.715646
0.715621
0.715596
0.715571
0.715546
0.715521
0.715496
0.715471
0.715446
0.715421
0.715396
0.715371
0.715346
0.715321
0.715297
0.715272
0.715247
0.715222
0.715197
0.715172
0.715147
0.715122
0.715097
0.715072
0.715047
0.715022
0.714997
0.714972
0.714947
0.714922
0.714897
0.714872
0.714847
0.714822
0.714798
0.714773
0.714748
0.714723
0.714698
0.714673
0.714648
0.714623
0.714598
0.714573
0.714548
0.714523
0.714498
0.714473
0.714448
0.714423
0.714398
0.714373
0.714348
0.714323
0.714298
0.715652
0.715603
0.715587
0.715624
0.715734
0.715927
0.716204
0.716557
0.716968
0.717405
0.717827
0.718191
0.718467
0.718645
0.71874
0.718777
0.718783
0.718774
0.718759
0.718742
0.718724
0.718705
0.718685
0.718665
0.718644
0.718622
0.7186
0.718578
0.718555
0.718532
0.718508
0.718484
0.71846
0.718436
0.718412
0.718388
0.718363
0.718339
0.718314
0.718289
0.718265
0.71824
0.718215
0.71819
0.718165
0.718141
0.718116
0.718091
0.718066
0.718041
0.718016
0.717991
0.717966
0.717941
0.717916
0.717891
0.717867
0.717842
0.717817
0.717792
0.717767
0.717742
0.717717
0.717692
0.717667
0.717642
0.717617
0.717592
0.717567
0.717542
0.717517
0.717492
0.717467
0.717442
0.717417
0.717392
0.717368
0.717343
0.717318
0.717293
0.717268
0.717243
0.717218
0.717193
0.717168
0.717143
0.717118
0.717093
0.717068
0.717043
0.717018
0.716993
0.716968
0.716943
0.716918
0.716893
0.716869
0.716844
0.716819
0.716794
0.716769
0.716744
0.716719
0.716694
0.716669
0.716644
0.716619
0.716594
0.716569
0.716544
0.716519
0.716494
0.716469
0.716444
0.716419
0.716394
0.716369
0.716345
0.71632
0.716295
0.71627
0.716245
0.71622
0.716195
0.71617
0.716145
0.71612
0.716095
0.71607
0.716045
0.71602
0.715995
0.71597
0.715945
0.71592
0.715895
0.71587
0.715845
0.715821
0.715796
0.715771
0.715746
0.715721
0.715696
0.715671
0.715646
0.715621
0.715596
0.715571
0.715546
0.715521
0.715496
0.715471
0.715446
0.715421
0.715396
0.715371
0.715346
0.715321
0.715297
0.715272
0.715247
0.715222
0.715197
0.715172
0.715147
0.715122
0.715097
0.715072
0.715047
0.715022
0.714997
0.714972
0.714947
0.714922
0.714897
0.714872
0.714847
0.714822
0.714798
0.714773
0.714748
0.714723
0.714698
0.714673
0.714648
0.714623
0.714598
0.714573
0.714548
0.714523
0.714498
0.714473
0.714448
0.714423
0.714398
0.714373
0.714348
0.714323
0.714298
0.715838
0.715832
0.715862
0.715938
0.716071
0.716268
0.716528
0.716842
0.717193
0.717555
0.717897
0.71819
0.718415
0.718568
0.718658
0.718705
0.718724
0.718728
0.718724
0.718715
0.718703
0.718689
0.718672
0.718655
0.718635
0.718615
0.718595
0.718573
0.718551
0.718528
0.718505
0.718482
0.718459
0.718435
0.718411
0.718387
0.718362
0.718338
0.718314
0.718289
0.718264
0.71824
0.718215
0.71819
0.718165
0.718141
0.718116
0.718091
0.718066
0.718041
0.718016
0.717991
0.717966
0.717941
0.717916
0.717891
0.717867
0.717842
0.717817
0.717792
0.717767
0.717742
0.717717
0.717692
0.717667
0.717642
0.717617
0.717592
0.717567
0.717542
0.717517
0.717492
0.717467
0.717442
0.717417
0.717392
0.717368
0.717343
0.717318
0.717293
0.717268
0.717243
0.717218
0.717193
0.717168
0.717143
0.717118
0.717093
0.717068
0.717043
0.717018
0.716993
0.716968
0.716943
0.716918
0.716893
0.716869
0.716844
0.716819
0.716794
0.716769
0.716744
0.716719
0.716694
0.716669
0.716644
0.716619
0.716594
0.716569
0.716544
0.716519
0.716494
0.716469
0.716444
0.716419
0.716394
0.716369
0.716345
0.71632
0.716295
0.71627
0.716245
0.71622
0.716195
0.71617
0.716145
0.71612
0.716095
0.71607
0.716045
0.71602
0.715995
0.71597
0.715945
0.71592
0.715895
0.71587
0.715845
0.715821
0.715796
0.715771
0.715746
0.715721
0.715696
0.715671
0.715646
0.715621
0.715596
0.715571
0.715546
0.715521
0.715496
0.715471
0.715446
0.715421
0.715396
0.715371
0.715346
0.715321
0.715297
0.715272
0.715247
0.715222
0.715197
0.715172
0.715147
0.715122
0.715097
0.715072
0.715047
0.715022
0.714997
0.714972
0.714947
0.714922
0.714897
0.714872
0.714847
0.714822
0.714798
0.714773
0.714748
0.714723
0.714698
0.714673
0.714648
0.714623
0.714598
0.714573
0.714548
0.714523
0.714498
0.714473
0.714448
0.714423
0.714398
0.714373
0.714348
0.714323
0.714298
0.71602
0.716049
0.71611
0.71621
0.716355
0.716547
0.716782
0.717051
0.717338
0.717625
0.717893
0.718129
0.718321
0.718465
0.718565
0.718628
0.718665
0.718684
0.718692
0.718691
0.718684
0.718674
0.718661
0.718645
0.718628
0.718609
0.71859
0.718569
0.718548
0.718526
0.718503
0.71848
0.718457
0.718434
0.71841
0.718386
0.718362
0.718337
0.718313
0.718289
0.718264
0.718239
0.718215
0.71819
0.718165
0.71814
0.718116
0.718091
0.718066
0.718041
0.718016
0.717991
0.717966
0.717941
0.717916
0.717891
0.717867
0.717842
0.717817
0.717792
0.717767
0.717742
0.717717
0.717692
0.717667
0.717642
0.717617
0.717592
0.717567
0.717542
0.717517
0.717492
0.717467
0.717442
0.717417
0.717392
0.717368
0.717343
0.717318
0.717293
0.717268
0.717243
0.717218
0.717193
0.717168
0.717143
0.717118
0.717093
0.717068
0.717043
0.717018
0.716993
0.716968
0.716943
0.716918
0.716893
0.716869
0.716844
0.716819
0.716794
0.716769
0.716744
0.716719
0.716694
0.716669
0.716644
0.716619
0.716594
0.716569
0.716544
0.716519
0.716494
0.716469
0.716444
0.716419
0.716394
0.716369
0.716345
0.71632
0.716295
0.71627
0.716245
0.71622
0.716195
0.71617
0.716145
0.71612
0.716095
0.71607
0.716045
0.71602
0.715995
0.71597
0.715945
0.71592
0.715895
0.71587
0.715845
0.715821
0.715796
0.715771
0.715746
0.715721
0.715696
0.715671
0.715646
0.715621
0.715596
0.715571
0.715546
0.715521
0.715496
0.715471
0.715446
0.715421
0.715396
0.715371
0.715346
0.715321
0.715297
0.715272
0.715247
0.715222
0.715197
0.715172
0.715147
0.715122
0.715097
0.715072
0.715047
0.715022
0.714997
0.714972
0.714947
0.714922
0.714897
0.714872
0.714847
0.714822
0.714798
0.714773
0.714748
0.714723
0.714698
0.714673
0.714648
0.714623
0.714598
0.714573
0.714548
0.714523
0.714498
0.714473
0.714448
0.714423
0.714398
0.714373
0.714348
0.714323
0.714298
0.716156
0.716212
0.716296
0.716412
0.716558
0.716732
0.71693
0.717146
0.717371
0.717599
0.717822
0.71803
0.718213
0.718363
0.718477
0.718557
0.71861
0.718643
0.718661
0.718668
0.718667
0.718661
0.718651
0.718637
0.718622
0.718604
0.718586
0.718566
0.718545
0.718523
0.718501
0.718479
0.718456
0.718433
0.718409
0.718385
0.718361
0.718337
0.718313
0.718288
0.718264
0.718239
0.718215
0.71819
0.718165
0.71814
0.718115
0.718091
0.718066
0.718041
0.718016
0.717991
0.717966
0.717941
0.717916
0.717891
0.717866
0.717842
0.717817
0.717792
0.717767
0.717742
0.717717
0.717692
0.717667
0.717642
0.717617
0.717592
0.717567
0.717542
0.717517
0.717492
0.717467
0.717442
0.717417
0.717392
0.717368
0.717343
0.717318
0.717293
0.717268
0.717243
0.717218
0.717193
0.717168
0.717143
0.717118
0.717093
0.717068
0.717043
0.717018
0.716993
0.716968
0.716943
0.716918
0.716893
0.716869
0.716844
0.716819
0.716794
0.716769
0.716744
0.716719
0.716694
0.716669
0.716644
0.716619
0.716594
0.716569
0.716544
0.716519
0.716494
0.716469
0.716444
0.716419
0.716394
0.716369
0.716345
0.71632
0.716295
0.71627
0.716245
0.71622
0.716195
0.71617
0.716145
0.71612
0.716095
0.71607
0.716045
0.71602
0.715995
0.71597
0.715945
0.71592
0.715895
0.71587
0.715845
0.715821
0.715796
0.715771
0.715746
0.715721
0.715696
0.715671
0.715646
0.715621
0.715596
0.715571
0.715546
0.715521
0.715496
0.715471
0.715446
0.715421
0.715396
0.715371
0.715346
0.715321
0.715297
0.715272
0.715247
0.715222
0.715197
0.715172
0.715147
0.715122
0.715097
0.715072
0.715047
0.715022
0.714997
0.714972
0.714947
0.714922
0.714897
0.714872
0.714847
0.714822
0.714798
0.714773
0.714748
0.714723
0.714698
0.714673
0.714648
0.714623
0.714598
0.714573
0.714548
0.714523
0.714498
0.714473
0.714448
0.714423
0.714398
0.714373
0.714348
0.714323
0.714298
0.716255
0.716319
0.716402
0.716504
0.716627
0.716773
0.716943
0.717134
0.717342
0.717558
0.717773
0.717976
0.718157
0.718309
0.718428
0.718517
0.718579
0.718619
0.718643
0.718654
0.718657
0.718653
0.718644
0.718632
0.718618
0.718601
0.718583
0.718563
0.718543
0.718522
0.7185
0.718478
0.718455
0.718432
0.718408
0.718385
0.718361
0.718337
0.718312
0.718288
0.718264
0.718239
0.718214
0.71819
0.718165
0.71814
0.718115
0.718091
0.718066
0.718041
0.718016
0.717991
0.717966
0.717941
0.717916
0.717891
0.717866
0.717842
0.717817
0.717792
0.717767
0.717742
0.717717
0.717692
0.717667
0.717642
0.717617
0.717592
0.717567
0.717542
0.717517
0.717492
0.717467
0.717442
0.717417
0.717392
0.717368
0.717343
0.717318
0.717293
0.717268
0.717243
0.717218
0.717193
0.717168
0.717143
0.717118
0.717093
0.717068
0.717043
0.717018
0.716993
0.716968
0.716943
0.716918
0.716893
0.716869
0.716844
0.716819
0.716794
0.716769
0.716744
0.716719
0.716694
0.716669
0.716644
0.716619
0.716594
0.716569
0.716544
0.716519
0.716494
0.716469
0.716444
0.716419
0.716394
0.716369
0.716345
0.71632
0.716295
0.71627
0.716245
0.71622
0.716195
0.71617
0.716145
0.71612
0.716095
0.71607
0.716045
0.71602
0.715995
0.71597
0.715945
0.71592
0.715895
0.71587
0.715845
0.715821
0.715796
0.715771
0.715746
0.715721
0.715696
0.715671
0.715646
0.715621
0.715596
0.715571
0.715546
0.715521
0.715496
0.715471
0.715446
0.715421
0.715396
0.715371
0.715346
0.715321
0.715297
0.715272
0.715247
0.715222
0.715197
0.715172
0.715147
0.715122
0.715097
0.715072
0.715047
0.715022
0.714997
0.714972
0.714947
0.714922
0.714897
0.714872
0.714847
0.714822
0.714798
0.714773
0.714748
0.714723
0.714698
0.714673
0.714648
0.714623
0.714598
0.714573
0.714548
0.714523
0.714498
0.714473
0.714448
0.714423
0.714398
0.714373
0.714348
0.714323
0.714298
0.716268
0.716334
0.716418
0.716522
0.716645
0.716789
0.716953
0.717136
0.717334
0.717542
0.71775
0.717949
0.718128
0.718281
0.718403
0.718495
0.718561
0.718605
0.718631
0.718645
0.71865
0.718648
0.71864
0.718629
0.718615
0.718599
0.718581
0.718562
0.718542
0.718521
0.7185
0.718477
0.718455
0.718432
0.718408
0.718385
0.718361
0.718337
0.718312
0.718288
0.718264
0.718239
0.718214
0.71819
0.718165
0.71814
0.718115
0.718091
0.718066
0.718041
0.718016
0.717991
0.717966
0.717941
0.717916
0.717891
0.717866
0.717842
0.717817
0.717792
0.717767
0.717742
0.717717
0.717692
0.717667
0.717642
0.717617
0.717592
0.717567
0.717542
0.717517
0.717492
0.717467
0.717442
0.717417
0.717392
0.717368
0.717343
0.717318
0.717293
0.717268
0.717243
0.717218
0.717193
0.717168
0.717143
0.717118
0.717093
0.717068
0.717043
0.717018
0.716993
0.716968
0.716943
0.716918
0.716893
0.716869
0.716844
0.716819
0.716794
0.716769
0.716744
0.716719
0.716694
0.716669
0.716644
0.716619
0.716594
0.716569
0.716544
0.716519
0.716494
0.716469
0.716444
0.716419
0.716394
0.716369
0.716345
0.71632
0.716295
0.71627
0.716245
0.71622
0.716195
0.71617
0.716145
0.71612
0.716095
0.71607
0.716045
0.71602
0.715995
0.71597
0.715945
0.71592
0.715895
0.71587
0.715845
0.715821
0.715796
0.715771
0.715746
0.715721
0.715696
0.715671
0.715646
0.715621
0.715596
0.715571
0.715546
0.715521
0.715496
0.715471
0.715446
0.715421
0.715396
0.715371
0.715346
0.715321
0.715297
0.715272
0.715247
0.715222
0.715197
0.715172
0.715147
0.715122
0.715097
0.715072
0.715047
0.715022
0.714997
0.714972
0.714947
0.714922
0.714897
0.714872
0.714847
0.714822
0.714798
0.714773
0.714748
0.714723
0.714698
0.714673
0.714648
0.714623
0.714598
0.714573
0.714548
0.714523
0.714498
0.714473
0.714448
0.714423
0.714398
0.714373
0.714348
0.714323
0.714298
)
;
