/*--------------------------------*- C++ -*----------------------------------*\
| =========                 |                                                 |
| \\      /  F ield         | OpenFOAM: The Open Source CFD Toolbox           |
|  \\    /   O peration     | Version:  4.1                                   |
|   \\  /    A nd           | Web:      www.OpenFOAM.org                      |
|    \\/     M anipulation  |                                                 |
\*---------------------------------------------------------------------------*/
FoamFile
{
    version     2.0;
    format      ascii;
    class       volScalarField;
    location    "213";
    object      p;
}
// * * * * * * * * * * * * * * * * * * * * * * * * * * * * * * * * * * * * * //

dimensions      [1 -1 -2 0 0 0 0];

internalField   nonuniform List<scalar> 
3264
(
0.712561
0.71256
0.712558
0.712558
0.712557
0.712558
0.712558
0.712559
0.71256
0.712562
0.712564
0.712567
0.712571
0.712575
0.71258
0.712586
0.712593
0.712601
0.712612
0.712624
0.712639
0.712657
0.712678
0.712703
0.712733
0.712767
0.712806
0.71285
0.7129
0.712956
0.713017
0.713084
0.713157
0.713234
0.713316
0.713403
0.713492
0.713584
0.713678
0.713773
0.713867
0.71396
0.71405
0.714138
0.714221
0.714299
0.714372
0.714438
0.714498
0.71455
0.714596
0.714634
0.714666
0.71469
0.714709
0.714723
0.714732
0.714736
0.714738
0.714737
0.714734
0.714729
0.714724
0.714719
0.714714
0.71471
0.714705
0.714702
0.714699
0.714697
0.714695
0.714694
0.714693
0.714692
0.714692
0.714691
0.71469
0.714689
0.714688
0.714687
0.714686
0.714685
0.714684
0.714684
0.714684
0.714685
0.714688
0.714692
0.714697
0.714704
0.714714
0.714725
0.714739
0.714755
0.714774
0.714794
0.714816
0.71484
0.714865
0.714891
0.714917
0.714944
0.71497
0.714995
0.71502
0.715042
0.715063
0.715082
0.715098
0.715112
0.715123
0.715131
0.715137
0.71514
0.71514
0.715138
0.715134
0.715128
0.71512
0.715111
0.715101
0.71509
0.715079
0.715067
0.715054
0.715042
0.71503
0.715018
0.715007
0.714996
0.714985
0.714974
0.714964
0.714954
0.714944
0.714934
0.714924
0.714915
0.714905
0.714896
0.714886
0.714877
0.714867
0.714857
0.714848
0.714838
0.714828
0.714818
0.714808
0.714798
0.714788
0.714778
0.714767
0.714757
0.714747
0.714737
0.714727
0.714717
0.714706
0.714696
0.714686
0.714676
0.714666
0.714656
0.714645
0.714635
0.714625
0.714615
0.714605
0.714595
0.714585
0.714575
0.714564
0.714554
0.714544
0.714534
0.714524
0.714514
0.714504
0.714494
0.714483
0.714473
0.714463
0.714453
0.714443
0.714433
0.714423
0.714413
0.714402
0.714392
0.714382
0.714372
0.714362
0.714352
0.714342
0.714332
0.714321
0.714311
0.714301
0.714291
0.712563
0.712561
0.71256
0.71256
0.71256
0.71256
0.712561
0.712562
0.712563
0.712565
0.712567
0.71257
0.712574
0.712578
0.712583
0.712589
0.712596
0.712605
0.712615
0.712627
0.712641
0.712659
0.712679
0.712703
0.712732
0.712765
0.712803
0.712846
0.712895
0.71295
0.71301
0.713077
0.713148
0.713225
0.713307
0.713393
0.713482
0.713574
0.713667
0.713761
0.713855
0.713948
0.714039
0.714126
0.71421
0.714288
0.714361
0.714427
0.714487
0.71454
0.714586
0.714625
0.714657
0.714682
0.714702
0.714716
0.714726
0.714731
0.714733
0.714733
0.714731
0.714728
0.714724
0.71472
0.714716
0.714713
0.71471
0.714707
0.714704
0.714702
0.7147
0.714699
0.714697
0.714696
0.714695
0.714694
0.714693
0.714692
0.714691
0.714689
0.714688
0.714687
0.714686
0.714685
0.714685
0.714686
0.714688
0.714691
0.714696
0.714703
0.714712
0.714723
0.714737
0.714752
0.71477
0.71479
0.714812
0.714836
0.714861
0.714887
0.714913
0.71494
0.714966
0.714992
0.715016
0.715039
0.71506
0.715079
0.715096
0.71511
0.715122
0.71513
0.715136
0.71514
0.71514
0.715139
0.715135
0.715129
0.715121
0.715112
0.715102
0.715091
0.715079
0.715067
0.715055
0.715043
0.71503
0.715019
0.715007
0.714996
0.714985
0.714974
0.714964
0.714954
0.714944
0.714934
0.714924
0.714915
0.714905
0.714896
0.714886
0.714877
0.714867
0.714857
0.714848
0.714838
0.714828
0.714818
0.714808
0.714798
0.714788
0.714778
0.714767
0.714757
0.714747
0.714737
0.714727
0.714717
0.714706
0.714696
0.714686
0.714676
0.714666
0.714656
0.714645
0.714635
0.714625
0.714615
0.714605
0.714595
0.714585
0.714575
0.714564
0.714554
0.714544
0.714534
0.714524
0.714514
0.714504
0.714494
0.714483
0.714473
0.714463
0.714453
0.714443
0.714433
0.714423
0.714413
0.714402
0.714392
0.714382
0.714372
0.714362
0.714352
0.714342
0.714332
0.714321
0.714311
0.714301
0.714291
0.712564
0.712562
0.712561
0.712561
0.71256
0.71256
0.71256
0.712561
0.712563
0.712564
0.712567
0.71257
0.712573
0.712577
0.712582
0.712588
0.712595
0.712603
0.712612
0.712624
0.712638
0.712654
0.712674
0.712697
0.712725
0.712757
0.712795
0.712837
0.712886
0.71294
0.713
0.713066
0.713137
0.713214
0.713296
0.713381
0.71347
0.713562
0.713655
0.713749
0.713843
0.713936
0.714026
0.714113
0.714197
0.714275
0.714347
0.714413
0.714473
0.714526
0.714571
0.71461
0.714642
0.714667
0.714687
0.714701
0.71471
0.714716
0.714719
0.714719
0.714717
0.714715
0.714712
0.714709
0.714706
0.714704
0.714702
0.714701
0.7147
0.7147
0.714699
0.714699
0.714699
0.714698
0.714697
0.714696
0.714695
0.714693
0.714692
0.714691
0.714689
0.714688
0.714687
0.714686
0.714685
0.714686
0.714687
0.71469
0.714695
0.714701
0.71471
0.714721
0.714734
0.71475
0.714767
0.714787
0.714809
0.714833
0.714858
0.714884
0.71491
0.714937
0.714963
0.714989
0.715014
0.715037
0.715058
0.715078
0.715095
0.715109
0.715121
0.71513
0.715136
0.715139
0.71514
0.715139
0.715135
0.715129
0.715121
0.715112
0.715102
0.715091
0.715079
0.715067
0.715055
0.715043
0.71503
0.715019
0.715007
0.714996
0.714985
0.714974
0.714964
0.714954
0.714944
0.714934
0.714924
0.714915
0.714905
0.714896
0.714886
0.714877
0.714867
0.714857
0.714848
0.714838
0.714828
0.714818
0.714808
0.714798
0.714788
0.714778
0.714767
0.714757
0.714747
0.714737
0.714727
0.714717
0.714706
0.714696
0.714686
0.714676
0.714666
0.714656
0.714645
0.714635
0.714625
0.714615
0.714605
0.714595
0.714585
0.714575
0.714564
0.714554
0.714544
0.714534
0.714524
0.714514
0.714504
0.714494
0.714483
0.714473
0.714463
0.714453
0.714443
0.714433
0.714423
0.714413
0.714402
0.714392
0.714382
0.714372
0.714362
0.714352
0.714342
0.714332
0.714321
0.714311
0.714301
0.714291
0.712559
0.712558
0.712557
0.712558
0.712557
0.712558
0.712558
0.71256
0.712561
0.712563
0.712566
0.712569
0.712572
0.712576
0.712581
0.712586
0.712593
0.7126
0.712609
0.71262
0.712633
0.712649
0.712667
0.71269
0.712717
0.712748
0.712785
0.712827
0.712875
0.712928
0.712988
0.713053
0.713124
0.7132
0.713281
0.713366
0.713454
0.713545
0.713638
0.713731
0.713824
0.713915
0.714004
0.71409
0.714172
0.714249
0.714319
0.714384
0.714442
0.714493
0.714537
0.714574
0.714604
0.714629
0.714647
0.71466
0.714669
0.714675
0.714678
0.714678
0.714678
0.714677
0.714675
0.714674
0.714674
0.714674
0.714675
0.714677
0.714679
0.714682
0.714685
0.714688
0.714691
0.714694
0.714696
0.714697
0.714697
0.714697
0.714696
0.714695
0.714693
0.714691
0.714689
0.714688
0.714687
0.714687
0.714689
0.714691
0.714695
0.714702
0.71471
0.71472
0.714733
0.714748
0.714766
0.714785
0.714807
0.71483
0.714855
0.714881
0.714907
0.714933
0.71496
0.714985
0.71501
0.715033
0.715055
0.715074
0.715091
0.715105
0.715117
0.715126
0.715133
0.715136
0.715137
0.715136
0.715133
0.715127
0.71512
0.715111
0.715101
0.71509
0.715079
0.715067
0.715055
0.715043
0.71503
0.715019
0.715007
0.714996
0.714985
0.714974
0.714964
0.714954
0.714944
0.714934
0.714925
0.714915
0.714906
0.714896
0.714887
0.714877
0.714867
0.714858
0.714848
0.714838
0.714828
0.714818
0.714808
0.714798
0.714788
0.714778
0.714767
0.714757
0.714747
0.714737
0.714727
0.714717
0.714706
0.714696
0.714686
0.714676
0.714666
0.714656
0.714645
0.714635
0.714625
0.714615
0.714605
0.714595
0.714585
0.714575
0.714564
0.714554
0.714544
0.714534
0.714524
0.714514
0.714504
0.714494
0.714483
0.714473
0.714463
0.714453
0.714443
0.714433
0.714423
0.714413
0.714402
0.714392
0.714382
0.714372
0.714362
0.714352
0.714342
0.714332
0.714321
0.714311
0.714301
0.714291
0.712557
0.712556
0.712554
0.712554
0.712553
0.712553
0.712554
0.712555
0.712557
0.71256
0.712563
0.712566
0.71257
0.712574
0.712578
0.712584
0.71259
0.712597
0.712605
0.712616
0.712628
0.712643
0.712662
0.712684
0.71271
0.712741
0.712778
0.712819
0.712867
0.71292
0.712979
0.713044
0.713115
0.71319
0.71327
0.713354
0.713441
0.713531
0.713621
0.713713
0.713803
0.713892
0.713979
0.714062
0.71414
0.714213
0.71428
0.714341
0.714395
0.714442
0.714483
0.714516
0.714543
0.714564
0.71458
0.714591
0.714598
0.714603
0.714605
0.714605
0.714605
0.714605
0.714606
0.714607
0.714609
0.714613
0.714618
0.714624
0.714631
0.714639
0.714648
0.714657
0.714665
0.714673
0.714681
0.714687
0.714692
0.714696
0.714698
0.714699
0.7147
0.714699
0.714698
0.714697
0.714696
0.714696
0.714696
0.714698
0.714702
0.714708
0.714715
0.714725
0.714738
0.714752
0.714769
0.714788
0.714809
0.714832
0.714856
0.714881
0.714907
0.714932
0.714958
0.714983
0.715007
0.715029
0.71505
0.715069
0.715086
0.7151
0.715111
0.71512
0.715127
0.71513
0.715131
0.71513
0.715127
0.715122
0.715115
0.715107
0.715098
0.715088
0.715077
0.715065
0.715054
0.715042
0.71503
0.715019
0.715007
0.714996
0.714985
0.714975
0.714965
0.714954
0.714945
0.714935
0.714925
0.714916
0.714906
0.714896
0.714887
0.714877
0.714867
0.714858
0.714848
0.714838
0.714828
0.714818
0.714808
0.714798
0.714788
0.714777
0.714767
0.714757
0.714747
0.714737
0.714727
0.714716
0.714706
0.714696
0.714686
0.714676
0.714666
0.714656
0.714645
0.714635
0.714625
0.714615
0.714605
0.714595
0.714585
0.714575
0.714564
0.714554
0.714544
0.714534
0.714524
0.714514
0.714504
0.714494
0.714483
0.714473
0.714463
0.714453
0.714443
0.714433
0.714423
0.714413
0.714402
0.714392
0.714382
0.714372
0.714362
0.714352
0.714342
0.714332
0.714321
0.714311
0.714301
0.714291
0.712524
0.712539
0.712539
0.712545
0.712546
0.712549
0.712551
0.712553
0.712555
0.712558
0.712561
0.712565
0.712569
0.712573
0.712578
0.712583
0.712589
0.712596
0.712604
0.712614
0.712627
0.712642
0.71266
0.712682
0.712709
0.71274
0.712776
0.712818
0.712865
0.712918
0.712977
0.713042
0.713111
0.713186
0.713265
0.713347
0.713432
0.713519
0.713608
0.713696
0.713783
0.713867
0.713949
0.714027
0.7141
0.714168
0.714229
0.714284
0.714331
0.714372
0.714407
0.714434
0.714456
0.714472
0.714484
0.714492
0.714497
0.714499
0.714501
0.714501
0.714502
0.714504
0.714506
0.71451
0.714516
0.714524
0.714534
0.714545
0.714558
0.714573
0.714588
0.714604
0.71462
0.714635
0.71465
0.714664
0.714677
0.714687
0.714696
0.714703
0.714708
0.714711
0.714713
0.714715
0.714715
0.714716
0.714716
0.714718
0.714721
0.714726
0.714733
0.714742
0.714753
0.714766
0.714782
0.7148
0.714819
0.714841
0.714863
0.714887
0.714911
0.714935
0.714959
0.714983
0.715005
0.715026
0.715046
0.715063
0.715079
0.715092
0.715103
0.715111
0.715117
0.715121
0.715122
0.715121
0.715119
0.715114
0.715108
0.715101
0.715092
0.715083
0.715073
0.715063
0.715052
0.715041
0.71503
0.715019
0.715008
0.714997
0.714986
0.714976
0.714966
0.714956
0.714946
0.714936
0.714926
0.714916
0.714907
0.714897
0.714887
0.714877
0.714868
0.714858
0.714848
0.714838
0.714828
0.714818
0.714808
0.714798
0.714788
0.714777
0.714767
0.714757
0.714747
0.714737
0.714727
0.714716
0.714706
0.714696
0.714686
0.714676
0.714666
0.714656
0.714645
0.714635
0.714625
0.714615
0.714605
0.714595
0.714585
0.714575
0.714564
0.714554
0.714544
0.714534
0.714524
0.714514
0.714504
0.714494
0.714483
0.714473
0.714463
0.714453
0.714443
0.714433
0.714423
0.714413
0.714402
0.714392
0.714382
0.714372
0.714362
0.714352
0.714342
0.714332
0.714321
0.714311
0.714301
0.714291
0.712524
0.71254
0.712539
0.712542
0.712543
0.712546
0.712548
0.712551
0.712554
0.712557
0.712561
0.712565
0.712569
0.712573
0.712578
0.712584
0.71259
0.712598
0.712606
0.712617
0.71263
0.712646
0.712665
0.712687
0.712715
0.712746
0.712784
0.712826
0.712874
0.712927
0.712986
0.713051
0.71312
0.713194
0.713271
0.713351
0.713434
0.713518
0.713602
0.713686
0.713767
0.713846
0.713921
0.713992
0.714057
0.714117
0.71417
0.714216
0.714256
0.714288
0.714315
0.714336
0.714351
0.714362
0.714369
0.714373
0.714376
0.714377
0.714378
0.714379
0.714381
0.714385
0.714391
0.714398
0.714408
0.714421
0.714436
0.714453
0.714472
0.714493
0.714515
0.714538
0.714562
0.714586
0.714609
0.714631
0.714652
0.714672
0.714689
0.714704
0.714716
0.714727
0.714734
0.71474
0.714745
0.714748
0.714751
0.714754
0.714757
0.714762
0.714768
0.714775
0.714785
0.714796
0.71481
0.714825
0.714842
0.714861
0.714881
0.714902
0.714923
0.714945
0.714966
0.714987
0.715007
0.715026
0.715043
0.715058
0.715072
0.715083
0.715093
0.7151
0.715106
0.715109
0.71511
0.71511
0.715108
0.715104
0.715099
0.715092
0.715085
0.715077
0.715068
0.715059
0.715049
0.715039
0.715029
0.715018
0.715008
0.714998
0.714987
0.714977
0.714967
0.714957
0.714947
0.714937
0.714927
0.714917
0.714907
0.714897
0.714888
0.714878
0.714868
0.714858
0.714848
0.714838
0.714828
0.714818
0.714808
0.714798
0.714787
0.714777
0.714767
0.714757
0.714747
0.714737
0.714727
0.714716
0.714706
0.714696
0.714686
0.714676
0.714666
0.714656
0.714645
0.714635
0.714625
0.714615
0.714605
0.714595
0.714585
0.714575
0.714564
0.714554
0.714544
0.714534
0.714524
0.714514
0.714504
0.714494
0.714483
0.714473
0.714463
0.714453
0.714443
0.714433
0.714423
0.714413
0.714402
0.714392
0.714382
0.714372
0.714362
0.714352
0.714342
0.714332
0.714321
0.714311
0.714301
0.714291
0.712367
0.712507
0.712524
0.712546
0.71255
0.712553
0.712555
0.712557
0.71256
0.712563
0.712566
0.71257
0.712574
0.712579
0.712584
0.71259
0.712597
0.712605
0.712615
0.712627
0.712641
0.712659
0.71268
0.712704
0.712733
0.712767
0.712806
0.71285
0.712899
0.712954
0.713014
0.713078
0.713147
0.713219
0.713295
0.713373
0.713452
0.713531
0.71361
0.713688
0.713762
0.713833
0.7139
0.713961
0.714016
0.714065
0.714108
0.714144
0.714174
0.714197
0.714215
0.714229
0.714238
0.714244
0.714248
0.71425
0.714252
0.714254
0.714256
0.714259
0.714264
0.714271
0.71428
0.714292
0.714306
0.714323
0.714343
0.714365
0.71439
0.714416
0.714445
0.714474
0.714505
0.714536
0.714567
0.714598
0.714627
0.714655
0.714681
0.714705
0.714725
0.714744
0.714759
0.714772
0.714782
0.71479
0.714797
0.714803
0.714808
0.714814
0.714819
0.714826
0.714834
0.714843
0.714854
0.714866
0.71488
0.714895
0.714911
0.714928
0.714945
0.714962
0.714979
0.714996
0.715012
0.715027
0.715041
0.715054
0.715065
0.715074
0.715082
0.715088
0.715092
0.715095
0.715096
0.715096
0.715095
0.715092
0.715088
0.715083
0.715077
0.71507
0.715063
0.715055
0.715046
0.715037
0.715028
0.715018
0.715009
0.714999
0.714989
0.714979
0.714969
0.714959
0.714948
0.714938
0.714928
0.714918
0.714908
0.714898
0.714888
0.714878
0.714868
0.714858
0.714848
0.714838
0.714828
0.714818
0.714808
0.714797
0.714787
0.714777
0.714767
0.714757
0.714747
0.714737
0.714726
0.714716
0.714706
0.714696
0.714686
0.714676
0.714666
0.714656
0.714645
0.714635
0.714625
0.714615
0.714605
0.714595
0.714585
0.714575
0.714564
0.714554
0.714544
0.714534
0.714524
0.714514
0.714504
0.714494
0.714483
0.714473
0.714463
0.714453
0.714443
0.714433
0.714423
0.714413
0.714402
0.714392
0.714382
0.714372
0.714362
0.714352
0.714342
0.714332
0.714321
0.714311
0.714301
0.714291
0.713103
0.713047
0.712984
0.712917
0.712844
0.712765
0.712678
0.712558
0.71311
0.713063
0.713
0.712931
0.712857
0.712779
0.712688
0.71259
0.713114
0.713075
0.713017
0.712951
0.712882
0.71281
0.712739
0.712668
0.713125
0.713091
0.713038
0.712977
0.712912
0.712848
0.712785
0.712726
0.713138
0.713106
0.713057
0.713
0.712941
0.712884
0.712831
0.712783
0.713152
0.71312
0.713072
0.713018
0.712964
0.712913
0.712865
0.712824
0.713168
0.713131
0.713081
0.713029
0.712978
0.712931
0.712887
0.712849
0.713176
0.713129
0.713079
0.71303
0.712982
0.712936
0.712894
0.712856
0.712494
0.712514
0.712534
0.712545
0.712552
0.712555
0.712558
0.712561
0.712564
0.712568
0.712572
0.712576
0.712582
0.712588
0.712594
0.712602
0.712611
0.712622
0.712634
0.712649
0.712666
0.712687
0.712711
0.712739
0.712772
0.712809
0.712851
0.712898
0.712949
0.713006
0.713066
0.713131
0.713199
0.713271
0.713344
0.713418
0.713492
0.713565
0.713637
0.713706
0.713771
0.713832
0.713887
0.713937
0.71398
0.714018
0.714049
0.714074
0.714094
0.714109
0.71412
0.714128
0.714134
0.714138
0.714141
0.714144
0.714147
0.714151
0.714156
0.714162
0.714171
0.714181
0.714194
0.71421
0.714228
0.714248
0.714272
0.714298
0.714326
0.714357
0.714391
0.714425
0.714461
0.714498
0.714536
0.714573
0.714609
0.714644
0.714677
0.714708
0.714737
0.714763
0.714786
0.714806
0.714822
0.714837
0.714849
0.714858
0.714867
0.714874
0.71488
0.714887
0.714894
0.714901
0.714909
0.714918
0.714927
0.714938
0.714949
0.714961
0.714973
0.714985
0.714997
0.715009
0.71502
0.715031
0.715041
0.71505
0.715057
0.715064
0.71507
0.715074
0.715078
0.71508
0.715081
0.715082
0.715081
0.715079
0.715077
0.715073
0.715069
0.715063
0.715057
0.715051
0.715043
0.715036
0.715027
0.715018
0.715009
0.715
0.71499
0.71498
0.71497
0.71496
0.71495
0.71494
0.71493
0.714919
0.714909
0.714899
0.714889
0.714879
0.714868
0.714858
0.714848
0.714838
0.714828
0.714818
0.714807
0.714797
0.714787
0.714777
0.714767
0.714757
0.714747
0.714737
0.714726
0.714716
0.714706
0.714696
0.714686
0.714676
0.714666
0.714656
0.714645
0.714635
0.714625
0.714615
0.714605
0.714595
0.714585
0.714575
0.714564
0.714554
0.714544
0.714534
0.714524
0.714514
0.714504
0.714494
0.714483
0.714473
0.714463
0.714453
0.714443
0.714433
0.714423
0.714413
0.714402
0.714392
0.714382
0.714372
0.714362
0.714352
0.714342
0.714332
0.714321
0.714311
0.714301
0.714291
0.712517
0.712526
0.712539
0.712552
0.71256
0.712566
0.71257
0.712574
0.712578
0.712582
0.712587
0.712593
0.7126
0.712608
0.712617
0.712628
0.71264
0.712654
0.71267
0.712689
0.712711
0.712737
0.712766
0.712799
0.712836
0.712878
0.712924
0.712974
0.713028
0.713087
0.713149
0.713213
0.71328
0.713348
0.713417
0.713486
0.713553
0.713618
0.71368
0.713738
0.713791
0.71384
0.713882
0.713919
0.71395
0.713975
0.713996
0.714012
0.714025
0.714034
0.714042
0.714049
0.714054
0.71406
0.714066
0.714071
0.714078
0.714085
0.714094
0.714103
0.714114
0.714128
0.714143
0.71416
0.71418
0.714203
0.714229
0.714257
0.714288
0.714322
0.714358
0.714396
0.714435
0.714476
0.714518
0.714559
0.714601
0.714641
0.71468
0.714717
0.714752
0.714784
0.714813
0.714839
0.714862
0.714882
0.714898
0.714912
0.714924
0.714934
0.714942
0.714948
0.714955
0.71496
0.714966
0.714971
0.714977
0.714983
0.71499
0.714996
0.715003
0.71501
0.715016
0.715023
0.715029
0.715035
0.71504
0.715045
0.71505
0.715054
0.715058
0.715061
0.715064
0.715066
0.715068
0.715068
0.715069
0.715068
0.715067
0.715065
0.715062
0.715058
0.715053
0.715048
0.715041
0.715034
0.715027
0.715019
0.71501
0.715001
0.714992
0.714982
0.714972
0.714962
0.714952
0.714941
0.714931
0.714921
0.71491
0.7149
0.714889
0.714879
0.714869
0.714858
0.714848
0.714838
0.714828
0.714817
0.714807
0.714797
0.714787
0.714777
0.714767
0.714757
0.714747
0.714736
0.714726
0.714716
0.714706
0.714696
0.714686
0.714676
0.714666
0.714656
0.714645
0.714635
0.714625
0.714615
0.714605
0.714595
0.714585
0.714575
0.714564
0.714554
0.714544
0.714534
0.714524
0.714514
0.714504
0.714494
0.714483
0.714473
0.714463
0.714453
0.714443
0.714433
0.714423
0.714413
0.714402
0.714392
0.714382
0.714372
0.714362
0.714352
0.714342
0.714332
0.714321
0.714311
0.714301
0.714291
0.712615
0.712591
0.712585
0.712585
0.712587
0.71259
0.712593
0.712596
0.7126
0.712605
0.712611
0.712619
0.712628
0.712639
0.712651
0.712665
0.712682
0.712701
0.712722
0.712747
0.712775
0.712806
0.712841
0.71288
0.712923
0.712969
0.71302
0.713074
0.713131
0.713191
0.713252
0.713315
0.713379
0.713443
0.713506
0.713566
0.713625
0.713679
0.713729
0.713773
0.713813
0.713848
0.713877
0.713902
0.713922
0.713939
0.713953
0.713965
0.713976
0.713986
0.713995
0.714003
0.714011
0.71402
0.714028
0.714037
0.714046
0.714056
0.714066
0.714077
0.71409
0.714104
0.71412
0.714138
0.714159
0.714183
0.714209
0.714238
0.71427
0.714305
0.714343
0.714382
0.714424
0.714467
0.714511
0.714556
0.714601
0.714645
0.714688
0.71473
0.714769
0.714806
0.714839
0.71487
0.714897
0.714921
0.714942
0.714959
0.714973
0.714985
0.714994
0.715002
0.715007
0.715012
0.715015
0.715018
0.71502
0.715023
0.715024
0.715026
0.715028
0.71503
0.715032
0.715033
0.715035
0.715037
0.715039
0.715041
0.715043
0.715045
0.715048
0.71505
0.715052
0.715054
0.715056
0.715058
0.715059
0.715059
0.715059
0.715058
0.715056
0.715053
0.71505
0.715045
0.71504
0.715034
0.715027
0.715019
0.715011
0.715002
0.714993
0.714984
0.714974
0.714964
0.714953
0.714943
0.714932
0.714922
0.714911
0.7149
0.71489
0.714879
0.714869
0.714858
0.714848
0.714838
0.714828
0.714817
0.714807
0.714797
0.714787
0.714777
0.714767
0.714757
0.714746
0.714736
0.714726
0.714716
0.714706
0.714696
0.714686
0.714676
0.714666
0.714656
0.714645
0.714635
0.714625
0.714615
0.714605
0.714595
0.714585
0.714575
0.714564
0.714554
0.714544
0.714534
0.714524
0.714514
0.714504
0.714494
0.714483
0.714473
0.714463
0.714453
0.714443
0.714433
0.714423
0.714413
0.714402
0.714392
0.714382
0.714372
0.714362
0.714352
0.714342
0.714332
0.714321
0.714311
0.714301
0.714291
0.71268
0.712653
0.712638
0.712632
0.712628
0.712627
0.712627
0.712629
0.712632
0.712637
0.712644
0.712653
0.712664
0.712677
0.712693
0.712711
0.712732
0.712755
0.712782
0.712812
0.712846
0.712883
0.712924
0.712968
0.713017
0.713068
0.713122
0.713179
0.713238
0.713297
0.713357
0.713417
0.713475
0.713532
0.713586
0.713636
0.713683
0.713724
0.713761
0.713793
0.713822
0.713846
0.713868
0.713887
0.713902
0.713916
0.713928
0.713939
0.71395
0.713962
0.713973
0.713985
0.713996
0.714007
0.714017
0.714027
0.714037
0.714047
0.714058
0.71407
0.714082
0.714097
0.714113
0.714131
0.714152
0.714176
0.714203
0.714233
0.714265
0.714301
0.714339
0.71438
0.714423
0.714468
0.714514
0.71456
0.714607
0.714654
0.714699
0.714743
0.714785
0.714825
0.714862
0.714895
0.714925
0.714952
0.714975
0.714994
0.715011
0.715023
0.715033
0.715041
0.715046
0.71505
0.715051
0.715052
0.715052
0.715051
0.715049
0.715047
0.715045
0.715043
0.715041
0.71504
0.715038
0.715038
0.715037
0.715037
0.715038
0.715039
0.71504
0.715042
0.715044
0.715046
0.715048
0.71505
0.715052
0.715053
0.715054
0.715054
0.715053
0.715051
0.715048
0.715044
0.715039
0.715034
0.715027
0.71502
0.715012
0.715003
0.714994
0.714985
0.714975
0.714965
0.714954
0.714944
0.714933
0.714922
0.714912
0.714901
0.71489
0.71488
0.714869
0.714859
0.714848
0.714838
0.714828
0.714817
0.714807
0.714797
0.714787
0.714777
0.714767
0.714757
0.714746
0.714736
0.714726
0.714716
0.714706
0.714696
0.714686
0.714676
0.714666
0.714656
0.714645
0.714635
0.714625
0.714615
0.714605
0.714595
0.714585
0.714575
0.714564
0.714554
0.714544
0.714534
0.714524
0.714514
0.714504
0.714494
0.714483
0.714473
0.714463
0.714453
0.714443
0.714433
0.714423
0.714413
0.714402
0.714392
0.714382
0.714372
0.714362
0.714352
0.714342
0.714332
0.714321
0.714311
0.714301
0.714291
0.712744
0.712716
0.712697
0.712684
0.712675
0.71267
0.712666
0.712665
0.712667
0.712671
0.712678
0.712687
0.712699
0.712715
0.712733
0.712754
0.712779
0.712807
0.712838
0.712873
0.712912
0.712954
0.713
0.713049
0.7131
0.713155
0.713211
0.713268
0.713325
0.713382
0.713437
0.71349
0.713541
0.713589
0.713635
0.713677
0.713715
0.713748
0.713776
0.7138
0.71382
0.713837
0.713853
0.713868
0.713883
0.713899
0.713914
0.71393
0.713945
0.713959
0.713971
0.713983
0.713994
0.714005
0.714015
0.714025
0.714035
0.714045
0.714056
0.714068
0.714081
0.714096
0.714113
0.714131
0.714153
0.714177
0.714204
0.714234
0.714267
0.714304
0.714342
0.714384
0.714427
0.714473
0.71452
0.714567
0.714615
0.714663
0.714709
0.714755
0.714798
0.714839
0.714878
0.714913
0.714944
0.714972
0.714997
0.715017
0.715034
0.715047
0.715058
0.715065
0.71507
0.715072
0.715073
0.715072
0.71507
0.715067
0.715063
0.715059
0.715055
0.71505
0.715046
0.715043
0.71504
0.715037
0.715036
0.715034
0.715034
0.715035
0.715036
0.715037
0.715039
0.715041
0.715044
0.715046
0.715048
0.71505
0.715051
0.715051
0.71505
0.715049
0.715047
0.715043
0.715039
0.715033
0.715027
0.71502
0.715012
0.715004
0.714995
0.714985
0.714976
0.714965
0.714955
0.714944
0.714934
0.714923
0.714912
0.714901
0.71489
0.71488
0.714869
0.714859
0.714848
0.714838
0.714828
0.714817
0.714807
0.714797
0.714787
0.714777
0.714767
0.714756
0.714746
0.714736
0.714726
0.714716
0.714706
0.714696
0.714686
0.714676
0.714666
0.714656
0.714645
0.714635
0.714625
0.714615
0.714605
0.714595
0.714585
0.714575
0.714564
0.714554
0.714544
0.714534
0.714524
0.714514
0.714504
0.714494
0.714483
0.714473
0.714463
0.714453
0.714443
0.714433
0.714423
0.714413
0.714402
0.714392
0.714382
0.714372
0.714362
0.714352
0.714342
0.714332
0.714321
0.714311
0.714301
0.714291
0.712788
0.71276
0.712739
0.712722
0.712709
0.7127
0.712694
0.71269
0.71269
0.712694
0.712701
0.712711
0.712724
0.712741
0.712761
0.712785
0.712812
0.712843
0.712878
0.712916
0.712957
0.713002
0.71305
0.7131
0.713153
0.713208
0.713263
0.713319
0.713374
0.713428
0.713478
0.713526
0.713571
0.713612
0.713649
0.713682
0.71371
0.713735
0.713757
0.713779
0.713802
0.713825
0.713846
0.713866
0.713885
0.713901
0.713916
0.71393
0.713943
0.713956
0.713968
0.71398
0.713992
0.714003
0.714013
0.714024
0.714035
0.714046
0.714057
0.71407
0.714083
0.714098
0.714116
0.714135
0.714157
0.714182
0.714209
0.71424
0.714273
0.71431
0.714349
0.714391
0.714435
0.714481
0.714528
0.714576
0.714624
0.714672
0.714719
0.714765
0.714809
0.71485
0.714889
0.714924
0.714956
0.714984
0.715009
0.715029
0.715046
0.71506
0.71507
0.715077
0.715081
0.715083
0.715083
0.715081
0.715078
0.715074
0.715069
0.715064
0.715058
0.715053
0.715048
0.715044
0.71504
0.715037
0.715035
0.715033
0.715033
0.715033
0.715034
0.715035
0.715037
0.715039
0.715042
0.715044
0.715046
0.715048
0.715049
0.71505
0.715049
0.715048
0.715046
0.715042
0.715038
0.715033
0.715027
0.71502
0.715012
0.715004
0.714995
0.714986
0.714976
0.714966
0.714955
0.714944
0.714934
0.714923
0.714912
0.714901
0.714891
0.71488
0.714869
0.714859
0.714848
0.714838
0.714828
0.714817
0.714807
0.714797
0.714787
0.714777
0.714767
0.714756
0.714746
0.714736
0.714726
0.714716
0.714706
0.714696
0.714686
0.714676
0.714666
0.714656
0.714645
0.714635
0.714625
0.714615
0.714605
0.714595
0.714585
0.714575
0.714564
0.714554
0.714544
0.714534
0.714524
0.714514
0.714504
0.714494
0.714483
0.714473
0.714463
0.714453
0.714443
0.714433
0.714423
0.714413
0.714402
0.714392
0.714382
0.714372
0.714362
0.714352
0.714342
0.714332
0.714321
0.714311
0.714301
0.714291
0.712815
0.712787
0.712763
0.712743
0.712728
0.712716
0.712708
0.712703
0.712703
0.712706
0.712713
0.712723
0.712738
0.712756
0.712777
0.712802
0.712831
0.712863
0.712899
0.712938
0.71298
0.713026
0.713074
0.713124
0.713176
0.713229
0.713282
0.713334
0.713384
0.713431
0.713475
0.713516
0.713556
0.713595
0.713633
0.713669
0.713703
0.713733
0.71376
0.713785
0.713807
0.713827
0.713846
0.713863
0.71388
0.713896
0.713912
0.713927
0.713941
0.713955
0.713967
0.71398
0.713991
0.714002
0.714013
0.714024
0.714035
0.714046
0.714058
0.714071
0.714085
0.7141
0.714118
0.714138
0.71416
0.714186
0.714214
0.714244
0.714278
0.714315
0.714355
0.714396
0.714441
0.714486
0.714534
0.714581
0.71463
0.714678
0.714725
0.71477
0.714814
0.714855
0.714894
0.714929
0.714961
0.714989
0.715013
0.715034
0.71505
0.715064
0.715073
0.71508
0.715084
0.715086
0.715085
0.715083
0.71508
0.715075
0.71507
0.715065
0.715059
0.715054
0.715049
0.715044
0.71504
0.715037
0.715035
0.715033
0.715033
0.715033
0.715034
0.715035
0.715037
0.715039
0.715041
0.715044
0.715046
0.715047
0.715049
0.715049
0.715049
0.715047
0.715045
0.715042
0.715038
0.715033
0.715027
0.71502
0.715012
0.715004
0.714995
0.714985
0.714976
0.714965
0.714955
0.714944
0.714934
0.714923
0.714912
0.714901
0.714891
0.71488
0.714869
0.714859
0.714848
0.714838
0.714828
0.714817
0.714807
0.714797
0.714787
0.714777
0.714767
0.714756
0.714746
0.714736
0.714726
0.714716
0.714706
0.714696
0.714686
0.714676
0.714666
0.714656
0.714645
0.714635
0.714625
0.714615
0.714605
0.714595
0.714585
0.714575
0.714564
0.714554
0.714544
0.714534
0.714524
0.714514
0.714504
0.714494
0.714483
0.714473
0.714463
0.714453
0.714443
0.714433
0.714423
0.714413
0.714402
0.714392
0.714382
0.714372
0.714362
0.714352
0.714342
0.714332
0.714321
0.714311
0.714301
0.714291
0.712822
0.712792
0.712766
0.712744
0.712727
0.712713
0.712704
0.7127
0.712699
0.712702
0.712709
0.71272
0.712734
0.712752
0.712773
0.712798
0.712826
0.712858
0.712893
0.712931
0.712972
0.713016
0.713062
0.713111
0.713161
0.713213
0.713265
0.713317
0.713368
0.713418
0.713465
0.71351
0.713553
0.713594
0.713632
0.713667
0.713698
0.713727
0.713753
0.713777
0.7138
0.713822
0.713842
0.713862
0.713879
0.713896
0.713912
0.713926
0.71394
0.713953
0.713966
0.713978
0.713989
0.714
0.714011
0.714022
0.714033
0.714045
0.714057
0.71407
0.714085
0.714101
0.714119
0.71414
0.714163
0.714189
0.714217
0.714249
0.714283
0.71432
0.71436
0.714402
0.714447
0.714493
0.71454
0.714588
0.714636
0.714684
0.714731
0.714777
0.71482
0.714861
0.714899
0.714934
0.714966
0.714993
0.715017
0.715037
0.715053
0.715066
0.715075
0.715082
0.715085
0.715087
0.715086
0.715083
0.71508
0.715075
0.71507
0.715064
0.715059
0.715054
0.715049
0.715044
0.71504
0.715037
0.715035
0.715034
0.715033
0.715033
0.715034
0.715036
0.715038
0.71504
0.715042
0.715044
0.715046
0.715048
0.715049
0.715049
0.715049
0.715047
0.715045
0.715042
0.715038
0.715033
0.715026
0.71502
0.715012
0.715004
0.714995
0.714985
0.714975
0.714965
0.714955
0.714944
0.714934
0.714923
0.714912
0.714901
0.714891
0.71488
0.714869
0.714859
0.714848
0.714838
0.714828
0.714817
0.714807
0.714797
0.714787
0.714777
0.714767
0.714756
0.714746
0.714736
0.714726
0.714716
0.714706
0.714696
0.714686
0.714676
0.714666
0.714656
0.714645
0.714635
0.714625
0.714615
0.714605
0.714595
0.714585
0.714575
0.714564
0.714554
0.714544
0.714534
0.714524
0.714514
0.714504
0.714494
0.714483
0.714473
0.714463
0.714453
0.714443
0.714433
0.714423
0.714413
0.714402
0.714392
0.714382
0.714372
0.714362
0.714352
0.714342
0.714332
0.714321
0.714311
0.714301
0.714291
)
;

boundaryField
{
    inlet
    {