/*--------------------------------*- C++ -*----------------------------------*\
| =========                 |                                                 |
| \\      /  F ield         | OpenFOAM: The Open Source CFD Toolbox           |
|  \\    /   O peration     | Version:  4.1                                   |
|   \\  /    A nd           | Web:      www.OpenFOAM.org                      |
|    \\/     M anipulation  |                                                 |
\*---------------------------------------------------------------------------*/
FoamFile
{
    version     2.0;
    format      ascii;
    class       volVectorField;
    location    "2790";
    object      U;
}
// * * * * * * * * * * * * * * * * * * * * * * * * * * * * * * * * * * * * * //

dimensions      [0 1 -1 0 0 0 0];

internalField   nonuniform List<vector> 
1275
(
(0.0136463 5.18528e-05 0)
(0.0136889 6.19117e-05 0)
(0.0136814 6.99438e-05 0)
(0.0136281 7.60489e-05 0)
(0.0135338 8.03047e-05 0)
(0.0134028 8.29604e-05 0)
(0.0132396 8.41012e-05 0)
(0.0130481 8.4005e-05 0)
(0.0128322 8.2781e-05 0)
(0.0125955 8.06902e-05 0)
(0.0123412 7.78521e-05 0)
(0.0120725 7.44906e-05 0)
(0.0117919 7.07175e-05 0)
(0.0115021 6.67111e-05 0)
(0.011205 6.25622e-05 0)
(0.0109027 5.84021e-05 0)
(0.0105968 5.42945e-05 0)
(0.0102889 5.03269e-05 0)
(0.00998013 4.65354e-05 0)
(0.0096717 4.29703e-05 0)
(0.0093645 3.9644e-05 0)
(0.00905942 3.65778e-05 0)
(0.00875711 3.37664e-05 0)
(0.00845823 3.12105e-05 0)
(0.00816326 2.88929e-05 0)
(0.0078727 2.6802e-05 0)
(0.0075869 2.49144e-05 0)
(0.00730625 2.32121e-05 0)
(0.00703101 2.167e-05 0)
(0.00676148 2.02682e-05 0)
(0.00649788 1.89834e-05 0)
(0.00624041 1.7797e-05 0)
(0.00598926 1.6689e-05 0)
(0.0057446 1.56442e-05 0)
(0.00550655 1.46471e-05 0)
(0.00527524 1.36866e-05 0)
(0.00505077 1.27521e-05 0)
(0.00483322 1.18368e-05 0)
(0.00462265 1.09349e-05 0)
(0.00441913 1.00437e-05 0)
(0.00422266 9.16153e-06 0)
(0.00403328 8.28901e-06 0)
(0.00385096 7.42777e-06 0)
(0.0036757 6.58096e-06 0)
(0.00350746 5.75225e-06 0)
(0.00334618 4.9462e-06 0)
(0.0031918 4.16737e-06 0)
(0.00304426 3.42051e-06 0)
(0.00290345 2.70991e-06 0)
(0.00276928 2.03951e-06 0)
(0.00264165 1.41242e-06 0)
(0.00252042 8.31002e-07 0)
(0.00240549 2.96611e-07 0)
(0.00229672 -1.90301e-07 0)
(0.00219396 -6.30294e-07 0)
(0.0020971 -1.02478e-06 0)
(0.00200597 -1.37599e-06 0)
(0.00192044 -1.68683e-06 0)
(0.00184036 -1.96071e-06 0)
(0.00176559 -2.20141e-06 0)
(0.00169597 -2.41295e-06 0)
(0.00163136 -2.59937e-06 0)
(0.00157162 -2.76467e-06 0)
(0.00151661 -2.91268e-06 0)
(0.00146619 -3.04694e-06 0)
(0.00142023 -3.17068e-06 0)
(0.0013786 -3.28678e-06 0)
(0.00134116 -3.39773e-06 0)
(0.0013078 -3.50566e-06 0)
(0.00127841 -3.61231e-06 0)
(0.00125286 -3.71912e-06 0)
(0.00123106 -3.82724e-06 0)
(0.00121289 -3.93754e-06 0)
(0.00119826 -4.0507e-06 0)
(0.00118708 -4.16718e-06 0)
(0.00117925 -4.28732e-06 0)
(0.00117468 -4.41132e-06 0)
(0.0011733 -4.53929e-06 0)
(0.00117501 -4.67123e-06 0)
(0.00117975 -4.80711e-06 0)
(0.00118744 -4.94679e-06 0)
(0.00119799 -5.09009e-06 0)
(0.00121134 -5.23678e-06 0)
(0.00122742 -5.38657e-06 0)
(0.00124615 -5.53912e-06 0)
(0.00126746 -5.69402e-06 0)
(0.00129128 -5.85083e-06 0)
(0.00131754 -6.00906e-06 0)
(0.00134617 -6.16814e-06 0)
(0.0013771 -6.32753e-06 0)
(0.00141024 -6.48655e-06 0)
(0.00144553 -6.6446e-06 0)
(0.00148289 -6.80094e-06 0)
(0.00152224 -6.95493e-06 0)
(0.00156351 -7.10579e-06 0)
(0.00160661 -7.25287e-06 0)
(0.00165146 -7.39543e-06 0)
(0.00169797 -7.53276e-06 0)
(0.00174608 -7.66427e-06 0)
(0.00179568 -7.78912e-06 0)
(0.00184669 -7.90711e-06 0)
(0.00189903 -8.01698e-06 0)
(0.0019526 -8.11936e-06 0)
(0.00200735 -8.21203e-06 0)
(0.00206311 -8.2973e-06 0)
(0.00211992 -8.37081e-06 0)
(0.0021775 -8.43825e-06 0)
(0.00223606 -8.49088e-06 0)
(0.00229506 -8.54076e-06 0)
(0.00235511 -8.57085e-06 0)
(0.00241508 -8.60477e-06 0)
(0.00247643 -8.61051e-06 0)
(0.00253685 -8.6318e-06 0)
(0.00259947 -8.61124e-06 0)
(0.00265964 -8.62531e-06 0)
(0.00272379 -8.57721e-06 0)
(0.00278269 -8.59166e-06 0)
(0.0028491 -8.51991e-06 0)
(0.00290515 -8.54338e-06 0)
(0.00297536 -8.47488e-06 0)
(0.00302616 -8.51231e-06 0)
(0.00310287 -8.5661e-06 0)
(0.00314494 -8.61211e-06 0)
(0.00323249 -9.26513e-06 0)
(0.0032618 -9.37118e-06 0)
(0.00336649 -1.24972e-05 0)
(0.00338203 -1.35797e-05 0)
(0.00351274 -2.79929e-05 0)
(0.0347739 -0.000194613 0)
(0.0351172 -9.87493e-05 0)
(0.0353728 -1.0199e-05 0)
(0.0355444 7.12028e-05 0)
(0.0356369 0.000145156 0)
(0.0356546 0.000212128 0)
(0.0356021 0.000271995 0)
(0.0354841 0.000325314 0)
(0.0353049 0.000372156 0)
(0.0350693 0.000413088 0)
(0.0347812 0.000448323 0)
(0.0344452 0.000478402 0)
(0.0340652 0.000503619 0)
(0.0336452 0.000524473 0)
(0.0331888 0.000541285 0)
(0.0326998 0.000554497 0)
(0.0321814 0.000564424 0)
(0.0316371 0.000571445 0)
(0.0310697 0.000575843 0)
(0.0304824 0.000577935 0)
(0.0298777 0.000577963 0)
(0.0292582 0.000576183 0)
(0.0286265 0.000572792 0)
(0.0279847 0.000567996 0)
(0.0273349 0.000561951 0)
(0.0266793 0.000554816 0)
(0.0260197 0.000546717 0)
(0.0253579 0.000537775 0)
(0.0246954 0.000528091 0)
(0.024034 0.000517759 0)
(0.0233751 0.000506859 0)
(0.02272 0.000495467 0)
(0.0220701 0.000483647 0)
(0.0214266 0.000471463 0)
(0.0207906 0.000458968 0)
(0.0201631 0.000446215 0)
(0.0195453 0.000433251 0)
(0.0189379 0.000420122 0)
(0.0183419 0.000406867 0)
(0.017758 0.000393528 0)
(0.0171869 0.000380138 0)
(0.0166294 0.000366732 0)
(0.016086 0.000353341 0)
(0.0155571 0.000339994 0)
(0.0150433 0.000326716 0)
(0.014545 0.000313532 0)
(0.0140625 0.000300464 0)
(0.013596 0.000287531 0)
(0.0131459 0.000274751 0)
(0.0127121 0.00026214 0)
(0.0122949 0.000249714 0)
(0.0118943 0.000237485 0)
(0.0115103 0.000225465 0)
(0.0111429 0.000213665 0)
(0.0107919 0.000202096 0)
(0.0104573 0.000190765 0)
(0.0101389 0.00017968 0)
(0.00983657 0.000168847 0)
(0.00955 0.000158272 0)
(0.00927899 0.000147959 0)
(0.00902328 0.000137909 0)
(0.00878259 0.000128125 0)
(0.00855661 0.000118606 0)
(0.00834503 0.00010935 0)
(0.00814755 0.000100354 0)
(0.00796382 9.16151e-05 0)
(0.00779352 8.3127e-05 0)
(0.0076363 7.4884e-05 0)
(0.00749184 6.6879e-05 0)
(0.00735979 5.91047e-05 0)
(0.00723982 5.15532e-05 0)
(0.0071316 4.42164e-05 0)
(0.00703479 3.70862e-05 0)
(0.00694907 3.01548e-05 0)
(0.00687412 2.34145e-05 0)
(0.00680963 1.68579e-05 0)
(0.00675528 1.04785e-05 0)
(0.00671077 4.26999e-06 0)
(0.0066758 -1.7731e-06 0)
(0.00665009 -7.65559e-06 0)
(0.00663333 -1.33816e-05 0)
(0.00662526 -1.89545e-05 0)
(0.00662558 -2.43771e-05 0)
(0.00663403 -2.96513e-05 0)
(0.00665034 -3.47785e-05 0)
(0.00667423 -3.97595e-05 0)
(0.00670545 -4.45945e-05 0)
(0.00674373 -4.92831e-05 0)
(0.00678882 -5.38247e-05 0)
(0.00684045 -5.8218e-05 0)
(0.00689837 -6.24617e-05 0)
(0.00696234 -6.65538e-05 0)
(0.00703209 -7.04928e-05 0)
(0.00710737 -7.42762e-05 0)
(0.00718794 -7.79026e-05 0)
(0.00727355 -8.13687e-05 0)
(0.00736395 -8.46746e-05 0)
(0.00745889 -8.78152e-05 0)
(0.00755813 -9.07939e-05 0)
(0.00766143 -9.36014e-05 0)
(0.00776854 -9.62485e-05 0)
(0.00787924 -9.87165e-05 0)
(0.00799326 -0.000101032 0)
(0.00811042 -0.000103155 0)
(0.0082304 -0.000105144 0)
(0.00835312 -0.000106916 0)
(0.00847813 -0.000108594 0)
(0.00860557 -0.000110006 0)
(0.00873465 -0.0001114 0)
(0.00886605 -0.000112434 0)
(0.00899824 -0.000113594 0)
(0.00913298 -0.000114214 0)
(0.00926723 -0.000115222 0)
(0.00940492 -0.00011536 0)
(0.00953996 -0.000116344 0)
(0.00968063 -0.00011589 0)
(0.0098148 -0.000117041 0)
(0.00995915 -0.000115834 0)
(0.0100901 -0.000117398 0)
(0.0102399 -0.000115284 0)
(0.010364 -0.000117495 0)
(0.0105228 -0.000114545 0)
(0.0106347 -0.000117412 0)
(0.0108083 -0.00011463 0)
(0.0109006 -0.00011753 0)
(0.0110971 -0.000119072 0)
(0.0111606 -0.000120331 0)
(0.0113885 -0.000141502 0)
(0.0531219 -0.000724174 0)
(0.0535839 -0.00053407 0)
(0.0539592 -0.000354863 0)
(0.0542508 -0.000186063 0)
(0.0544626 -2.84557e-05 0)
(0.0545981 0.000118684 0)
(0.0546608 0.000254936 0)
(0.0546543 0.000381045 0)
(0.0545819 0.000496925 0)
(0.054447 0.00060328 0)
(0.0542528 0.000700262 0)
(0.0540025 0.000788519 0)
(0.0536991 0.000868343 0)
(0.0533457 0.000940324 0)
(0.052945 0.00100482 0)
(0.0525 0.00106236 0)
(0.0520131 0.00111331 0)
(0.0514871 0.00115814 0)
(0.0509244 0.00119721 0)
(0.0503274 0.00123092 0)
(0.0496986 0.00125959 0)
(0.0490402 0.00128355 0)
(0.0483543 0.0013031 0)
(0.0476433 0.00131851 0)
(0.0469091 0.00133004 0)
(0.0461539 0.00133792 0)
(0.0453797 0.00134235 0)
(0.0445885 0.00134355 0)
(0.0437823 0.00134168 0)
(0.042963 0.00133692 0)
(0.0421324 0.00132942 0)
(0.0412927 0.00131935 0)
(0.0404455 0.00130685 0)
(0.0395928 0.00129205 0)
(0.0387364 0.00127508 0)
(0.0378781 0.00125609 0)
(0.0370197 0.00123521 0)
(0.036163 0.00121256 0)
(0.0353097 0.00118829 0)
(0.0344616 0.00116251 0)
(0.0336202 0.00113537 0)
(0.0327872 0.00110699 0)
(0.0319641 0.00107751 0)
(0.0311525 0.00104706 0)
(0.0303537 0.00101578 0)
(0.0295691 0.000983787 0)
(0.0288 0.000951212 0)
(0.0280476 0.00091818 0)
(0.0273129 0.00088481 0)
(0.0265969 0.000851215 0)
(0.0259006 0.000817504 0)
(0.0252247 0.000783779 0)
(0.02457 0.000750137 0)
(0.023937 0.000716664 0)
(0.0233262 0.000683441 0)
(0.0227381 0.000650541 0)
(0.0221729 0.00061803 0)
(0.0216308 0.000585964 0)
(0.0211121 0.000554393 0)
(0.0206167 0.000523362 0)
(0.0201445 0.000492905 0)
(0.0196956 0.000463053 0)
(0.0192698 0.000433829 0)
(0.0188668 0.000405252 0)
(0.0184864 0.000377336 0)
(0.0181282 0.000350091 0)
(0.0177919 0.000323521 0)
(0.0174771 0.000297628 0)
(0.0171835 0.000272411 0)
(0.0169104 0.000247867 0)
(0.0166576 0.00022399 0)
(0.0164245 0.000200773 0)
(0.0162105 0.000178207 0)
(0.0160153 0.000156281 0)
(0.0158383 0.000134986 0)
(0.0156789 0.000114311 0)
(0.0155367 9.42436e-05 0)
(0.0154111 7.47736e-05 0)
(0.0153017 5.589e-05 0)
(0.0152078 3.75824e-05 0)
(0.015129 1.98408e-05 0)
(0.0150647 2.65609e-06 0)
(0.0150145 -1.39802e-05 0)
(0.0149779 -3.0076e-05 0)
(0.0149543 -4.56379e-05 0)
(0.0149432 -6.06721e-05 0)
(0.0149443 -7.51839e-05 0)
(0.0149569 -8.9178e-05 0)
(0.0149807 -0.000102658 0)
(0.0150151 -0.000115627 0)
(0.0150596 -0.000128089 0)
(0.015114 -0.000140044 0)
(0.0151776 -0.000151496 0)
(0.01525 -0.000162446 0)
(0.0153309 -0.000172896 0)
(0.0154198 -0.000182847 0)
(0.0155162 -0.000192303 0)
(0.0156198 -0.000201262 0)
(0.0157301 -0.000209732 0)
(0.0158468 -0.000217708 0)
(0.0159694 -0.000225206 0)
(0.0160976 -0.00023221 0)
(0.016231 -0.000238756 0)
(0.0163692 -0.000244801 0)
(0.0165119 -0.000250425 0)
(0.0166588 -0.000255526 0)
(0.0168094 -0.000260271 0)
(0.0169636 -0.000264438 0)
(0.0171207 -0.000268369 0)
(0.017281 -0.000271603 0)
(0.0174433 -0.000274818 0)
(0.0176087 -0.00027709 0)
(0.0177748 -0.000279739 0)
(0.0179446 -0.000280976 0)
(0.018113 -0.000283286 0)
(0.0182867 -0.000283339 0)
(0.0184555 -0.000285646 0)
(0.0186336 -0.000284273 0)
(0.0188003 -0.000287043 0)
(0.0189842 -0.000283945 0)
(0.0191448 -0.000287723 0)
(0.0193383 -0.000282777 0)
(0.0194867 -0.000287921 0)
(0.0196962 -0.000281982 0)
(0.0198229 -0.000287847 0)
(0.0200591 -0.000284812 0)
(0.020148 -0.000288353 0)
(0.0204268 -0.000297195 0)
(0.0709675 -0.00121187 0)
(0.0713837 -0.000937735 0)
(0.0717205 -0.000678505 0)
(0.0719811 -0.000433127 0)
(0.0721694 -0.00020272 0)
(0.072289 1.38609e-05 0)
(0.072343 0.00021608 0)
(0.072335 0.00040499 0)
(0.0722679 0.000580526 0)
(0.0721447 0.000743627 0)
(0.0719682 0.000894534 0)
(0.071741 0.00103408 0)
(0.0714656 0.00116269 0)
(0.0711444 0.00128109 0)
(0.0707794 0.00138976 0)
(0.070373 0.00148936 0)
(0.0699268 0.00158037 0)
(0.0694429 0.00166335 0)
(0.0689228 0.00173874 0)
(0.0683685 0.00180702 0)
(0.0677812 0.00186856 0)
(0.0671628 0.00192377 0)
(0.0665144 0.00197295 0)
(0.0658377 0.00201643 0)
(0.0651339 0.00205446 0)
(0.0644045 0.00208728 0)
(0.0636507 0.00211509 0)
(0.0628739 0.00213809 0)
(0.0620755 0.00215643 0)
(0.0612569 0.00217026 0)
(0.0604193 0.0021797 0)
(0.0595642 0.00218488 0)
(0.058693 0.00218589 0)
(0.0578072 0.00218285 0)
(0.0569082 0.00217584 0)
(0.0559977 0.00216497 0)
(0.0550771 0.00215033 0)
(0.0541482 0.00213204 0)
(0.0532125 0.00211019 0)
(0.0522718 0.0020849 0)
(0.0513277 0.00205631 0)
(0.0503821 0.00202454 0)
(0.0494367 0.00198975 0)
(0.0484933 0.00195208 0)
(0.0475538 0.00191172 0)
(0.0466198 0.00186883 0)
(0.0456932 0.00182361 0)
(0.0447757 0.00177624 0)
(0.0438691 0.00172694 0)
(0.0429751 0.00167591 0)
(0.0420952 0.00162337 0)
(0.041231 0.00156952 0)
(0.040384 0.00151458 0)
(0.0395556 0.00145877 0)
(0.0387471 0.00140228 0)
(0.0379597 0.00134532 0)
(0.0371945 0.00128808 0)
(0.0364525 0.00123075 0)
(0.0357345 0.00117349 0)
(0.0350414 0.00111647 0)
(0.0343736 0.00105983 0)
(0.0337319 0.00100372 0)
(0.0331165 0.000948247 0)
(0.0325278 0.000893524 0)
(0.0319659 0.000839644 0)
(0.031431 0.000786691 0)
(0.0309231 0.000734734 0)
(0.030442 0.000683832 0)
(0.0299875 0.000634033 0)
(0.0295596 0.000585375 0)
(0.0291577 0.000537889 0)
(0.0287815 0.000491596 0)
(0.0284307 0.000446512 0)
(0.0281047 0.000402647 0)
(0.027803 0.000360006 0)
(0.027525 0.000318588 0)
(0.0272702 0.00027839 0)
(0.0270379 0.000239408 0)
(0.0268275 0.000201633 0)
(0.0266384 0.000165055 0)
(0.0264698 0.000129665 0)
(0.0263212 9.54492e-05 0)
(0.0261918 6.23967e-05 0)
(0.0260809 3.04947e-05 0)
(0.0259879 -2.69294e-07 0)
(0.0259121 -2.99078e-05 0)
(0.0258528 -5.8433e-05 0)
(0.0258093 -8.58573e-05 0)
(0.025781 -0.000112192 0)
(0.0257671 -0.00013745 0)
(0.0257671 -0.000161642 0)
(0.0257803 -0.000184779 0)
(0.0258061 -0.000206874 0)
(0.0258437 -0.000227936 0)
(0.0258927 -0.000247979 0)
(0.0259525 -0.000267013 0)
(0.0260223 -0.000285053 0)
(0.0261017 -0.000302107 0)
(0.0261901 -0.000318195 0)
(0.0262869 -0.00033332 0)
(0.0263917 -0.000347516 0)
(0.0265038 -0.000360767 0)
(0.0266229 -0.000373138 0)
(0.0267483 -0.000384575 0)
(0.0268797 -0.0003952 0)
(0.0270165 -0.000404881 0)
(0.0271584 -0.000413862 0)
(0.0273049 -0.00042184 0)
(0.0274555 -0.000429306 0)
(0.02761 -0.000435616 0)
(0.0277677 -0.000441741 0)
(0.0279289 -0.000446379 0)
(0.0280922 -0.000451413 0)
(0.0282589 -0.000454298 0)
(0.028426 -0.000458607 0)
(0.0285974 -0.00045954 0)
(0.0287665 -0.000463655 0)
(0.0289426 -0.000462282 0)
(0.0291112 -0.000466932 0)
(0.029293 -0.000462774 0)
(0.0294574 -0.000468802 0)
(0.0296479 -0.000461554 0)
(0.0298018 -0.000469512 0)
(0.0300076 -0.000459846 0)
(0.0301397 -0.000469192 0)
(0.0303735 -0.000459912 0)
(0.0304637 -0.000468007 0)
(0.0307469 -0.000465606 0)
(0.0877613 -0.00163948 0)
(0.0880819 -0.00128592 0)
(0.0883314 -0.000951544 0)
(0.0885136 -0.000634414 0)
(0.0886317 -0.00033607 0)
(0.0886898 -5.48622e-05 0)
(0.0886903 0.000208608 0)
(0.0886371 0.0004557 0)
(0.0885324 0.00068644 0)
(0.0883794 0.000901981 0)
(0.0881801 0.00110271 0)
(0.0879373 0.00128963 0)
(0.0876529 0.00146331 0)
(0.087329 0.00162464 0)
(0.0869675 0.00177422 0)
(0.0865701 0.00191285 0)
(0.0861383 0.00204112 0)
(0.0856737 0.0021597 0)
(0.0851776 0.00226914 0)
(0.0846513 0.00236999 0)
(0.084096 0.00246272 0)
(0.0835128 0.00254779 0)
(0.0829028 0.00262558 0)
(0.0822669 0.00269645 0)
(0.0816062 0.00276071 0)
(0.0809214 0.00281862 0)
(0.0802136 0.00287041 0)
(0.0794835 0.00291628 0)
(0.0787321 0.00295639 0)
(0.0779602 0.00299089 0)
(0.0771686 0.0030199 0)
(0.0763584 0.00304349 0)
(0.0755304 0.00306177 0)
(0.0746856 0.00307479 0)
(0.073825 0.0030826 0)
(0.0729496 0.00308528 0)
(0.0720605 0.00308285 0)
(0.0711588 0.00307539 0)
(0.0702458 0.00306293 0)
(0.0693226 0.00304556 0)
(0.0683907 0.00302333 0)
(0.0674513 0.00299633 0)
(0.066506 0.00296466 0)
(0.0655561 0.00292844 0)
(0.0646031 0.00288778 0)
(0.0636488 0.00284285 0)
(0.0626946 0.00279379 0)
(0.0617421 0.0027408 0)
(0.0607932 0.00268407 0)
(0.0598494 0.00262381 0)
(0.0589124 0.00256027 0)
(0.0579839 0.00249367 0)
(0.0570656 0.00242428 0)
(0.056159 0.00235237 0)
(0.0552659 0.0022782 0)
(0.0543877 0.00220207 0)
(0.0535259 0.00212424 0)
(0.052682 0.002045 0)
(0.0518574 0.00196463 0)
(0.0510533 0.00188342 0)
(0.0502708 0.00180161 0)
(0.049511 0.00171948 0)
(0.048775 0.00163727 0)
(0.0480635 0.00155522 0)
(0.0473773 0.00147354 0)
(0.0467171 0.00139244 0)
(0.0460834 0.0013121 0)
(0.0454765 0.00123271 0)
(0.0448968 0.00115442 0)
(0.0443445 0.00107737 0)
(0.0438197 0.00100167 0)
(0.0433223 0.000927452 0)
(0.0428522 0.000854793 0)
(0.0424093 0.000783777 0)
(0.0419933 0.000714473 0)
(0.0416039 0.000646934 0)
(0.0412406 0.000581207 0)
(0.040903 0.000517326 0)
(0.0405905 0.000455318 0)
(0.0403026 0.000395201 0)
(0.0400386 0.000336987 0)
(0.0397979 0.000280683 0)
(0.0395799 0.00022629 0)
(0.0393838 0.000173804 0)
(0.0392089 0.00012322 0)
(0.0390544 7.45258e-05 0)
(0.0389196 2.77101e-05 0)
(0.0388038 -1.72425e-05 0)
(0.0387061 -6.03489e-05 0)
(0.0386258 -0.000101628 0)
(0.0385621 -0.0001411 0)
(0.0385144 -0.000178787 0)
(0.0384817 -0.00021471 0)
(0.0384634 -0.000248896 0)
(0.0384588 -0.000281368 0)
(0.038467 -0.000312153 0)
(0.0384875 -0.00034128 0)
(0.0385195 -0.000368775 0)
(0.0385623 -0.000394671 0)
(0.0386152 -0.000418993 0)
(0.0386777 -0.000441785 0)
(0.0387491 -0.000463061 0)
(0.0388288 -0.000482887 0)
(0.0389162 -0.000501249 0)
(0.0390108 -0.000518261 0)
(0.0391119 -0.000533848 0)
(0.0392191 -0.000548218 0)
(0.0393319 -0.000561163 0)
(0.0394498 -0.00057309 0)
(0.0395722 -0.000583516 0)
(0.0396989 -0.000593241 0)
(0.0398292 -0.000601234 0)
(0.0399631 -0.000609064 0)
(0.0400998 -0.00061465 0)
(0.0402391 -0.000620994 0)
(0.0403811 -0.000624085 0)
(0.040524 -0.000629514 0)
(0.0406706 -0.000629857 0)
(0.040815 -0.000635167 0)
(0.0409667 -0.000632288 0)
(0.0411092 -0.000638546 0)
(0.0412685 -0.00063179 0)
(0.0414031 -0.000640234 0)
(0.0415758 -0.00062914 0)
(0.0416922 -0.000640415 0)
(0.0418901 -0.000626393 0)
(0.0419684 -0.00063762 0)
(0.0422141 -0.000626323 0)
(0.101973 -0.0019308 0)
(0.102172 -0.00150967 0)
(0.102312 -0.00111191 0)
(0.1024 -0.000734811 0)
(0.102436 -0.000380027 0)
(0.102425 -4.55506e-05 0)
(0.102368 0.000268164 0)
(0.102269 0.000562675 0)
(0.10213 0.000838234 0)
(0.101953 0.00109614 0)
(0.101739 0.00133702 0)
(0.10149 0.00156201 0)
(0.101208 0.00177187 0)
(0.100895 0.00196762 0)
(0.100552 0.00215005 0)
(0.100179 0.00232005 0)
(0.0997783 0.00247838 0)
(0.0993507 0.00262579 0)
(0.0988969 0.00276296 0)
(0.098418 0.00289052 0)
(0.0979146 0.00300903 0)
(0.0973875 0.00311901 0)
(0.0968374 0.00322092 0)
(0.0962649 0.00331516 0)
(0.0956706 0.00340207 0)
(0.0950551 0.00348195 0)
(0.094419 0.00355506 0)
(0.0937628 0.00362159 0)
(0.093087 0.00368173 0)
(0.0923923 0.0037356 0)
(0.0916792 0.00378329 0)
(0.0909483 0.0038249 0)
(0.0902001 0.00386046 0)
(0.0894354 0.00389 0)
(0.0886547 0.00391355 0)
(0.0878589 0.0039311 0)
(0.0870486 0.00394267 0)
(0.0862247 0.00394823 0)
(0.085388 0.00394781 0)
(0.0845395 0.00394138 0)
(0.08368 0.00392898 0)
(0.0828107 0.00391062 0)
(0.0819326 0.00388634 0)
(0.0810468 0.0038562 0)
(0.0801546 0.00382026 0)
(0.0792572 0.00377863 0)
(0.0783558 0.00373142 0)
(0.0774519 0.00367877 0)
(0.0765468 0.00362084 0)
(0.075642 0.00355783 0)
(0.0747389 0.00348994 0)
(0.073839 0.0034174 0)
(0.0729438 0.00334047 0)
(0.0720548 0.00325942 0)
(0.0711735 0.00317454 0)
(0.0703014 0.00308615 0)
(0.0694399 0.00299454 0)
(0.0685906 0.00290007 0)
(0.0677549 0.00280305 0)
(0.066934 0.00270383 0)
(0.0661293 0.00260275 0)
(0.0653421 0.00250014 0)
(0.0645734 0.00239636 0)
(0.0638245 0.00229172 0)
(0.0630964 0.00218654 0)
(0.0623898 0.00208113 0)
(0.0617058 0.00197578 0)
(0.0610449 0.00187079 0)
(0.0604079 0.00176641 0)
(0.0597952 0.00166289 0)
(0.0592073 0.00156046 0)
(0.0586446 0.00145933 0)
(0.0581072 0.00135971 0)
(0.0575953 0.00126176 0)
(0.0571089 0.00116565 0)
(0.056648 0.00107152 0)
(0.0562125 0.000979487 0)
(0.0558021 0.000889668 0)
(0.0554165 0.000802155 0)
(0.0550555 0.000717029 0)
(0.0547186 0.000634356 0)
(0.0544053 0.00055419 0)
(0.0541151 0.000476577 0)
(0.0538474 0.000401547 0)
(0.0536016 0.000329125 0)
(0.0533771 0.000259325 0)
(0.0531731 0.000192155 0)
(0.0529891 0.000127614 0)
(0.0528242 6.56957e-05 0)
(0.0526778 6.38773e-06 0)
(0.052549 -5.03272e-05 0)
(0.0524372 -0.000104472 0)
(0.0523416 -0.000156073 0)
(0.0522614 -0.00020516 0)
(0.0521959 -0.000251769 0)
(0.0521443 -0.000295936 0)
(0.052106 -0.000337703 0)
(0.05208 -0.000377111 0)
(0.0520659 -0.000414211 0)
(0.0520628 -0.000449045 0)
(0.0520701 -0.000481674 0)
(0.052087 -0.000512133 0)
(0.0521131 -0.00054051 0)
(0.0521476 -0.000566809 0)
(0.0521899 -0.00059117 0)
(0.0522394 -0.000613534 0)
(0.0522958 -0.000634141 0)
(0.0523581 -0.000652791 0)
(0.0524262 -0.000669939 0)
(0.0524993 -0.000685082 0)
(0.0525772 -0.000699114 0)
(0.0526591 -0.000710914 0)
(0.0527452 -0.000722252 0)
(0.0528342 -0.000730787 0)
(0.0529267 -0.000739987 0)
(0.0530213 -0.000745178 0)
(0.0531188 -0.000753012 0)
(0.053218 -0.000754531 0)
(0.0533186 -0.000762078 0)
(0.053422 -0.000759286 0)
(0.0535235 -0.000767916 0)
(0.0536319 -0.000760088 0)
(0.05373 -0.000770895 0)
(0.0538475 -0.000758248 0)
(0.0539332 -0.000770828 0)
(0.0540702 -0.000754366 0)
(0.0541265 -0.000767065 0)
(0.0543036 -0.000751646 0)
(0.111937 -0.00209589 0)
(0.111988 -0.00162411 0)
(0.112001 -0.00117938 0)
(0.111983 -0.000757912 0)
(0.111932 -0.000361417 0)
(0.111853 1.24017e-05 0)
(0.111746 0.000363413 0)
(0.111613 0.000693254 0)
(0.111455 0.00100251 0)
(0.111274 0.00129252 0)
(0.111069 0.00156418 0)
(0.110843 0.00181866 0)
(0.110595 0.00205693 0)
(0.110326 0.00228004 0)
(0.110037 0.00248894 0)
(0.109727 0.00268456 0)
(0.109399 0.00286774 0)
(0.10905 0.0030393 0)
(0.108683 0.00319997 0)
(0.108297 0.00335042 0)
(0.107893 0.00349126 0)
(0.10747 0.00362304 0)
(0.107028 0.00374625 0)
(0.106569 0.0038613 0)
(0.106091 0.00396855 0)
(0.105596 0.00406833 0)
(0.105082 0.00416087 0)
(0.104552 0.0042464 0)
(0.104004 0.00432507 0)
(0.103438 0.004397 0)
(0.102856 0.00446229 0)
(0.102257 0.00452099 0)
(0.101641 0.00457311 0)
(0.10101 0.00461867 0)
(0.100363 0.00465764 0)
(0.0997002 0.00468999 0)
(0.0990228 0.00471569 0)
(0.098331 0.00473468 0)
(0.0976256 0.00474691 0)
(0.096907 0.00475234 0)
(0.096176 0.00475092 0)
(0.0954333 0.00474263 0)
(0.0946797 0.00472744 0)
(0.0939162 0.00470536 0)
(0.0931436 0.0046764 0)
(0.092363 0.00464061 0)
(0.0915754 0.00459806 0)
(0.0907818 0.00454882 0)
(0.0899836 0.00449303 0)
(0.0891817 0.00443084 0)
(0.0883776 0.00436241 0)
(0.0875724 0.00428795 0)
(0.0867675 0.00420771 0)
(0.0859642 0.00412192 0)
(0.0851639 0.00403089 0)
(0.0843678 0.00393491 0)
(0.0835774 0.00383432 0)
(0.0827939 0.00372947 0)
(0.0820188 0.00362072 0)
(0.0812532 0.00350844 0)
(0.0804985 0.00339303 0)
(0.079756 0.00327487 0)
(0.0790267 0.00315437 0)
(0.0783118 0.00303191 0)
(0.0776124 0.0029079 0)
(0.0769294 0.00278272 0)
(0.0762638 0.00265674 0)
(0.0756165 0.00253035 0)
(0.0749881 0.00240389 0)
(0.0743795 0.0022777 0)
(0.0737911 0.00215212 0)
(0.0732235 0.00202744 0)
(0.072677 0.00190396 0)
(0.0721521 0.00178195 0)
(0.071649 0.00166164 0)
(0.0711679 0.00154328 0)
(0.0707087 0.00142707 0)
(0.0702716 0.0013132 0)
(0.0698564 0.00120184 0)
(0.069463 0.00109313 0)
(0.0690912 0.000987227 0)
(0.0687407 0.000884227 0)
(0.0684111 0.000784234 0)
(0.0681021 0.000687331 0)
(0.0678132 0.000593585 0)
(0.067544 0.000503052 0)
(0.0672939 0.000415771 0)
(0.0670623 0.000331771 0)
(0.0668488 0.00025107 0)
(0.0666525 0.000173676 0)
(0.066473 9.95848e-05 0)
(0.0663096 2.87852e-05 0)
(0.0661616 -3.87422e-05 0)
(0.0660283 -0.000103026 0)
(0.0659091 -0.000164099 0)
(0.0658033 -0.000222003 0)
(0.0657102 -0.000276786 0)
(0.0656292 -0.000328499 0)
(0.0655596 -0.0003772 0)
(0.0655008 -0.000422949 0)
(0.065452 -0.000465816 0)
(0.0654128 -0.000505864 0)
(0.0653825 -0.00054318 0)
(0.0653604 -0.000577816 0)
(0.065346 -0.000609891 0)
(0.0653388 -0.000639426 0)
(0.0653383 -0.000666599 0)
(0.0653437 -0.000691355 0)
(0.065355 -0.000713992 0)
(0.0653711 -0.000734291 0)
(0.0653923 -0.000752794 0)
(0.0654173 -0.000768941 0)
(0.0654468 -0.00078376 0)
(0.0654788 -0.000796014 0)
(0.0655152 -0.000807676 0)
(0.0655528 -0.000816212 0)
(0.0655947 -0.000825367 0)
(0.0656365 -0.000830204 0)
(0.0656828 -0.000837693 0)
(0.0657279 -0.000838604 0)
(0.0657767 -0.000845559 0)
(0.0658257 -0.000841903 0)
(0.0658736 -0.000849911 0)
(0.065929 -0.000840211 0)
(0.0659714 -0.000851696 0)
(0.0660373 -0.000835664 0)
(0.0660631 -0.000847994 0)
(0.0661552 -0.000830856 0)
(0.115917 -0.00207138 0)
(0.115809 -0.00157555 0)
(0.11569 -0.00110855 0)
(0.115568 -0.00066699 0)
(0.115437 -0.000251525 0)
(0.115302 0.00013972 0)
(0.115161 0.000507404 0)
(0.115016 0.000852933 0)
(0.114865 0.0011774 0)
(0.114708 0.00148207 0)
(0.114546 0.00176812 0)
(0.114378 0.00203672 0)
(0.114203 0.00228903 0)
(0.114021 0.0025261 0)
(0.113831 0.002749 0)
(0.113634 0.00295867 0)
(0.113427 0.00315602 0)
(0.11321 0.00334188 0)
(0.112984 0.00351702 0)
(0.112747 0.00368212 0)
(0.112499 0.0038378 0)
(0.112239 0.00398461 0)
(0.111968 0.00412304 0)
(0.111683 0.00425349 0)
(0.111386 0.00437632 0)
(0.111075 0.00449182 0)
(0.110751 0.00460022 0)
(0.110412 0.00470171 0)
(0.110059 0.00479642 0)
(0.109691 0.00488443 0)
(0.109308 0.00496578 0)
(0.10891 0.0050405 0)
(0.108497 0.00510856 0)
(0.108068 0.0051699 0)
(0.107624 0.00522446 0)
(0.107165 0.00527215 0)
(0.10669 0.00531285 0)
(0.106201 0.00534648 0)
(0.105697 0.00537289 0)
(0.105178 0.005392 0)
(0.104645 0.00540368 0)
(0.104098 0.00540783 0)
(0.103538 0.00540438 0)
(0.102966 0.00539326 0)
(0.102381 0.00537442 0)
(0.101786 0.00534784 0)
(0.101179 0.00531352 0)
(0.100564 0.00527151 0)
(0.0999389 0.00522187 0)
(0.0993065 0.0051647 0)
(0.0986673 0.00510014 0)
(0.0980225 0.00502834 0)
(0.097373 0.00494953 0)
(0.0967202 0.00486392 0)
(0.0960651 0.00477179 0)
(0.0954089 0.00467344 0)
(0.0947528 0.0045692 0)
(0.0940982 0.00445941 0)
(0.0934461 0.00434445 0)
(0.0927978 0.00422473 0)
(0.0921545 0.00410065 0)
(0.0915174 0.00397264 0)
(0.0908875 0.00384115 0)
(0.0902661 0.00370661 0)
(0.0896542 0.00356947 0)
(0.0890527 0.00343019 0)
(0.0884627 0.00328921 0)
(0.087885 0.00314697 0)
(0.0873204 0.00300389 0)
(0.0867697 0.0028604 0)
(0.0862336 0.0027169 0)
(0.0857128 0.00257377 0)
(0.0852076 0.0024314 0)
(0.0847187 0.00229012 0)
(0.0842463 0.00215027 0)
(0.0837908 0.00201215 0)
(0.0833525 0.00187606 0)
(0.0829314 0.00174226 0)
(0.0825277 0.00161099 0)
(0.0821413 0.00148248 0)
(0.0817723 0.00135691 0)
(0.0814205 0.00123447 0)
(0.0810858 0.00111531 0)
(0.0807679 0.000999571 0)
(0.0804666 0.000887368 0)
(0.0801815 0.000778796 0)
(0.0799123 0.000673938 0)
(0.0796587 0.000572855 0)
(0.0794201 0.000475595 0)
(0.0791961 0.000382191 0)
(0.0789863 0.00029266 0)
(0.0787901 0.000207009 0)
(0.078607 0.00012523 0)
(0.0784366 4.7305e-05 0)
(0.0782781 -2.67947e-05 0)
(0.0781312 -9.71074e-05 0)
(0.0779953 -0.000163681 0)
(0.0778698 -0.000226569 0)
(0.0777542 -0.000285839 0)
(0.0776479 -0.000341555 0)
(0.0775504 -0.000393801 0)
(0.0774612 -0.000442647 0)
(0.0773797 -0.000488201 0)
(0.0773056 -0.000530521 0)
(0.0772382 -0.000569757 0)
(0.0771771 -0.000605924 0)
(0.0771219 -0.000639253 0)
(0.0770721 -0.000669659 0)
(0.0770273 -0.000697533 0)
(0.0769871 -0.000722566 0)
(0.0769512 -0.000745487 0)
(0.0769189 -0.000765506 0)
(0.0768905 -0.000784048 0)
(0.0768648 -0.000799336 0)
(0.0768425 -0.000814198 0)
(0.0768221 -0.000824879 0)
(0.076805 -0.000836981 0)
(0.0767885 -0.000842872 0)
(0.0767758 -0.000853539 0)
(0.076762 -0.000853913 0)
(0.0767532 -0.000865079 0)
(0.0767407 -0.000858642 0)
(0.0767358 -0.00087198 0)
(0.0767245 -0.000860413 0)
(0.0767202 -0.000872047 0)
(0.076712 -0.000857179 0)
(0.0767035 -0.000868534 0)
(0.076705 -0.000852249 0)
(0.112571 -0.00188725 0)
(0.112319 -0.00139747 0)
(0.112085 -0.000937687 0)
(0.111879 -0.000503954 0)
(0.111692 -9.57706e-05 0)
(0.111529 0.000288252 0)
(0.111384 0.000649655 0)
(0.111259 0.000989508 0)
(0.11115 0.0013094 0)
(0.111056 0.0016104 0)
(0.110975 0.00189396 0)
(0.110907 0.00216112 0)
(0.110847 0.00241316 0)
(0.110796 0.00265105 0)
(0.110752 0.0028759 0)
(0.110712 0.00308858 0)
(0.110676 0.00329001 0)
(0.110641 0.00348093 0)
(0.110607 0.00366212 0)
(0.110571 0.00383417 0)
(0.110534 0.00399769 0)
(0.110492 0.00415316 0)
(0.110447 0.00430104 0)
(0.110395 0.00444167 0)
(0.110336 0.00457538 0)
(0.11027 0.00470239 0)
(0.110195 0.00482291 0)
(0.11011 0.00493706 0)
(0.110015 0.00504493 0)
(0.109908 0.00514655 0)
(0.10979 0.00524193 0)
(0.109659 0.00533101 0)
(0.109515 0.00541373 0)
(0.109357 0.00548997 0)
(0.109184 0.00555961 0)
(0.108998 0.00562249 0)
(0.108796 0.00567846 0)
(0.108579 0.00572732 0)
(0.108347 0.00576891 0)
(0.1081 0.00580303 0)
(0.107837 0.0058295 0)
(0.107558 0.00584816 0)
(0.107264 0.00585885 0)
(0.106955 0.00586142 0)
(0.10663 0.00585575 0)
(0.106292 0.00584175 0)
(0.105939 0.00581936 0)
(0.105572 0.00578854 0)
(0.105192 0.00574929 0)
(0.1048 0.00570165 0)
(0.104396 0.0056457 0)
(0.103981 0.00558154 0)
(0.103556 0.00550934 0)
(0.103122 0.00542928 0)
(0.10268 0.0053416 0)
(0.10223 0.00524658 0)
(0.101774 0.00514451 0)
(0.101313 0.00503573 0)
(0.100848 0.00492063 0)
(0.10038 0.0047996 0)
(0.0999092 0.00467307 0)
(0.099438 0.00454147 0)
(0.098967 0.00440528 0)
(0.0984972 0.00426498 0)
(0.0980297 0.00412105 0)
(0.0975654 0.00397399 0)
(0.0971054 0.0038243 0)
(0.0966504 0.00367246 0)
(0.0962015 0.00351897 0)
(0.0957593 0.00336431 0)
(0.0953247 0.00320896 0)
(0.0948984 0.00305336 0)
(0.0944809 0.00289796 0)
(0.0940729 0.00274319 0)
(0.0936749 0.00258944 0)
(0.0932873 0.00243709 0)
(0.0929104 0.0022865 0)
(0.0925447 0.00213801 0)
(0.0921902 0.00199192 0)
(0.0918473 0.00184851 0)
(0.0915161 0.00170806 0)
(0.0911966 0.00157078 0)
(0.0908888 0.0014369 0)
(0.0905927 0.0013066 0)
(0.0903083 0.00118004 0)
(0.0900353 0.00105736 0)
(0.0897737 0.000938693 0)
(0.0895231 0.000824123 0)
(0.0892835 0.000713735 0)
(0.0890545 0.000607587 0)
(0.0888358 0.000505721 0)
(0.0886271 0.000408162 0)
(0.0884281 0.00031492 0)
(0.0882385 0.000225988 0)
(0.0880578 0.000141348 0)
(0.0878856 6.0968e-05 0)
(0.0877217 -1.51971e-05 0)
(0.0875657 -8.72011e-05 0)
(0.0874171 -0.00015511 0)
(0.0872755 -0.000218996 0)
(0.0871407 -0.000278946 0)
(0.0870121 -0.000335042 0)
(0.0868895 -0.000387394 0)
(0.0867724 -0.000436083 0)
(0.0866606 -0.00048125 0)
(0.0865536 -0.00052296 0)
(0.0864514 -0.000561404 0)
(0.086353 -0.00059659 0)