/*--------------------------------*- C++ -*----------------------------------*\
| =========                 |                                                 |
| \\      /  F ield         | OpenFOAM: The Open Source CFD Toolbox           |
|  \\    /   O peration     | Version:  4.1                                   |
|   \\  /    A nd           | Web:      www.OpenFOAM.org                      |
|    \\/     M anipulation  |                                                 |
\*---------------------------------------------------------------------------*/
FoamFile
{
    version     2.0;
    format      ascii;
    class       volVectorField;
    location    "840";
    object      U;
}
// * * * * * * * * * * * * * * * * * * * * * * * * * * * * * * * * * * * * * //

dimensions      [0 1 -1 0 0 0 0];

internalField   nonuniform List<vector> 
3264
(
(-2.66505e-06 -4.76919e-07 0)
(-0.000133198 3.05681e-05 0)
(-0.000389823 4.8669e-05 0)
(-0.000677077 5.10069e-05 0)
(-0.000978985 5.27298e-05 0)
(-0.00128491 5.2131e-05 0)
(-0.00158951 5.34239e-05 0)
(-0.00189412 5.40564e-05 0)
(-0.00219414 5.5145e-05 0)
(-0.00249025 5.57504e-05 0)
(-0.00277985 5.62817e-05 0)
(-0.00306312 5.64935e-05 0)
(-0.00333894 5.65472e-05 0)
(-0.00360735 5.64031e-05 0)
(-0.00386799 5.61331e-05 0)
(-0.00412091 5.57477e-05 0)
(-0.00436604 5.52835e-05 0)
(-0.00460347 5.4757e-05 0)
(-0.00483324 5.41882e-05 0)
(-0.00505544 5.35895e-05 0)
(-0.00527016 5.29717e-05 0)
(-0.00547746 5.2342e-05 0)
(-0.00567739 5.17052e-05 0)
(-0.00586999 5.10638e-05 0)
(-0.00605527 5.0418e-05 0)
(-0.00623319 4.97661e-05 0)
(-0.00640368 4.91042e-05 0)
(-0.00656665 4.84261e-05 0)
(-0.00672192 4.77237e-05 0)
(-0.00686931 4.69865e-05 0)
(-0.00700853 4.62018e-05 0)
(-0.00713927 4.53544e-05 0)
(-0.00726114 4.44272e-05 0)
(-0.00737371 4.34009e-05 0)
(-0.00747645 4.2254e-05 0)
(-0.00756879 4.09637e-05 0)
(-0.00765009 3.95058e-05 0)
(-0.00771967 3.78553e-05 0)
(-0.00777676 3.59871e-05 0)
(-0.00782057 3.38767e-05 0)
(-0.00785027 3.15006e-05 0)
(-0.007865 2.88376e-05 0)
(-0.00786389 2.58695e-05 0)
(-0.00784606 2.25817e-05 0)
(-0.00781065 1.89646e-05 0)
(-0.00775683 1.50135e-05 0)
(-0.00768383 1.07301e-05 0)
(-0.00759093 6.12246e-06 0)
(-0.00747751 1.2057e-06 0)
(-0.00734304 -3.99807e-06 0)
(-0.00718711 -9.45958e-06 0)
(-0.00700944 -1.51427e-05 0)
(-0.0068099 -2.10049e-05 0)
(-0.00658851 -2.69975e-05 0)
(-0.00634547 -3.3067e-05 0)
(-0.00608115 -3.91556e-05 0)
(-0.00579607 -4.52024e-05 0)
(-0.00549096 -5.11444e-05 0)
(-0.00516672 -5.69179e-05 0)
(-0.0048244 -6.24598e-05 0)
(-0.00446523 -6.77089e-05 0)
(-0.00409058 -7.26068e-05 0)
(-0.00370199 -7.70994e-05 0)
(-0.00330108 -8.11382e-05 0)
(-0.00288961 -8.46807e-05 0)
(-0.00246941 -8.76919e-05 0)
(-0.00204239 -9.01443e-05 0)
(-0.00161049 -9.20191e-05 0)
(-0.00117568 -9.3306e-05 0)
(-0.000739929 -9.40037e-05 0)
(-0.000305188 -9.41193e-05 0)
(0.000126645 -9.36687e-05 0)
(0.000553734 -9.26753e-05 0)
(0.000974331 -9.11701e-05 0)
(0.00138679 -8.91906e-05 0)
(0.0017896 -8.67795e-05 0)
(0.00218135 -8.39843e-05 0)
(0.00256081 -8.08557e-05 0)
(0.0029269 -7.74467e-05 0)
(0.00327867 -7.38112e-05 0)
(0.00361538 -7.00032e-05 0)
(0.00393641 -6.60754e-05 0)
(0.00424134 -6.20787e-05 0)
(0.00452988 -5.80609e-05 0)
(0.00480191 -5.4066e-05 0)
(0.00505744 -5.01342e-05 0)
(0.00529662 -4.63007e-05 0)
(0.00551972 -4.25962e-05 0)
(0.00572711 -3.90462e-05 0)
(0.00591926 -3.56712e-05 0)
(0.00609672 -3.24872e-05 0)
(0.00626012 -2.95052e-05 0)
(0.00641013 -2.67323e-05 0)
(0.00654745 -2.41717e-05 0)
(0.00667284 -2.18232e-05 0)
(0.00678706 -1.96835e-05 0)
(0.00689086 -1.7747e-05 0)
(0.00698503 -1.6006e-05 0)
(0.00707032 -1.44511e-05 0)
(0.00714747 -1.30718e-05 0)
(0.00721719 -1.18569e-05 0)
(0.00728017 -1.07943e-05 0)
(0.00733708 -9.87217e-06 0)
(0.00738852 -9.07827e-06 0)
(0.0074351 -8.40077e-06 0)
(0.00747736 -7.82813e-06 0)
(0.0075158 -7.34931e-06 0)
(0.00755089 -6.95384e-06 0)
(0.00758308 -6.63186e-06 0)
(0.00761274 -6.37418e-06 0)
(0.00764025 -6.17231e-06 0)
(0.00766592 -6.01842e-06 0)
(0.00769004 -5.90539e-06 0)
(0.00771288 -5.82673e-06 0)
(0.00773465 -5.77659e-06 0)
(0.00775557 -5.74973e-06 0)
(0.0077758 -5.74146e-06 0)
(0.0077955 -5.74764e-06 0)
(0.0078148 -5.76461e-06 0)
(0.00783382 -5.78915e-06 0)
(0.00785263 -5.81849e-06 0)
(0.00787132 -5.85021e-06 0)
(0.00788995 -5.88227e-06 0)
(0.00790857 -5.91293e-06 0)
(0.00792721 -5.94072e-06 0)
(0.00794591 -5.96447e-06 0)
(0.00796466 -5.9832e-06 0)
(0.0079835 -5.99616e-06 0)
(0.00800241 -6.00276e-06 0)
(0.0080214 -6.00261e-06 0)
(0.00804046 -5.99542e-06 0)
(0.00805957 -5.98106e-06 0)
(0.00807872 -5.95948e-06 0)
(0.00809789 -5.93073e-06 0)
(0.00811707 -5.89495e-06 0)
(0.00813622 -5.85233e-06 0)
(0.00815532 -5.80315e-06 0)
(0.00817436 -5.74768e-06 0)
(0.00819331 -5.68627e-06 0)
(0.00821214 -5.61929e-06 0)
(0.00823083 -5.54711e-06 0)
(0.00824936 -5.47014e-06 0)
(0.00826771 -5.38878e-06 0)
(0.00828585 -5.30346e-06 0)
(0.00830376 -5.21456e-06 0)
(0.00832143 -5.12251e-06 0)
(0.00833884 -5.0277e-06 0)
(0.00835597 -4.93051e-06 0)
(0.00837281 -4.83133e-06 0)
(0.00838933 -4.7305e-06 0)
(0.00840554 -4.62839e-06 0)
(0.00842142 -4.5253e-06 0)
(0.00843696 -4.42156e-06 0)
(0.00845214 -4.31745e-06 0)
(0.00846697 -4.21325e-06 0)
(0.00848144 -4.1092e-06 0)
(0.00849555 -4.00555e-06 0)
(0.00850928 -3.90249e-06 0)
(0.00852264 -3.80024e-06 0)
(0.00853563 -3.69897e-06 0)
(0.00854824 -3.59884e-06 0)
(0.00856048 -3.5e-06 0)
(0.00857235 -3.40256e-06 0)
(0.00858386 -3.30665e-06 0)
(0.00859499 -3.21235e-06 0)
(0.00860577 -3.11976e-06 0)
(0.00861618 -3.02892e-06 0)
(0.00862625 -2.9399e-06 0)
(0.00863597 -2.85274e-06 0)
(0.00864535 -2.76746e-06 0)
(0.00865439 -2.68408e-06 0)
(0.00866311 -2.60259e-06 0)
(0.00867151 -2.52299e-06 0)
(0.0086796 -2.44524e-06 0)
(0.00868738 -2.36931e-06 0)
(0.00869487 -2.29514e-06 0)
(0.00870206 -2.22266e-06 0)
(0.00870898 -2.15177e-06 0)
(0.00871562 -2.08234e-06 0)
(0.008722 -2.01422e-06 0)
(0.00872811 -1.94722e-06 0)
(0.00873397 -1.88107e-06 0)
(0.00873959 -1.81544e-06 0)
(0.00874496 -1.74988e-06 0)
(0.00875009 -1.6838e-06 0)
(0.00875498 -1.61637e-06 0)
(0.00875963 -1.54646e-06 0)
(0.00876403 -1.47254e-06 0)
(0.00876818 -1.39219e-06 0)
(0.00877206 -1.303e-06 0)
(0.00877563 -1.19807e-06 0)
(0.00877885 -1.07821e-06 0)
(0.00878169 -9.14244e-07 0)
(0.00878395 -7.43538e-07 0)
(0.0087858 -4.31934e-07 0)
(0.00878619 -1.80246e-07 0)
(0.00878707 4.13573e-07 0)
(0.00878277 1.08991e-06 0)
(0.00878387 1.41717e-06 0)
(0.008769 5.47052e-06 0)
(-8.33584e-05 0.000136421 0)
(-0.000582913 0.000379263 0)
(-0.00131135 0.000518329 0)
(-0.00208596 0.000562412 0)
(-0.00286563 0.000583365 0)
(-0.00363349 0.000585057 0)
(-0.0043762 0.000584969 0)
(-0.00509662 0.000578237 0)
(-0.00578756 0.000569254 0)
(-0.00645118 0.000557007 0)
(-0.00708477 0.000543284 0)
(-0.00768973 0.000528266 0)
(-0.00826568 0.000512671 0)
(-0.00881372 0.000496728 0)
(-0.00933433 0.000480714 0)
(-0.00982842 0.000464751 0)
(-0.0102967 0.000448935 0)
(-0.0107398 0.000433308 0)
(-0.0111585 0.000417888 0)
(-0.0115532 0.000402668 0)
(-0.0119245 0.000387625 0)
(-0.0122727 0.000372723 0)
(-0.0125981 0.000357916 0)
(-0.0129008 0.000343147 0)
(-0.0131809 0.00032835 0)
(-0.0134385 0.000313451 0)
(-0.0136733 0.000298367 0)
(-0.0138851 0.00028301 0)
(-0.0140737 0.000267282 0)
(-0.0142384 0.000251081 0)
(-0.0143789 0.000234299 0)
(-0.0144944 0.000216823 0)
(-0.0145842 0.00019854 0)
(-0.0146474 0.000179333 0)
(-0.0146833 0.00015909 0)
(-0.0146908 0.000137702 0)
(-0.0146688 0.000115066 0)
(-0.0146163 9.10929e-05 0)
(-0.0145323 6.57027e-05 0)
(-0.0144156 3.88338e-05 0)
(-0.0142651 1.0444e-05 0)
(-0.0140798 -1.9487e-05 0)
(-0.0138586 -5.09543e-05 0)
(-0.0136008 -8.39263e-05 0)
(-0.0133054 -0.000118342 0)
(-0.0129719 -0.000154113 0)
(-0.0125996 -0.000191116 0)
(-0.0121882 -0.000229203 0)
(-0.0117374 -0.000268194 0)
(-0.0112475 -0.00030788 0)
(-0.0107185 -0.000348031 0)
(-0.0101509 -0.000388389 0)
(-0.00954539 -0.000428681 0)
(-0.00890299 -0.000468616 0)
(-0.00822484 -0.000507892 0)
(-0.00751236 -0.0005462 0)
(-0.00676723 -0.00058323 0)
(-0.00599134 -0.000618673 0)
(-0.00518681 -0.000652228 0)
(-0.00435598 -0.000683606 0)
(-0.00350137 -0.000712535 0)
(-0.00262567 -0.000738765 0)
(-0.00173174 -0.000762069 0)
(-0.000822561 -0.000782251 0)
(9.87849e-05 -0.000799146 0)
(0.00102913 -0.000812625 0)
(0.00196526 -0.000822593 0)
(0.00290393 -0.000828998 0)
(0.00384191 -0.000831823 0)
(0.004776 -0.000831093 0)
(0.00570306 -0.00082687 0)
(0.00662006 -0.000819255 0)
(0.00752405 -0.000808384 0)
(0.00841226 -0.000794427 0)
(0.00928207 -0.000777584 0)
(0.010131 -0.000758081 0)
(0.0109569 -0.000736165 0)
(0.0117577 -0.000712106 0)
(0.0125317 -0.000686182 0)
(0.0132772 -0.000658683 0)
(0.013993 -0.000629903 0)
(0.0146781 -0.000600134 0)
(0.0153316 -0.000569667 0)
(0.015953 -0.000538778 0)
(0.0165419 -0.000507737 0)
(0.0170983 -0.000476794 0)
(0.0176222 -0.000446181 0)
(0.018114 -0.000416112 0)
(0.0185742 -0.000386775 0)
(0.0190035 -0.000358336 0)
(0.0194027 -0.00033094 0)
(0.0197727 -0.000304703 0)
(0.0201146 -0.000279722 0)
(0.0204296 -0.000256069 0)
(0.0207189 -0.000233796 0)
(0.0209839 -0.000212932 0)
(0.0212259 -0.000193492 0)
(0.0214462 -0.000175471 0)
(0.0216463 -0.000158851 0)
(0.0218275 -0.000143601 0)
(0.0219912 -0.000129681 0)
(0.0221388 -0.000117038 0)
(0.0222715 -0.000105616 0)
(0.0223906 -9.53517e-05 0)
(0.0224974 -8.61779e-05 0)
(0.022593 -7.80251e-05 0)
(0.0226785 -7.08225e-05 0)
(0.022755 -6.4499e-05 0)
(0.0228234 -5.8984e-05 0)
(0.0228846 -5.42086e-05 0)
(0.0229396 -5.01056e-05 0)
(0.0229891 -4.66105e-05 0)
(0.0230337 -4.36618e-05 0)
(0.0230742 -4.1201e-05 0)
(0.0231112 -3.91732e-05 0)
(0.0231452 -3.75269e-05 0)
(0.0231767 -3.62143e-05 0)
(0.0232061 -3.51911e-05 0)
(0.0232338 -3.44165e-05 0)
(0.0232602 -3.38532e-05 0)
(0.0232855 -3.34673e-05 0)
(0.0233101 -3.32279e-05 0)
(0.023334 -3.31075e-05 0)
(0.0233576 -3.30811e-05 0)
(0.0233809 -3.31266e-05 0)
(0.0234041 -3.32245e-05 0)
(0.0234274 -3.33576e-05 0)
(0.0234507 -3.35108e-05 0)
(0.0234741 -3.36711e-05 0)
(0.0234978 -3.38275e-05 0)
(0.0235216 -3.39705e-05 0)
(0.0235457 -3.40922e-05 0)
(0.02357 -3.41862e-05 0)
(0.0235945 -3.42471e-05 0)
(0.0236193 -3.42711e-05 0)
(0.0236442 -3.42549e-05 0)
(0.0236693 -3.41965e-05 0)
(0.0236945 -3.40945e-05 0)
(0.0237197 -3.39481e-05 0)
(0.0237451 -3.37575e-05 0)
(0.0237704 -3.35229e-05 0)
(0.0237957 -3.32455e-05 0)
(0.0238208 -3.29264e-05 0)
(0.0238459 -3.25673e-05 0)
(0.0238708 -3.217e-05 0)
(0.0238954 -3.17368e-05 0)
(0.0239198 -3.12697e-05 0)
(0.023944 -3.07713e-05 0)
(0.0239677 -3.0244e-05 0)
(0.0239911 -2.96903e-05 0)
(0.0240141 -2.91127e-05 0)
(0.0240367 -2.85139e-05 0)
(0.0240588 -2.78963e-05 0)
(0.0240804 -2.72624e-05 0)
(0.0241015 -2.66147e-05 0)
(0.024122 -2.59555e-05 0)
(0.024142 -2.52872e-05 0)
(0.0241614 -2.46119e-05 0)
(0.0241803 -2.39318e-05 0)
(0.0241985 -2.32488e-05 0)
(0.0242162 -2.25649e-05 0)
(0.0242332 -2.18819e-05 0)
(0.0242496 -2.12015e-05 0)
(0.0242654 -2.05252e-05 0)
(0.0242806 -1.98545e-05 0)
(0.0242951 -1.91909e-05 0)
(0.0243091 -1.85355e-05 0)
(0.0243224 -1.78895e-05 0)
(0.0243351 -1.72539e-05 0)
(0.0243473 -1.66297e-05 0)
(0.0243588 -1.60176e-05 0)
(0.0243698 -1.54184e-05 0)
(0.0243802 -1.48327e-05 0)
(0.02439 -1.42609e-05 0)
(0.0243993 -1.37033e-05 0)
(0.0244081 -1.31603e-05 0)
(0.0244163 -1.26318e-05 0)
(0.0244241 -1.21177e-05 0)
(0.0244314 -1.16179e-05 0)
(0.0244382 -1.11319e-05 0)
(0.0244446 -1.06588e-05 0)
(0.0244505 -1.01977e-05 0)
(0.024456 -9.74706e-06 0)
(0.0244611 -9.30483e-06 0)
(0.0244657 -8.86824e-06 0)
(0.02447 -8.43347e-06 0)
(0.0244739 -7.99534e-06 0)
(0.0244775 -7.5465e-06 0)
(0.0244806 -7.07698e-06 0)
(0.0244833 -6.5728e-06 0)
(0.0244856 -6.01169e-06 0)
(0.0244874 -5.37584e-06 0)
(0.0244887 -4.58628e-06 0)
(0.0244893 -3.70479e-06 0)
(0.024489 -2.32951e-06 0)
(0.0244877 -1.09029e-06 0)
(0.0244854 1.59938e-06 0)
(0.0244796 4.0099e-06 0)
(0.0244761 6.88608e-06 0)
(0.0244582 1.79344e-05 0)
(-0.00017883 0.000644976 0)
(-0.00104293 0.00125399 0)
(-0.00216759 0.00153288 0)
(-0.00330468 0.00157427 0)
(-0.00439278 0.00156938 0)
(-0.00542125 0.00152604 0)
(-0.0063744 0.00148236 0)
(-0.00726332 0.00142992 0)
(-0.00808459 0.00137657 0)
(-0.00884637 0.00132064 0)
(-0.00954999 0.00126465 0)
(-0.0102006 0.00120878 0)
(-0.0108006 0.00115383 0)
(-0.0113534 0.00110001 0)
(-0.0118613 0.00104749 0)
(-0.0123266 0.000996309 0)
(-0.012751 0.000946413 0)
(-0.0131363 0.000897708 0)
(-0.0134837 0.000850065 0)
(-0.0137944 0.000803335 0)
(-0.0140692 0.00075735 0)
(-0.0143089 0.000711934 0)
(-0.014514 0.000666901 0)
(-0.0146848 0.000622058 0)
(-0.0148216 0.000577207 0)
(-0.0149245 0.000532144 0)
(-0.0149934 0.000486662 0)
(-0.015028 0.00044055 0)
(-0.0150283 0.000393594 0)
(-0.0149936 0.000345582 0)
(-0.0149237 0.000296303 0)
(-0.0148178 0.000245554 0)
(-0.0146755 0.000193136 0)
(-0.0144959 0.000138866 0)
(-0.0142785 8.25772e-05 0)
(-0.0140224 2.41213e-05 0)
(-0.013727 -3.66235e-05 0)
(-0.0133915 -9.97496e-05 0)
(-0.0130153 -0.000165316 0)
(-0.0125976 -0.000233343 0)
(-0.0121381 -0.00030381 0)
(-0.0116361 -0.000376654 0)
(-0.0110914 -0.00045176 0)
(-0.0105037 -0.000528971 0)
(-0.00987301 -0.000608076 0)
(-0.00919933 -0.000688818 0)
(-0.00848295 -0.00077089 0)
(-0.00772434 -0.000853941 0)
(-0.00692416 -0.000937576 0)
(-0.00608327 -0.00102136 0)
(-0.00520276 -0.00110483 0)
(-0.00428393 -0.00118749 0)
(-0.0033283 -0.00126882 0)
(-0.00233763 -0.00134827 0)
(-0.00131386 -0.00142532 0)
(-0.000259183 -0.0014994 0)
(0.000824044 -0.00156999 0)
(0.00193325 -0.00163654 0)
(0.00306571 -0.00169856 0)
(0.0042185 -0.00175556 0)
(0.0053886 -0.00180709 0)
(0.00657283 -0.00185275 0)
(0.00776793 -0.00189219 0)
(0.00897055 -0.0019251 0)
(0.0101773 -0.00195122 0)
(0.0113847 -0.00197039 0)
(0.0125894 -0.00198248 0)
(0.013788 -0.00198743 0)
(0.014977 -0.00198526 0)
(0.0161533 -0.00197606 0)
(0.0173136 -0.00195998 0)
(0.018455 -0.00193722 0)
(0.0195745 -0.00190808 0)
(0.0206693 -0.00187287 0)
(0.0217371 -0.001832 0)
(0.0227754 -0.00178589 0)
(0.0237822 -0.00173501 0)
(0.0247555 -0.00167987 0)
(0.0256939 -0.001621 0)
(0.0265959 -0.00155895 0)
(0.0274604 -0.00149426 0)
(0.0282866 -0.00142751 0)
(0.0290738 -0.00135923 0)
(0.0298216 -0.00128998 0)
(0.03053 -0.00122025 0)
(0.031199 -0.00115055 0)
(0.0318289 -0.00108134 0)
(0.0324202 -0.00101305 0)
(0.0329735 -0.000946063 0)
(0.0334897 -0.000880734 0)
(0.0339698 -0.00081737 0)
(0.0344148 -0.000756237 0)
(0.0348261 -0.000697558 0)
(0.0352049 -0.000641517 0)
(0.0355525 -0.000588254 0)
(0.0358706 -0.000537873 0)
(0.0361606 -0.000490441 0)
(0.0364239 -0.000445993 0)
(0.0366622 -0.000404531 0)
(0.036877 -0.000366031 0)
(0.0370699 -0.000330444 0)
(0.0372423 -0.000297701 0)
(0.0373958 -0.000267713 0)
(0.0375319 -0.000240377 0)
(0.0376519 -0.000215577 0)
(0.0377572 -0.000193189 0)
(0.0378491 -0.000173081 0)
(0.0379289 -0.000155114 0)
(0.0379977 -0.000139151 0)
(0.0380567 -0.00012505 0)
(0.0381069 -0.000112671 0)
(0.0381494 -0.000101878 0)
(0.0381849 -9.25351e-05 0)
(0.0382144 -8.45132e-05 0)
(0.0382386 -7.76871e-05 0)
(0.0382583 -7.19374e-05 0)
(0.0382742 -6.71509e-05 0)
(0.0382868 -6.3221e-05 0)
(0.0382966 -6.00474e-05 0)
(0.0383042 -5.75368e-05 0)
(0.03831 -5.56026e-05 0)
(0.0383143 -5.41648e-05 0)
(0.0383175 -5.315e-05 0)
(0.03832 -5.24911e-05 0)
(0.0383219 -5.21272e-05 0)
(0.0383235 -5.20031e-05 0)
(0.038325 -5.20694e-05 0)
(0.0383265 -5.22816e-05 0)
(0.0383282 -5.26006e-05 0)
(0.0383301 -5.29915e-05 0)
(0.0383324 -5.34241e-05 0)
(0.038335 -5.38718e-05 0)
(0.0383382 -5.43119e-05 0)
(0.0383417 -5.47252e-05 0)
(0.0383458 -5.50954e-05 0)
(0.0383504 -5.54091e-05 0)
(0.0383554 -5.56554e-05 0)
(0.0383609 -5.58257e-05 0)
(0.0383669 -5.59135e-05 0)
(0.0383732 -5.59142e-05 0)
(0.0383799 -5.58247e-05 0)
(0.0383869 -5.56433e-05 0)
(0.0383942 -5.53698e-05 0)
(0.0384018 -5.50049e-05 0)
(0.0384095 -5.45503e-05 0)
(0.0384173 -5.40084e-05 0)
(0.0384252 -5.33825e-05 0)
(0.0384332 -5.26762e-05 0)
(0.0384411 -5.18938e-05 0)
(0.038449 -5.10397e-05 0)
(0.0384568 -5.01189e-05 0)
(0.0384644 -4.91363e-05 0)
(0.0384719 -4.80972e-05 0)
(0.0384791 -4.70067e-05 0)
(0.038486 -4.58702e-05 0)
(0.0384927 -4.46929e-05 0)
(0.0384991 -4.348e-05 0)
(0.038505 -4.22367e-05 0)
(0.0385106 -4.0968e-05 0)
(0.0385159 -3.96788e-05 0)
(0.0385206 -3.83738e-05 0)
(0.038525 -3.70575e-05 0)
(0.0385289 -3.57343e-05 0)
(0.0385323 -3.44083e-05 0)
(0.0385352 -3.30836e-05 0)
(0.0385377 -3.17639e-05 0)
(0.0385397 -3.04527e-05 0)
(0.0385411 -2.91533e-05 0)
(0.0385421 -2.78687e-05 0)
(0.0385426 -2.66019e-05 0)
(0.0385426 -2.53554e-05 0)
(0.0385421 -2.41316e-05 0)
(0.0385412 -2.29326e-05 0)
(0.0385397 -2.17603e-05 0)
(0.0385378 -2.06162e-05 0)
(0.0385355 -1.95017e-05 0)
(0.0385327 -1.84178e-05 0)
(0.0385296 -1.73652e-05 0)
(0.038526 -1.63441e-05 0)
(0.038522 -1.53545e-05 0)
(0.0385176 -1.43957e-05 0)
(0.0385129 -1.34665e-05 0)
(0.0385078 -1.2565e-05 0)
(0.0385024 -1.16881e-05 0)
(0.0384967 -1.08318e-05 0)
(0.0384906 -9.99001e-06 0)
(0.0384843 -9.15469e-06 0)
(0.0384777 -8.31428e-06 0)
(0.0384708 -7.45331e-06 0)
(0.0384636 -6.54847e-06 0)
(0.0384562 -5.5706e-06 0)
(0.0384484 -4.47236e-06 0)
(0.0384403 -3.18867e-06 0)
(0.0384317 -1.66142e-06 0)
(0.0384226 3.78914e-07 0)
(0.038413 2.66827e-06 0)
(0.0384022 6.54032e-06 0)
(0.0383903 1.05102e-05 0)
(0.0383782 1.5863e-05 0)
(0.0383563 3.09587e-05 0)
(-0.00030552 0.00126144 0)
(-0.00151613 0.00231479 0)
(-0.00286975 0.00272279 0)
(-0.00413655 0.0027326 0)
(-0.00523519 0.0026603 0)
(-0.00621482 0.00253073 0)
(-0.0070616 0.00240144 0)
(-0.00780915 0.00226599 0)
(-0.008459 0.00213535 0)
(-0.00902791 0.00200803 0)
(-0.00952112 0.00188631 0)
(-0.00994765 0.0017698 0)
(-0.0103124 0.00165857 0)
(-0.0106206 0.00155219 0)
(-0.010876 0.00145024 0)
(-0.011082 0.00135223 0)
(-0.011241 0.00125769 0)
(-0.0113555 0.00116613 0)
(-0.011427 0.00107711 0)
(-0.011457 0.00099019 0)
(-0.0114466 0.00090496 0)
(-0.0113968 0.000821026 0)
(-0.0113081 0.000738008 0)
(-0.0111812 0.000655543 0)
(-0.0110162 0.000573278 0)
(-0.0108134 0.000490872 0)
(-0.0105728 0.000407996 0)
(-0.0102944 0.00032433 0)
(-0.009978 0.000239568 0)
(-0.00962342 0.000153418 0)
(-0.00923038 6.56042e-05 0)
(-0.00879855 -2.41297e-05 0)
(-0.0083276 -0.000116016 0)
(-0.00781718 -0.000210261 0)
(-0.00726695 -0.000307038 0)
(-0.00667657 -0.000406482 0)
(-0.00604578 -0.000508691 0)
(-0.00537434 -0.000613714 0)
(-0.00466211 -0.000721552 0)
(-0.00390901 -0.000832149 0)
(-0.00311509 -0.000945395 0)
(-0.00228049 -0.00106112 0)
(-0.00140551 -0.00117909 0)
(-0.000490573 -0.00129901 0)
(0.000463735 -0.00142053 0)
(0.00145666 -0.00154323 0)
(0.00248729 -0.00166663 0)
(0.0035545 -0.0017902 0)
(0.00465702 -0.00191336 0)
(0.00579336 -0.00203549 0)
(0.00696184 -0.00215592 0)
(0.00816061 -0.00227396 0)
(0.00938761 -0.00238888 0)
(0.0106406 -0.00249995 0)
(0.0119172 -0.00260644 0)
(0.0132148 -0.0027076 0)
(0.0145306 -0.00280271 0)
(0.0158618 -0.00289108 0)
(0.0172053 -0.00297202 0)
(0.018558 -0.00304493 0)
(0.0199167 -0.00310922 0)
(0.0212781 -0.00316438 0)
(0.0226387 -0.00320996 0)
(0.0239953 -0.0032456 0)
(0.0253443 -0.00327101 0)
(0.0266825 -0.00328599 0)
(0.0280064 -0.00329042 0)
(0.0293129 -0.0032843 0)
(0.0305987 -0.00326771 0)
(0.0318607 -0.00324081 0)
(0.0330962 -0.00320388 0)
(0.0343023 -0.00315729 0)
(0.0354766 -0.00310147 0)
(0.0366166 -0.00303694 0)
(0.0377204 -0.00296431 0)
(0.0387859 -0.00288423 0)
(0.0398117 -0.00279741 0)
(0.0407964 -0.00270461 0)
(0.0417388 -0.00260662 0)
(0.0426381 -0.00250424 0)
(0.0434937 -0.00239828 0)
(0.0443054 -0.00228957 0)
(0.0450729 -0.00217891 0)
(0.0457966 -0.00206707 0)
(0.0464766 -0.00195482 0)
(0.0471137 -0.00184286 0)
(0.0477085 -0.00173187 0)
(0.0482619 -0.00162246 0)
(0.0487751 -0.00151519 0)
(0.0492493 -0.00141057 0)
(0.0496857 -0.00130904 0)
(0.0500858 -0.001211 0)
(0.0504511 -0.00111675 0)
(0.0507832 -0.00102658 0)
(0.0510836 -0.000940689 0)
(0.0513539 -0.000859227 0)
(0.0515959 -0.0007823 0)
(0.0518112 -0.000709962 0)
(0.0520014 -0.000642226 0)
(0.0521681 -0.000579063 0)
(0.052313 -0.000520411 0)
(0.0524376 -0.000466176 0)
(0.0525435 -0.000416236 0)
(0.052632 -0.00037045 0)
(0.0527047 -0.000328654 0)
(0.0527628 -0.000290673 0)
(0.0528078 -0.000256318 0)
(0.0528407 -0.000225391 0)
(0.0528629 -0.000197692 0)
(0.0528753 -0.000173014 0)
(0.0528791 -0.000151153 0)
(0.0528753 -0.000131903 0)
(0.0528647 -0.000115065 0)
(0.0528481 -0.000100441 0)
(0.0528264 -8.78428e-05 0)
(0.0528003 -7.7086e-05 0)
(0.0527705 -6.79956e-05 0)
(0.0527375 -6.04048e-05 0)
(0.052702 -5.41557e-05 0)
(0.0526643 -4.90997e-05 0)
(0.052625 -4.50972e-05 0)
(0.0525845 -4.20187e-05 0)
(0.0525431 -3.97434e-05 0)
(0.0525012 -3.81602e-05 0)
(0.052459 -3.71667e-05 0)
(0.0524167 -3.66696e-05 0)
(0.0523746 -3.65836e-05 0)
(0.0523329 -3.68318e-05 0)
(0.0522917 -3.73447e-05 0)
(0.0522512 -3.80603e-05 0)
(0.0522114 -3.89232e-05 0)
(0.0521723 -3.98846e-05 0)
(0.0521342 -4.09015e-05 0)
(0.052097 -4.19367e-05 0)
(0.0520608 -4.29578e-05 0)
(0.0520255 -4.39373e-05 0)
(0.0519912 -4.48521e-05 0)
(0.0519579 -4.56829e-05 0)
(0.0519255 -4.64141e-05 0)
(0.051894 -4.70332e-05 0)
(0.0518634 -4.75308e-05 0)
(0.0518337 -4.78999e-05 0)
(0.0518049 -4.8136e-05 0)
(0.0517767 -4.82366e-05 0)
(0.0517494 -4.82009e-05 0)
(0.0517227 -4.80298e-05 0)
(0.0516966 -4.77254e-05 0)
(0.0516712 -4.72913e-05 0)
(0.0516462 -4.67316e-05 0)
(0.0516218 -4.60517e-05 0)
(0.0515978 -4.52574e-05 0)
(0.0515742 -4.43551e-05 0)
(0.0515509 -4.33516e-05 0)
(0.0515279 -4.22542e-05 0)
(0.0515052 -4.10702e-05 0)
(0.0514827 -3.98071e-05 0)
(0.0514604 -3.84727e-05 0)
(0.0514383 -3.70745e-05 0)
(0.0514162 -3.56202e-05 0)
(0.0513942 -3.41172e-05 0)
(0.0513723 -3.25728e-05 0)
(0.0513504 -3.09944e-05 0)
(0.0513285 -2.93888e-05 0)
(0.0513065 -2.77629e-05 0)
(0.0512845 -2.61231e-05 0)
(0.0512625 -2.44757e-05 0)
(0.0512404 -2.28267e-05 0)
(0.0512182 -2.11818e-05 0)
(0.0511958 -1.95463e-05 0)
(0.0511734 -1.79253e-05 0)
(0.0511509 -1.63235e-05 0)
(0.0511282 -1.47453e-05 0)
(0.0511054 -1.31947e-05 0)
(0.0510826 -1.16755e-05 0)
(0.0510595 -1.01908e-05 0)
(0.0510364 -8.74359e-06 0)
(0.0510132 -7.33631e-06 0)
(0.0509898 -5.97093e-06 0)
(0.0509663 -4.64891e-06 0)
(0.0509428 -3.37114e-06 0)
(0.0509192 -2.1378e-06 0)
(0.0508955 -9.4831e-07 0)
(0.0508717 1.98909e-07 0)
(0.0508479 1.30663e-06 0)
(0.050824 2.37919e-06 0)
(0.0508001 3.42293e-06 0)
(0.0507762 4.44695e-06 0)
(0.0507523 5.46391e-06 0)
(0.0507284 6.49193e-06 0)
(0.0507045 7.55558e-06 0)
(0.0506806 8.69118e-06 0)
(0.0506567 9.94689e-06 0)
(0.0506328 1.13974e-05 0)
(0.0506089 1.31357e-05 0)
(0.050585 1.53437e-05 0)
(0.0505611 1.80964e-05 0)
(0.0505369 2.21478e-05 0)
(0.0505126 2.68972e-05 0)
(0.0504882 3.37777e-05 0)
(0.0504578 5.01661e-05 0)
(-0.000404961 0.00246856 0)
(-0.00171877 0.00379493 0)
(-0.00298674 0.00413959 0)
(-0.00404961 0.00388815 0)
(-0.00482663 0.00361479 0)
(-0.00542868 0.003312 0)
(-0.00585272 0.00304773 0)
(-0.00615833 0.00280089 0)
(-0.00635479 0.00257654 0)
(-0.00646828 0.00236842 0)
(-0.00650733 0.00217536 0)
(-0.00648395 0.00199488 0)
(-0.00640403 0.00182534 0)
(-0.00627369 0.00166518 0)
(-0.00609675 0.00151305 0)
(-0.00587663 0.00136776 0)
(-0.00561575 0.00122826 0)
(-0.00531615 0.00109363 0)
(-0.00497935 0.000963051 0)
(-0.00460656 0.000835774 0)
(-0.00419868 0.000711126 0)
(-0.0037564 0.000588496 0)
(-0.00328021 0.000467318 0)
(-0.00277043 0.000347068 0)
(-0.00222726 0.000227259 0)
(-0.00165079 0.000107435 0)
(-0.00104102 -1.283e-05 0)
(-0.000397867 -0.000133933 0)
(0.000278789 -0.000256242 0)
(0.000989109 -0.000380097 0)
(0.00173327 -0.000505805 0)
(0.00251147 -0.000633639 0)
(0.00332387 -0.000763835 0)
(0.00417062 -0.000896585 0)
(0.00505183 -0.00103204 0)
(0.00596756 -0.00117029 0)
(0.0069178 -0.00131139 0)
(0.00790244 -0.00145531 0)
(0.0089213 -0.00160199 0)
(0.00997409 -0.00175127 0)
(0.0110604 -0.00190294 0)
(0.0121797 -0.00205672 0)
(0.0133312 -0.00221226 0)
(0.0145143 -0.00236912 0)
(0.0157278 -0.00252681 0)
(0.0169707 -0.00268476 0)
(0.0182417 -0.00284234 0)
(0.0195392 -0.00299886 0)
(0.0208617 -0.00315356 0)
(0.0222073 -0.00330566 0)
(0.023574 -0.00345431 0)
(0.0249597 -0.00359864 0)
(0.026362 -0.00373777 0)
(0.0277785 -0.00387077 0)
(0.0292065 -0.00399676 0)
(0.0306434 -0.00411483 0)
(0.032086 -0.0042241 0)
(0.0335315 -0.00432374 0)
(0.0349768 -0.00441294 0)
(0.0364186 -0.00449096 0)
(0.0378537 -0.00455713 0)
(0.0392787 -0.00461087 0)
(0.0406905 -0.00465166 0)
(0.0420856 -0.0046791 0)
(0.0434609 -0.00469289 0)
(0.0448131 -0.00469286 0)
(0.0461391 -0.00467892 0)
(0.047436 -0.00465115 0)
(0.0487009 -0.00460972 0)
(0.0499311 -0.00455492 0)
(0.0511242 -0.00448719 0)
(0.0522778 -0.00440705 0)
(0.0533899 -0.00431516 0)
(0.0544588 -0.00421225 0)
(0.0554829 -0.00409916 0)
(0.0564609 -0.00397681 0)
(0.0573919 -0.00384616 0)
(0.0582751 -0.00370826 0)
(0.0591101 -0.00356415 0)
(0.0598968 -0.00341492 0)
(0.0606352 -0.00326167 0)
(0.0613257 -0.00310547 0)
(0.0619688 -0.00294739 0)
(0.0625653 -0.00278844 0)
(0.0631162 -0.00262962 0)
(0.0636226 -0.00247184 0)
(0.0640858 -0.00231598 0)
(0.0645074 -0.0021628 0)
(0.0648888 -0.00201304 0)
(0.0652317 -0.00186733 0)
(0.0655378 -0.00172623 0)
(0.0658088 -0.00159021 0)
(0.0660467 -0.00145967 0)
(0.0662532 -0.00133493 0)
(0.0664302 -0.00121622 0)
(0.0665794 -0.00110374 0)
(0.0667028 -0.000997583 0)
(0.066802 -0.000897799 0)
(0.0668788 -0.000804381 0)
(0.0669349 -0.000717272 0)
(0.0669719 -0.00063637 0)
(0.0669914 -0.000561535 0)
(0.0669949 -0.000492594 0)
(0.0669838 -0.000429346 0)
(0.0669595 -0.000371568 0)
(0.0669233 -0.000319017 0)
(0.0668764 -0.000271437 0)
(0.06682 -0.000228562 0)
(0.0667552 -0.00019012 0)
(0.0666829 -0.000155835 0)
(0.0666042 -0.000125432 0)
(0.0665199 -9.8637e-05 0)
(0.0664308 -7.51815e-05 0)
(0.0663376 -5.48027e-05 0)
(0.0662412 -3.72456e-05 0)
(0.0661419 -2.22645e-05 0)
(0.0660406 -9.6239e-06 0)
(0.0659377 9.01003e-07 0)
(0.0658336 9.52337e-06 0)
(0.0657288 1.64445e-05 0)
(0.0656236 2.18536e-05 0)
(0.0655185 2.59276e-05 0)
(0.0654136 2.88313e-05 0)
(0.0653094 3.07177e-05 0)
(0.0652059 3.17277e-05 0)
(0.0651035 3.19911e-05 0)
(0.0650022 3.16264e-05 0)
(0.0649022 3.07417e-05 0)
(0.0648037 2.94347e-05 0)
(0.0647067 2.77936e-05 0)
(0.0646113 2.58976e-05 0)
(0.0645175 2.38171e-05 0)
(0.0644255 2.16146e-05 0)
(0.0643352 1.9345e-05 0)
(0.0642466 1.70562e-05 0)
(0.0641598 1.47897e-05 0)
(0.0640748 1.25811e-05 0)
(0.0639915 1.04604e-05 0)
(0.0639098 8.45272e-06 0)
(0.0638299 6.57851e-06 0)
(0.0637516 4.85423e-06 0)
(0.0636749 3.29257e-06 0)
(0.0635997 1.90291e-06 0)
(0.0635261 6.9167e-07 0)
(0.0634538 -3.37379e-07 0)
(0.063383 -1.18278e-06 0)
(0.0633136 -1.84509e-06 0)
(0.0632454 -2.32667e-06 0)
(0.0631785 -2.63136e-06 0)
(0.0631128 -2.76434e-06 0)
(0.0630482 -2.73185e-06 0)
(0.0629847 -2.54106e-06 0)
(0.0629222 -2.19987e-06 0)
(0.0628607 -1.71678e-06 0)
(0.0628001 -1.10075e-06 0)
(0.0627405 -3.61088e-07 0)
(0.0626816 4.92687e-07 0)
(0.0626236 1.4509e-06 0)
(0.0625663 2.50383e-06 0)
(0.0625098 3.64177e-06 0)
(0.0624539 4.85507e-06 0)
(0.0623987 6.13424e-06 0)
(0.0623441 7.46997e-06 0)
(0.0622901 8.85313e-06 0)
(0.0622366 1.02749e-05 0)
(0.0621837 1.17267e-05 0)
(0.0621313 1.32003e-05 0)
(0.0620793 1.46877e-05 0)
(0.0620278 1.61814e-05 0)
(0.0619768 1.76742e-05 0)
(0.0619262 1.91592e-05 0)
(0.061876 2.06301e-05 0)
(0.0618263 2.20809e-05 0)
(0.0617769 2.3506e-05 0)
(0.0617279 2.49003e-05 0)
(0.0616792 2.62592e-05 0)
(0.061631 2.75786e-05 0)
(0.0615831 2.88551e-05 0)
(0.0615355 3.00858e-05 0)
(0.0614883 3.12684e-05 0)
(0.0614415 3.24014e-05 0)
(0.0613951 3.34845e-05 0)
(0.0613489 3.45181e-05 0)
(0.0613032 3.5504e-05 0)
(0.0612578 3.64458e-05 0)
(0.0612128 3.73489e-05 0)
(0.0611681 3.82215e-05 0)
(0.0611239 3.90757e-05 0)
(0.06108 3.99278e-05 0)
(0.0610365 4.08016e-05 0)
(0.0609934 4.17298e-05 0)
(0.0609508 4.27584e-05 0)
(0.0609086 4.39565e-05 0)
(0.0608668 4.54105e-05 0)
(0.0608256 4.72772e-05 0)
(0.0607849 4.9711e-05 0)
(0.0607449 5.31733e-05 0)
(0.0607058 5.75702e-05 0)
(0.0606674 6.46616e-05 0)
(0.0606273 7.88612e-05 0)
(-0.00069345 0.00309348 0)
(-0.00209161 0.00472141 0)
(-0.00255526 0.00495032 0)
(-0.00279443 0.00450326 0)
(-0.00263113 0.00403081 0)
(-0.00238447 0.0035641 0)
(-0.00199266 0.00316013 0)
(-0.00154015 0.00280215 0)
(-0.00101819 0.00248575 0)
(-0.000452344 0.00220232 0)
(0.000155437 0.00194532 0)
(0.000795834 0.00170994 0)
(0.00146624 0.00149193 0)
(0.00216274 0.00128828 0)
(0.00288359 0.00109634 0)
(0.00362705 0.000914101 0)
(0.00439216 0.000739814 0)
(0.00517815 0.00057207 0)
(0.00598462 0.000409639 0)
(0.0068113 0.000251477 0)
(0.00765814 9.66607e-05 0)
(0.00852516 -5.56209e-05 0)
(0.00941251 -0.000206094 0)
(0.0103204 -0.000355413 0)
(0.0112491 -0.000504168 0)
(0.012199 -0.000652898 0)
(0.0131702 -0.000802091 0)
(0.0141633 -0.000952189 0)
(0.0151786 -0.00110359 0)
(0.0162163 -0.00125665 0)
(0.0172767 -0.00141168 0)
(0.0183602 -0.00156894 0)
(0.019467 -0.00172864 0)
(0.0205971 -0.00189094 0)
(0.0217507 -0.00205595 0)
(0.0229278 -0.0022237 0)
(0.0241283 -0.00239417 0)
(0.0253519 -0.00256726 0)
(0.0265984 -0.00274283 0)
(0.0278673 -0.00292062 0)
(0.0291581 -0.00310032 0)
(0.03047 -0.00328153 0)
(0.0318022 -0.00346379 0)
(0.0331537 -0.00364654 0)
(0.0345234 -0.00382915 0)
(0.0359099 -0.00401091 0)
(0.0373117 -0.00419106 0)
(0.0387273 -0.00436874 0)
(0.0401548 -0.00454307 0)
(0.0415922 -0.00471308 0)
(0.0430374 -0.00487779 0)
(0.0444881 -0.00503616 0)
(0.045942 -0.00518716 0)
(0.0473964 -0.00532972 0)
(0.0488486 -0.00546279 0)
(0.0502959 -0.00558534 0)
(0.0517353 -0.00569635 0)
(0.0531638 -0.00579486 0)
(0.0545785 -0.00587996 0)
(0.0559761 -0.00595084 0)
(0.0573535 -0.00600674 0)
(0.0587078 -0.00604702 0)
(0.0600357 -0.00607114 0)
(0.0613344 -0.00607872 0)
(0.0626008 -0.00606946 0)
(0.0638321 -0.00604324 0)
(0.0650259 -0.00600008 0)
(0.0661795 -0.00594015 0)
(0.0672906 -0.00586375 0)
(0.0683574 -0.00577136 0)
(0.0693779 -0.00566359 0)
(0.0703506 -0.00554121 0)
(0.0712744 -0.00540508 0)
(0.0721481 -0.00525621 0)
(0.0729711 -0.00509571 0)
(0.0737432 -0.00492477 0)
(0.074464 -0.00474465 0)
(0.0751339 -0.00455666 0)
(0.0757533 -0.00436216 0)
(0.0763229 -0.0041625 0)
(0.0768437 -0.00395904 0)
(0.0773167 -0.00375313 0)
(0.0777433 -0.00354605 0)
(0.078125 -0.00333906 0)