/*--------------------------------*- C++ -*----------------------------------*\
| =========                 |                                                 |
| \\      /  F ield         | OpenFOAM: The Open Source CFD Toolbox           |
|  \\    /   O peration     | Version:  4.1                                   |
|   \\  /    A nd           | Web:      www.OpenFOAM.org                      |
|    \\/     M anipulation  |                                                 |
\*---------------------------------------------------------------------------*/
FoamFile
{
    version     2.0;
    format      ascii;
    class       volScalarField;
    location    "165";
    object      p;
}
// * * * * * * * * * * * * * * * * * * * * * * * * * * * * * * * * * * * * * //

dimensions      [1 -1 -2 0 0 0 0];

internalField   nonuniform List<scalar> 
3264
(
0.712637
0.712636
0.712634
0.712632
0.71263
0.712629
0.712626
0.712624
0.712622
0.71262
0.712618
0.712617
0.712616
0.712617
0.712619
0.712622
0.712629
0.712638
0.712651
0.712668
0.71269
0.712717
0.71275
0.71279
0.712836
0.71289
0.712951
0.713019
0.713094
0.713175
0.713263
0.713356
0.713454
0.713556
0.713661
0.713767
0.713874
0.71398
0.714083
0.714184
0.71428
0.71437
0.714454
0.714531
0.7146
0.714661
0.714714
0.714758
0.714794
0.714822
0.714844
0.714859
0.714869
0.714874
0.714876
0.714874
0.714871
0.714866
0.71486
0.714854
0.714847
0.714841
0.714835
0.714829
0.714823
0.714818
0.714814
0.71481
0.714807
0.714806
0.714806
0.714808
0.714812
0.714818
0.714828
0.714841
0.714857
0.714877
0.7149
0.714927
0.714957
0.71499
0.715025
0.715062
0.7151
0.715138
0.715176
0.715212
0.715247
0.715279
0.715307
0.715331
0.715352
0.715367
0.715378
0.715385
0.715388
0.715387
0.715383
0.715377
0.715368
0.715357
0.715346
0.715333
0.71532
0.715307
0.715293
0.71528
0.715267
0.715255
0.715242
0.71523
0.715219
0.715207
0.715196
0.715185
0.715174
0.715163
0.715153
0.715142
0.715131
0.715121
0.71511
0.7151
0.715089
0.715079
0.715068
0.715058
0.715047
0.715037
0.715026
0.715015
0.715005
0.714994
0.714984
0.714973
0.714962
0.714952
0.714941
0.71493
0.71492
0.714909
0.714898
0.714888
0.714877
0.714866
0.714856
0.714845
0.714834
0.714824
0.714813
0.714802
0.714792
0.714781
0.714771
0.71476
0.714749
0.714739
0.714728
0.714717
0.714707
0.714696
0.714685
0.714675
0.714664
0.714653
0.714643
0.714632
0.714621
0.714611
0.7146
0.71459
0.714579
0.714568
0.714558
0.714547
0.714536
0.714526
0.714515
0.714504
0.714494
0.714483
0.714472
0.714462
0.714451
0.71444
0.71443
0.714419
0.714408
0.714398
0.714387
0.714377
0.714366
0.714355
0.714345
0.714334
0.714323
0.714313
0.714302
0.714291
0.712639
0.712637
0.712636
0.712635
0.712633
0.712632
0.71263
0.712628
0.712627
0.712625
0.712623
0.712622
0.712621
0.712622
0.712623
0.712627
0.712632
0.712641
0.712652
0.712668
0.712689
0.712715
0.712747
0.712786
0.712831
0.712883
0.712943
0.71301
0.713084
0.713165
0.713252
0.713345
0.713443
0.713544
0.713648
0.713755
0.713861
0.713967
0.714071
0.714171
0.714268
0.714359
0.714443
0.71452
0.71459
0.714651
0.714705
0.71475
0.714786
0.714816
0.714838
0.714855
0.714865
0.714872
0.714875
0.714874
0.714872
0.714868
0.714863
0.714857
0.714851
0.714844
0.714838
0.714832
0.714827
0.714822
0.714817
0.714813
0.71481
0.714808
0.714807
0.714808
0.714811
0.714817
0.714826
0.714838
0.714854
0.714873
0.714896
0.714923
0.714952
0.714985
0.71502
0.715057
0.715095
0.715134
0.715172
0.715209
0.715244
0.715276
0.715305
0.71533
0.715351
0.715367
0.715379
0.715386
0.715389
0.715388
0.715384
0.715378
0.715369
0.715358
0.715346
0.715333
0.71532
0.715307
0.715293
0.71528
0.715267
0.715255
0.715242
0.71523
0.715218
0.715207
0.715196
0.715185
0.715174
0.715163
0.715153
0.715142
0.715131
0.715121
0.71511
0.7151
0.715089
0.715079
0.715068
0.715058
0.715047
0.715037
0.715026
0.715015
0.715005
0.714994
0.714984
0.714973
0.714962
0.714952
0.714941
0.71493
0.71492
0.714909
0.714898
0.714888
0.714877
0.714866
0.714856
0.714845
0.714834
0.714824
0.714813
0.714802
0.714792
0.714781
0.714771
0.71476
0.714749
0.714739
0.714728
0.714717
0.714707
0.714696
0.714685
0.714675
0.714664
0.714653
0.714643
0.714632
0.714621
0.714611
0.7146
0.71459
0.714579
0.714568
0.714558
0.714547
0.714536
0.714526
0.714515
0.714504
0.714494
0.714483
0.714472
0.714462
0.714451
0.71444
0.71443
0.714419
0.714408
0.714398
0.714387
0.714377
0.714366
0.714355
0.714345
0.714334
0.714323
0.714313
0.714302
0.714291
0.712641
0.712639
0.712637
0.712636
0.712634
0.712633
0.712631
0.712629
0.712627
0.712625
0.712623
0.712621
0.71262
0.71262
0.712621
0.712623
0.712628
0.712635
0.712646
0.712661
0.712681
0.712706
0.712737
0.712775
0.71282
0.712872
0.712931
0.712997
0.713071
0.713152
0.713239
0.713331
0.713429
0.71353
0.713634
0.71374
0.713847
0.713952
0.714056
0.714157
0.714253
0.714343
0.714428
0.714505
0.714574
0.714636
0.714689
0.714734
0.714771
0.7148
0.714823
0.71484
0.714851
0.714858
0.714861
0.714862
0.714861
0.714859
0.714855
0.714851
0.714847
0.714842
0.714837
0.714832
0.714826
0.714821
0.714816
0.714812
0.714809
0.714807
0.714806
0.714807
0.71481
0.714816
0.714824
0.714836
0.714851
0.71487
0.714893
0.714919
0.714949
0.714981
0.715017
0.715054
0.715092
0.715131
0.71517
0.715207
0.715243
0.715276
0.715305
0.715331
0.715352
0.715368
0.71538
0.715387
0.71539
0.71539
0.715385
0.715378
0.715369
0.715358
0.715346
0.715333
0.71532
0.715307
0.715293
0.71528
0.715267
0.715254
0.715242
0.71523
0.715218
0.715207
0.715196
0.715185
0.715174
0.715163
0.715153
0.715142
0.715131
0.715121
0.71511
0.7151
0.715089
0.715079
0.715068
0.715058
0.715047
0.715037
0.715026
0.715015
0.715005
0.714994
0.714984
0.714973
0.714962
0.714952
0.714941
0.71493
0.71492
0.714909
0.714898
0.714888
0.714877
0.714866
0.714856
0.714845
0.714834
0.714824
0.714813
0.714802
0.714792
0.714781
0.714771
0.71476
0.714749
0.714739
0.714728
0.714717
0.714707
0.714696
0.714685
0.714675
0.714664
0.714653
0.714643
0.714632
0.714621
0.714611
0.7146
0.71459
0.714579
0.714568
0.714558
0.714547
0.714536
0.714526
0.714515
0.714504
0.714494
0.714483
0.714472
0.714462
0.714451
0.71444
0.71443
0.714419
0.714408
0.714398
0.714387
0.714377
0.714366
0.714355
0.714345
0.714334
0.714323
0.714313
0.714302
0.714291
0.712637
0.712636
0.712634
0.712634
0.712633
0.712632
0.71263
0.712628
0.712626
0.712624
0.712622
0.71262
0.712618
0.712617
0.712617
0.712619
0.712623
0.712629
0.712639
0.712653
0.712671
0.712695
0.712726
0.712763
0.712806
0.712857
0.712916
0.712982
0.713055
0.713135
0.713222
0.713314
0.71341
0.713511
0.713614
0.713719
0.713825
0.713929
0.714031
0.71413
0.714225
0.714314
0.714396
0.714471
0.714539
0.714598
0.714649
0.714693
0.714728
0.714756
0.714778
0.714794
0.714805
0.714812
0.714817
0.714819
0.714821
0.714821
0.714821
0.714821
0.714821
0.714821
0.71482
0.71482
0.714819
0.714817
0.714815
0.714813
0.71481
0.714808
0.714807
0.714808
0.714811
0.714816
0.714824
0.714836
0.714851
0.71487
0.714892
0.714918
0.714947
0.71498
0.715015
0.715052
0.71509
0.715129
0.715167
0.715205
0.715241
0.715274
0.715304
0.715329
0.715351
0.715367
0.715379
0.715386
0.715389
0.715388
0.715384
0.715377
0.715368
0.715357
0.715345
0.715332
0.715319
0.715306
0.715292
0.715279
0.715266
0.715254
0.715242
0.71523
0.715218
0.715207
0.715196
0.715185
0.715174
0.715163
0.715153
0.715142
0.715132
0.715121
0.71511
0.7151
0.715089
0.715079
0.715068
0.715058
0.715047
0.715037
0.715026
0.715015
0.715005
0.714994
0.714984
0.714973
0.714962
0.714952
0.714941
0.71493
0.71492
0.714909
0.714898
0.714888
0.714877
0.714866
0.714856
0.714845
0.714834
0.714824
0.714813
0.714802
0.714792
0.714781
0.714771
0.71476
0.714749
0.714739
0.714728
0.714717
0.714707
0.714696
0.714685
0.714675
0.714664
0.714653
0.714643
0.714632
0.714621
0.714611
0.7146
0.71459
0.714579
0.714568
0.714558
0.714547
0.714536
0.714526
0.714515
0.714504
0.714494
0.714483
0.714472
0.714462
0.714451
0.71444
0.71443
0.714419
0.714408
0.714398
0.714387
0.714377
0.714366
0.714355
0.714345
0.714334
0.714323
0.714313
0.714302
0.714291
0.712635
0.712634
0.712632
0.712631
0.712629
0.712628
0.712626
0.712625
0.712623
0.712621
0.712619
0.712617
0.712615
0.712614
0.712613
0.712614
0.712617
0.712623
0.712632
0.712646
0.712664
0.712687
0.712717
0.712754
0.712797
0.712848
0.712906
0.712971
0.713044
0.713123
0.713209
0.7133
0.713395
0.713494
0.713596
0.713698
0.713801
0.713903
0.714002
0.714097
0.714188
0.714272
0.71435
0.714421
0.714483
0.714538
0.714584
0.714622
0.714653
0.714677
0.714695
0.714708
0.714718
0.714724
0.714729
0.714733
0.714737
0.714741
0.714745
0.714751
0.714757
0.714764
0.714772
0.714779
0.714786
0.714793
0.714799
0.714803
0.714807
0.71481
0.714813
0.714816
0.71482
0.714826
0.714834
0.714845
0.71486
0.714878
0.714899
0.714925
0.714953
0.714985
0.715019
0.715055
0.715093
0.715131
0.715169
0.715206
0.715241
0.715273
0.715302
0.715328
0.715349
0.715365
0.715376
0.715383
0.715386
0.715385
0.71538
0.715374
0.715365
0.715354
0.715342
0.71533
0.715317
0.715304
0.715291
0.715278
0.715266
0.715253
0.715241
0.71523
0.715218
0.715207
0.715196
0.715185
0.715174
0.715163
0.715153
0.715142
0.715132
0.715121
0.715111
0.7151
0.71509
0.715079
0.715068
0.715058
0.715047
0.715037
0.715026
0.715015
0.715005
0.714994
0.714984
0.714973
0.714962
0.714952
0.714941
0.71493
0.71492
0.714909
0.714898
0.714888
0.714877
0.714866
0.714856
0.714845
0.714834
0.714824
0.714813
0.714802
0.714792
0.714781
0.714771
0.71476
0.714749
0.714739
0.714728
0.714717
0.714707
0.714696
0.714685
0.714675
0.714664
0.714653
0.714643
0.714632
0.714621
0.714611
0.7146
0.71459
0.714579
0.714568
0.714558
0.714547
0.714536
0.714526
0.714515
0.714504
0.714494
0.714483
0.714472
0.714462
0.714451
0.71444
0.71443
0.714419
0.714408
0.714398
0.714387
0.714377
0.714366
0.714355
0.714345
0.714334
0.714323
0.714313
0.714302
0.714291
0.712603
0.712618
0.712618
0.712624
0.712624
0.712625
0.712625
0.712624
0.712623
0.712621
0.712619
0.712617
0.712615
0.712613
0.712612
0.712613
0.712616
0.712621
0.71263
0.712643
0.712661
0.712685
0.712715
0.712751
0.712794
0.712845
0.712903
0.712968
0.71304
0.713118
0.713202
0.713292
0.713385
0.713481
0.71358
0.713679
0.713778
0.713874
0.713968
0.714057
0.714141
0.714219
0.714289
0.714352
0.714406
0.714453
0.714491
0.714521
0.714545
0.714562
0.714575
0.714584
0.71459
0.714595
0.714599
0.714604
0.714611
0.714619
0.714629
0.714642
0.714656
0.714673
0.71469
0.714709
0.714727
0.714745
0.714762
0.714778
0.714793
0.714805
0.714816
0.714827
0.714836
0.714846
0.714857
0.71487
0.714885
0.714902
0.714923
0.714947
0.714974
0.715003
0.715036
0.71507
0.715105
0.715141
0.715177
0.715212
0.715245
0.715276
0.715303
0.715327
0.715347
0.715362
0.715372
0.715378
0.71538
0.715379
0.715374
0.715368
0.715359
0.715349
0.715338
0.715326
0.715314
0.715301
0.715289
0.715277
0.715264
0.715253
0.715241
0.715229
0.715218
0.715207
0.715196
0.715185
0.715174
0.715164
0.715153
0.715142
0.715132
0.715121
0.715111
0.7151
0.71509
0.715079
0.715068
0.715058
0.715047
0.715037
0.715026
0.715015
0.715005
0.714994
0.714984
0.714973
0.714962
0.714952
0.714941
0.71493
0.71492
0.714909
0.714898
0.714888
0.714877
0.714866
0.714856
0.714845
0.714834
0.714824
0.714813
0.714802
0.714792
0.714781
0.714771
0.71476
0.714749
0.714739
0.714728
0.714717
0.714707
0.714696
0.714685
0.714675
0.714664
0.714653
0.714643
0.714632
0.714621
0.714611
0.7146
0.71459
0.714579
0.714568
0.714558
0.714547
0.714536
0.714526
0.714515
0.714504
0.714494
0.714483
0.714472
0.714462
0.714451
0.71444
0.71443
0.714419
0.714408
0.714398
0.714387
0.714377
0.714366
0.714355
0.714345
0.714334
0.714323
0.714313
0.714302
0.714291
0.712603
0.71262
0.712619
0.712622
0.712623
0.712624
0.712624
0.712624
0.712623
0.712622
0.71262
0.712618
0.712616
0.712615
0.712615
0.712616
0.712619
0.712625
0.712634
0.712648
0.712667
0.712691
0.712722
0.712759
0.712803
0.712854
0.712912
0.712977
0.713049
0.713126
0.713209
0.713296
0.713387
0.71348
0.713574
0.713668
0.71376
0.71385
0.713936
0.714017
0.714092
0.714159
0.714219
0.714271
0.714314
0.71435
0.714377
0.714398
0.714412
0.714422
0.714428
0.714432
0.714435
0.714438
0.714443
0.71445
0.71446
0.714474
0.71449
0.714511
0.714534
0.71456
0.714588
0.714618
0.714649
0.71468
0.71471
0.71474
0.714767
0.714793
0.714816
0.714837
0.714857
0.714875
0.714892
0.714909
0.714926
0.714945
0.714966
0.714989
0.715014
0.715041
0.71507
0.715101
0.715133
0.715165
0.715197
0.715228
0.715258
0.715285
0.715309
0.71533
0.715347
0.715359
0.715368
0.715372
0.715373
0.715371
0.715367
0.71536
0.715352
0.715342
0.715332
0.715321
0.715309
0.715298
0.715286
0.715275
0.715263
0.715252
0.71524
0.715229
0.715218
0.715207
0.715196
0.715185
0.715175
0.715164
0.715153
0.715143
0.715132
0.715122
0.715111
0.7151
0.71509
0.715079
0.715069
0.715058
0.715047
0.715037
0.715026
0.715015
0.715005
0.714994
0.714984
0.714973
0.714962
0.714952
0.714941
0.71493
0.71492
0.714909
0.714898
0.714888
0.714877
0.714866
0.714856
0.714845
0.714834
0.714824
0.714813
0.714802
0.714792
0.714781
0.714771
0.71476
0.714749
0.714739
0.714728
0.714717
0.714707
0.714696
0.714685
0.714675
0.714664
0.714653
0.714643
0.714632
0.714621
0.714611
0.7146
0.71459
0.714579
0.714568
0.714558
0.714547
0.714536
0.714526
0.714515
0.714504
0.714494
0.714483
0.714472
0.714462
0.714451
0.71444
0.71443
0.714419
0.714408
0.714398
0.714387
0.714377
0.714366
0.714355
0.714345
0.714334
0.714323
0.714313
0.714302
0.714291
0.712446
0.712586
0.712605
0.712627
0.71263
0.712632
0.712632
0.712632
0.71263
0.712629
0.712627
0.712625
0.712623
0.712623
0.712623
0.712625
0.71263
0.712637
0.712648
0.712664
0.712685
0.712711
0.712744
0.712783
0.712829
0.712881
0.712941
0.713006
0.713078
0.713154
0.713235
0.71332
0.713407
0.713496
0.713584
0.713671
0.713756
0.713836
0.713912
0.713982
0.714045
0.7141
0.714146
0.714185
0.714215
0.714238
0.714254
0.714264
0.71427
0.714273
0.714274
0.714275
0.714277
0.71428
0.714287
0.714298
0.714313
0.714332
0.714356
0.714384
0.714415
0.714451
0.714489
0.71453
0.714572
0.714614
0.714657
0.714699
0.71474
0.714778
0.714814
0.714848
0.714878
0.714906
0.714932
0.714957
0.71498
0.715002
0.715025
0.715048
0.715071
0.715096
0.715122
0.715148
0.715175
0.715203
0.715229
0.715255
0.715279
0.715301
0.715321
0.715337
0.71535
0.715359
0.715365
0.715367
0.715367
0.715364
0.715358
0.715352
0.715344
0.715335
0.715325
0.715315
0.715305
0.715294
0.715283
0.715272
0.715261
0.71525
0.71524
0.715229
0.715218
0.715207
0.715196
0.715186
0.715175
0.715164
0.715154
0.715143
0.715132
0.715122
0.715111
0.715101
0.71509
0.715079
0.715069
0.715058
0.715047
0.715037
0.715026
0.715015
0.715005
0.714994
0.714984
0.714973
0.714962
0.714952
0.714941
0.71493
0.71492
0.714909
0.714898
0.714888
0.714877
0.714866
0.714856
0.714845
0.714834
0.714824
0.714813
0.714802
0.714792
0.714781
0.714771
0.71476
0.714749
0.714739
0.714728
0.714717
0.714707
0.714696
0.714685
0.714675
0.714664
0.714653
0.714643
0.714632
0.714621
0.714611
0.7146
0.71459
0.714579
0.714568
0.714558
0.714547
0.714536
0.714526
0.714515
0.714504
0.714494
0.714483
0.714472
0.714462
0.714451
0.71444
0.71443
0.714419
0.714408
0.714398
0.714387
0.714377
0.714366
0.714355
0.714345
0.714334
0.714323
0.714313
0.714302
0.714291
0.713188
0.713132
0.713069
0.713001
0.712928
0.712849
0.712761
0.712639
0.713195
0.713148
0.713085
0.713016
0.712942
0.712863
0.712771
0.712672
0.7132
0.71316
0.713102
0.713037
0.712967
0.712895
0.712823
0.712752
0.713211
0.713177
0.713124
0.713063
0.712998
0.712934
0.71287
0.712812
0.713224
0.713192
0.713143
0.713086
0.713028
0.712971
0.712917
0.71287
0.713239
0.713207
0.713159
0.713105
0.713051
0.713
0.712954
0.712912
0.713255
0.713218
0.713169
0.713117
0.713066
0.713019
0.712976
0.712938
0.713263
0.713216
0.713167
0.713117
0.71307
0.713025
0.712984
0.712946
0.712573
0.712593
0.712614
0.712626
0.712632
0.712635
0.712636
0.712637
0.712636
0.712636
0.712635
0.712635
0.712636
0.712637
0.71264
0.712645
0.712653
0.712664
0.712679
0.712699
0.712724
0.712754
0.71279
0.712833
0.712882
0.712937
0.712998
0.713064
0.713136
0.713212
0.713291
0.713372
0.713454
0.713536
0.713617
0.713695
0.713769
0.713837
0.7139
0.713956
0.714004
0.714045
0.714077
0.714102
0.714119
0.714131
0.714137
0.71414
0.71414
0.714139
0.714138
0.71414
0.714143
0.71415
0.714161
0.714176
0.714196
0.714221
0.714251
0.714285
0.714324
0.714367
0.714413
0.714461
0.714512
0.714564
0.714616
0.714669
0.71472
0.714769
0.714816
0.71486
0.714901
0.714939
0.714974
0.715006
0.715036
0.715063
0.715089
0.715113
0.715137
0.71516
0.715183
0.715205
0.715228
0.715249
0.71527
0.715289
0.715307
0.715323
0.715336
0.715347
0.715355
0.71536
0.715362
0.715362
0.71536
0.715356
0.71535
0.715344
0.715336
0.715327
0.715319
0.715309
0.7153
0.71529
0.71528
0.71527
0.71526
0.715249
0.715239
0.715228
0.715218
0.715207
0.715197
0.715186
0.715175
0.715165
0.715154
0.715143
0.715133
0.715122
0.715111
0.715101
0.71509
0.715079
0.715069
0.715058
0.715047
0.715037
0.715026
0.715015
0.715005
0.714994
0.714984
0.714973
0.714962
0.714952
0.714941
0.71493
0.71492
0.714909
0.714898
0.714888
0.714877
0.714866
0.714856
0.714845
0.714834
0.714824
0.714813
0.714802
0.714792
0.714781
0.714771
0.71476
0.714749
0.714739
0.714728
0.714717
0.714707
0.714696
0.714685
0.714675
0.714664
0.714653
0.714643
0.714632
0.714621
0.714611
0.7146
0.71459
0.714579
0.714568
0.714558
0.714547
0.714536
0.714526
0.714515
0.714504
0.714494
0.714483
0.714472
0.714462
0.714451
0.71444
0.71443
0.714419
0.714408
0.714398
0.714387
0.714377
0.714366
0.714355
0.714345
0.714334
0.714323
0.714313
0.714302
0.714291
0.712598
0.712606
0.71262
0.712633
0.712641
0.712647
0.71265
0.712652
0.712653
0.712655
0.712657
0.712659
0.712663
0.712668
0.712676
0.712685
0.712698
0.712715
0.712735
0.712761
0.712791
0.712827
0.712869
0.712916
0.712969
0.713027
0.71309
0.713158
0.713228
0.713302
0.713377
0.713453
0.713528
0.713601
0.713671
0.713736
0.713797
0.713851
0.713898
0.713939
0.713971
0.713997
0.714016
0.714029
0.714037
0.714041
0.714043
0.714043
0.714043
0.714044
0.714046
0.71405
0.714058
0.714068
0.714083
0.714102
0.714126
0.714155
0.714189
0.714227
0.71427
0.714316
0.714367
0.714421
0.714477
0.714535
0.714594
0.714653
0.714712
0.714769
0.714824
0.714877
0.714926
0.714972
0.715014
0.715053
0.715088
0.71512
0.715149
0.715175
0.715199
0.715222
0.715242
0.715261
0.715279
0.715295
0.71531
0.715323
0.715335
0.715344
0.715352
0.715357
0.71536
0.715361
0.71536
0.715358
0.715354
0.715349
0.715343
0.715336
0.715329
0.715321
0.715313
0.715304
0.715295
0.715286
0.715277
0.715268
0.715258
0.715248
0.715238
0.715228
0.715218
0.715207
0.715197
0.715186
0.715176
0.715165
0.715154
0.715144
0.715133
0.715122
0.715112
0.715101
0.71509
0.71508
0.715069
0.715058
0.715047
0.715037
0.715026
0.715015
0.715005
0.714994
0.714984
0.714973
0.714962
0.714952
0.714941
0.71493
0.71492
0.714909
0.714898
0.714888
0.714877
0.714866
0.714856
0.714845
0.714834
0.714824
0.714813
0.714802
0.714792
0.714781
0.714771
0.71476
0.714749
0.714739
0.714728
0.714717
0.714707
0.714696
0.714685
0.714675
0.714664
0.714653
0.714643
0.714632
0.714621
0.714611
0.7146
0.71459
0.714579
0.714568
0.714558
0.714547
0.714536
0.714526
0.714515
0.714504
0.714494
0.714483
0.714472
0.714462
0.714451
0.71444
0.71443
0.714419
0.714408
0.714398
0.714387
0.714377
0.714366
0.714355
0.714345
0.714334
0.714323
0.714313
0.714302
0.714291
0.712698
0.712674
0.712668
0.712669
0.712671
0.712674
0.712676
0.712679
0.712682
0.712686
0.71269
0.712697
0.712705
0.712715
0.712728
0.712745
0.712764
0.712788
0.712816
0.712848
0.712886
0.712929
0.712977
0.713029
0.713087
0.713147
0.713212
0.713278
0.713346
0.713416
0.713485
0.713552
0.713617
0.713678
0.713734
0.713784
0.713828
0.713865
0.713897
0.713922
0.713941
0.713956
0.713968
0.713976
0.713982
0.713986
0.713988
0.713991
0.713993
0.713997
0.714003
0.71401
0.71402
0.714033
0.71405
0.714071
0.714096
0.714126
0.714161
0.714201
0.714245
0.714294
0.714347
0.714403
0.714463
0.714524
0.714587
0.714651
0.714714
0.714776
0.714837
0.714895
0.71495
0.715001
0.715049
0.715092
0.715132
0.715167
0.715199
0.715226
0.715251
0.715272
0.715291
0.715307
0.715321
0.715333
0.715343
0.715351
0.715357
0.715362
0.715364
0.715365
0.715364
0.715362
0.715359
0.715354
0.715349
0.715343
0.715337
0.71533
0.715323
0.715315
0.715308
0.7153
0.715292
0.715283
0.715275
0.715266
0.715257
0.715247
0.715238
0.715228
0.715218
0.715207
0.715197
0.715187
0.715176
0.715165
0.715155
0.715144
0.715133
0.715123
0.715112
0.715101
0.71509
0.71508
0.715069
0.715058
0.715048
0.715037
0.715026
0.715015
0.715005
0.714994
0.714984
0.714973
0.714962
0.714952
0.714941
0.71493
0.71492
0.714909
0.714898
0.714888
0.714877
0.714866
0.714856
0.714845
0.714834
0.714824
0.714813
0.714802
0.714792
0.714781
0.714771
0.71476
0.714749
0.714739
0.714728
0.714717
0.714707
0.714696
0.714685
0.714675
0.714664
0.714653
0.714643
0.714632
0.714621
0.714611
0.7146
0.71459
0.714579
0.714568
0.714558
0.714547
0.714536
0.714526
0.714515
0.714504
0.714494
0.714483
0.714472
0.714462
0.714451
0.71444
0.71443
0.714419
0.714408
0.714398
0.714387
0.714377
0.714366
0.714355
0.714345
0.714334
0.714323
0.714313
0.714302
0.714291
0.712766
0.712738
0.712724
0.712718
0.712716
0.712715
0.712716
0.712718
0.712722
0.712727
0.712735
0.712745
0.712757
0.712773
0.712792
0.712814
0.712841
0.712871
0.712907
0.712947
0.712992
0.713041
0.713095
0.713152
0.713213
0.713275
0.713338
0.713402
0.713465
0.713527
0.713586
0.713642
0.713694
0.713739
0.713779
0.713813
0.713843
0.713869
0.71389
0.713908
0.713922
0.713932
0.71394
0.713947
0.713953
0.71396
0.713966
0.713973
0.713979
0.713986
0.713993
0.714001
0.714011
0.714025
0.714041
0.714062
0.714088
0.714118
0.714153
0.714194
0.714239
0.714289
0.714343
0.714401
0.714462
0.714526
0.714591
0.714657
0.714723
0.714788
0.714852
0.714913
0.714971
0.715026
0.715077
0.715123
0.715165
0.715202
0.715235
0.715264
0.715288
0.715309
0.715326
0.71534
0.715351
0.71536
0.715367
0.715371
0.715373
0.715374
0.715373
0.71537
0.715367
0.715363
0.715357
0.715352
0.715345
0.715339
0.715332
0.715325
0.715318
0.715311
0.715304
0.715296
0.715289
0.715281
0.715273
0.715264
0.715256
0.715246
0.715237
0.715228
0.715218
0.715208
0.715197
0.715187
0.715176
0.715166
0.715155
0.715144
0.715134
0.715123
0.715112
0.715101
0.71509
0.71508
0.715069
0.715058
0.715048
0.715037
0.715026
0.715016
0.715005
0.714994
0.714984
0.714973
0.714962
0.714952
0.714941
0.71493
0.71492
0.714909
0.714898
0.714888
0.714877
0.714866
0.714856
0.714845
0.714834
0.714824
0.714813
0.714802
0.714792
0.714781
0.714771
0.71476
0.714749
0.714739
0.714728
0.714717
0.714707
0.714696
0.714685
0.714675
0.714664
0.714653
0.714643
0.714632
0.714621
0.714611
0.7146
0.71459
0.714579
0.714568
0.714558
0.714547
0.714536
0.714526
0.714515
0.714504
0.714494
0.714483
0.714472
0.714462
0.714451
0.71444
0.71443
0.714419
0.714408
0.714398
0.714387
0.714377
0.714366
0.714355
0.714345
0.714334
0.714323
0.714313
0.714302
0.714291
0.712832
0.712804
0.712786
0.712774
0.712767
0.712762
0.71276
0.712761
0.712764
0.71277
0.71278
0.712792
0.712809
0.712829
0.712853
0.712881
0.712914
0.712951
0.712992
0.713039
0.713089
0.713143
0.713201
0.713261
0.713321
0.713382
0.71344
0.713497
0.713551
0.713603
0.713652
0.713698
0.713739
0.713774
0.713804
0.713827
0.713846
0.71386
0.713872
0.713885
0.713898
0.713913
0.713927
0.71394
0.713951
0.71396
0.713967
0.713973
0.713979
0.713984
0.713991
0.714
0.714011
0.714025
0.714042
0.714064
0.71409
0.71412
0.714156
0.714197
0.714243
0.714294
0.714349
0.714407
0.714469
0.714534
0.7146
0.714667
0.714734
0.714801
0.714866
0.714929
0.714988
0.715044
0.715097
0.715144
0.715187
0.715225
0.715258
0.715287
0.715311
0.715331
0.715347
0.71536
0.71537
0.715376
0.71538
0.715382
0.715383
0.715381
0.715378
0.715374
0.715369
0.715363
0.715356
0.71535
0.715343
0.715336
0.715329
0.715322
0.715315
0.715308
0.715301
0.715294
0.715287
0.715279
0.715271
0.715263
0.715255
0.715246
0.715237
0.715227
0.715218
0.715208
0.715197
0.715187
0.715177
0.715166
0.715155
0.715144
0.715134
0.715123
0.715112
0.715101
0.715091
0.71508
0.715069
0.715058
0.715048
0.715037
0.715026
0.715016
0.715005
0.714994
0.714984
0.714973
0.714962
0.714952
0.714941
0.71493
0.71492
0.714909
0.714898
0.714888
0.714877
0.714866
0.714856
0.714845
0.714834
0.714824
0.714813
0.714802
0.714792
0.714781
0.714771
0.71476
0.714749
0.714739
0.714728
0.714717
0.714707
0.714696
0.714685
0.714675
0.714664
0.714653
0.714643
0.714632
0.714621
0.714611
0.7146
0.71459
0.714579
0.714568
0.714558
0.714547
0.714536
0.714526
0.714515
0.714504
0.714494
0.714483
0.714472
0.714462
0.714451
0.71444
0.71443
0.714419
0.714408
0.714398
0.714387
0.714377
0.714366
0.714355
0.714345
0.714334
0.714323
0.714313
0.714302
0.714291
0.712878
0.712851
0.71283
0.712815
0.712804
0.712796
0.712792
0.712792
0.712795
0.712801
0.712812
0.712827
0.712846
0.71287
0.712897
0.712929
0.712966
0.713006
0.713051
0.713101
0.713153
0.713209
0.713267
0.713326
0.713385
0.713443
0.713498
0.713549
0.713596
0.71364
0.713679
0.713712
0.713738
0.713759
0.713778
0.713799
0.713822
0.713845
0.713867
0.713886
0.713903
0.713917
0.713929
0.713939
0.713948
0.713956
0.713963
0.71397
0.713977
0.713984
0.713993
0.714002
0.714014
0.714029
0.714048
0.71407
0.714097
0.714128
0.714165
0.714206
0.714252
0.714303
0.714359
0.714418
0.71448
0.714545
0.714611
0.714679
0.714747
0.714813
0.714879
0.714942
0.715002
0.715058
0.71511
0.715158
0.715201
0.715239
0.715272
0.7153
0.715324
0.715343
0.715359
0.715371
0.715379
0.715385
0.715387
0.715388
0.715387
0.715384
0.71538
0.715375
0.715369
0.715362
0.715355
0.715348
0.715341
0.715334
0.715327
0.71532
0.715313
0.715307
0.7153
0.715293
0.715286
0.715278
0.715271
0.715263
0.715254
0.715246
0.715237
0.715227
0.715217
0.715208
0.715197
0.715187
0.715177
0.715166
0.715155
0.715145
0.715134
0.715123
0.715112
0.715101
0.715091
0.71508
0.715069
0.715058
0.715048
0.715037
0.715026
0.715016
0.715005
0.714994
0.714984
0.714973
0.714962
0.714952
0.714941
0.71493
0.71492
0.714909
0.714898
0.714888
0.714877
0.714866
0.714856
0.714845
0.714834
0.714824
0.714813
0.714802
0.714792
0.714781
0.714771
0.71476
0.714749
0.714739
0.714728
0.714717
0.714707
0.714696
0.714685
0.714675
0.714664
0.714653
0.714643
0.714632
0.714621
0.714611
0.7146
0.71459
0.714579
0.714568
0.714558
0.714547
0.714536
0.714526
0.714515
0.714504
0.714494
0.714483
0.714472
0.714462
0.714451
0.71444
0.71443
0.714419
0.714408
0.714398
0.714387
0.714377
0.714366
0.714355
0.714345
0.714334
0.714323
0.714313
0.714302
0.714291
0.712905
0.712878
0.712856
0.712838
0.712824
0.712815
0.712809
0.712808
0.712811
0.712819
0.71283
0.712847
0.712867
0.712893
0.712922
0.712956
0.712994
0.713036
0.713083
0.713133
0.713186
0.713241
0.713297
0.713353
0.713406
0.713456
0.7135
0.71354
0.713578
0.713615
0.713654
0.713691
0.713726
0.713758
0.713785
0.713809
0.71383
0.713849
0.713866
0.713882
0.713897
0.713911
0.713924
0.713935
0.713945
0.713954
0.713962
0.71397
0.713977
0.713985
0.713994
0.714005
0.714017
0.714033
0.714052
0.714075
0.714103
0.714135
0.714172
0.714214
0.71426
0.714312
0.714367
0.714426
0.714489
0.714553
0.71462
0.714687
0.714755
0.714821
0.714887
0.714949
0.715009
0.715065
0.715117
0.715165
0.715207
0.715245
0.715278
0.715306
0.715329
0.715348
0.715363
0.715374
0.715382
0.715387
0.715389
0.715389
0.715388
0.715384
0.71538
0.715374
0.715368
0.715361
0.715355
0.715347
0.71534
0.715333
0.715326
0.71532
0.715313
0.715306
0.715299
0.715292
0.715285
0.715278
0.71527
0.715262
0.715254
0.715245
0.715236
0.715227
0.715217
0.715207
0.715197
0.715187
0.715176
0.715166
0.715155
0.715145
0.715134
0.715123
0.715112
0.715101
0.715091
0.71508
0.715069
0.715058
0.715048
0.715037
0.715026
0.715016
0.715005
0.714994
0.714984
0.714973
0.714962
0.714952
0.714941
0.71493
0.71492
0.714909
0.714898
0.714888
0.714877
0.714866
0.714856
0.714845
0.714834
0.714824
0.714813
0.714802
0.714792
0.714781
0.714771
0.71476
0.714749
0.714739
0.714728
0.714717
0.714707
0.714696
0.714685
0.714675
0.714664
0.714653
0.714643
0.714632
0.714621
0.714611
0.7146
0.71459
0.714579
0.714568
0.714558
0.714547
0.714536
0.714526
0.714515
0.714504
0.714494
0.714483
0.714472
0.714462
0.714451
0.71444
0.71443
0.714419
0.714408
0.714398
0.714387
0.714377
0.714366
0.714355
0.714345
0.714334
0.714323
0.714313
0.714302
0.714291
0.712913
0.712884
0.712859
0.712839
0.712824
0.712813
0.712807
0.712805
0.712809
0.712816
0.712828
0.712844
0.712865
0.71289
0.712918
0.712951
0.712988
0.713028
0.713072
0.713119
0.713169
0.713222
0.713276
0.71333
0.713384
0.713436
0.713485
0.713532
0.713576
0.713617
0.713657
0.713692
0.713724
0.713751
0.713776
0.713799
0.713821
0.713843
0.713862
0.71388
0.713896
0.71391
0.713922
0.713933
0.713942
0.713951
0.713959
0.713967
0.713975
0.713983
0.713993
0.714004
0.714018
0.714034
0.714055
0.714079
0.714107
0.71414
0.714178
0.71422
0.714267
0.714319
0.714375
0.714434
0.714497
0.714562
0.714628
0.714696
0.714763
0.71483
0.714895
0.714957
0.715017
0.715072
0.715124
0.715171
0.715213
0.71525
0.715282
0.715309
0.715332
0.71535
0.715365
0.715375
0.715382
0.715387
0.715389
0.715389
0.715387
0.715384
0.715379
0.715374
0.715367
0.715361
0.715354
0.715347
0.71534
0.715333
0.715326
0.71532
0.715313
0.715306
0.715299
0.715292
0.715285
0.715278
0.71527
0.715262
0.715254
0.715245
0.715236
0.715227
0.715217
0.715207
0.715197
0.715187
0.715176
0.715166
0.715155
0.715145
0.715134
0.715123
0.715112
0.715101
0.715091
0.71508
0.715069
0.715058
0.715048
0.715037
0.715026
0.715016
0.715005
0.714994
0.714984
0.714973
0.714962
0.714952
0.714941
0.71493
0.71492
0.714909
0.714898
0.714888
0.714877
0.714866
0.714856
0.714845
0.714834
0.714824
0.714813
0.714802
0.714792
0.714781
0.714771
0.71476
0.714749
0.714739
0.714728
0.714717
0.714707
0.714696
0.714685
0.714675
0.714664
0.714653
0.714643
0.714632
0.714621
0.714611
0.7146
0.71459
0.714579
0.714568
0.714558
0.714547
0.714536
0.714526
0.714515
0.714504
0.714494
0.714483
0.714472
0.714462
0.714451
0.71444
0.71443
0.714419
0.714408
0.714398
0.714387
0.714377
0.714366
0.714355
0.714345
0.714334
0.714323
0.714313
0.714302
0.714291
)
;

boundaryField
{
    inlet
    {
        type            zeroGradient;
    }
    outlet
    {
        type            fixedValue;