/*--------------------------------*- C++ -*----------------------------------*\
| =========                 |                                                 |
| \\      /  F ield         | OpenFOAM: The Open Source CFD Toolbox           |
|  \\    /   O peration     | Version:  4.1                                   |
|   \\  /    A nd           | Web:      www.OpenFOAM.org                      |
|    \\/     M anipulation  |                                                 |
\*---------------------------------------------------------------------------*/
FoamFile
{
    version     2.0;
    format      ascii;
    class       volScalarField;
    location    "178";
    object      p;
}
// * * * * * * * * * * * * * * * * * * * * * * * * * * * * * * * * * * * * * //

dimensions      [1 -1 -2 0 0 0 0];

internalField   nonuniform List<scalar> 
3264
(
0.712611
0.71261
0.712608
0.712607
0.712606
0.712605
0.712604
0.712603
0.712602
0.712601
0.712601
0.712601
0.712602
0.712603
0.712606
0.71261
0.712616
0.712625
0.712636
0.712651
0.71267
0.712693
0.712722
0.712756
0.712796
0.712843
0.712896
0.712956
0.713023
0.713096
0.713176
0.713261
0.713352
0.713447
0.713546
0.713647
0.713749
0.713853
0.713955
0.714055
0.714152
0.714245
0.714333
0.714414
0.714489
0.714557
0.714616
0.714668
0.714711
0.714747
0.714776
0.714797
0.714813
0.714823
0.714828
0.71483
0.714829
0.714826
0.714821
0.714816
0.71481
0.714804
0.714798
0.714793
0.714787
0.714782
0.714778
0.714773
0.714769
0.714765
0.714762
0.714759
0.714757
0.714755
0.714755
0.714757
0.71476
0.714766
0.714774
0.714785
0.7148
0.714817
0.714838
0.714861
0.714888
0.714918
0.714949
0.714983
0.715018
0.715053
0.715088
0.715123
0.715157
0.715188
0.715217
0.715243
0.715266
0.715284
0.715299
0.715309
0.715316
0.715318
0.715318
0.715314
0.715307
0.715299
0.715289
0.715277
0.715264
0.715251
0.715238
0.715225
0.715212
0.715199
0.715186
0.715174
0.715162
0.71515
0.715139
0.715128
0.715117
0.715106
0.715096
0.715085
0.715075
0.715065
0.715055
0.715044
0.715034
0.715024
0.715014
0.715003
0.714993
0.714983
0.714972
0.714962
0.714951
0.714941
0.71493
0.71492
0.714909
0.714899
0.714889
0.714878
0.714868
0.714857
0.714847
0.714836
0.714826
0.714815
0.714805
0.714794
0.714784
0.714773
0.714763
0.714752
0.714742
0.714731
0.714721
0.71471
0.7147
0.714689
0.714679
0.714668
0.714658
0.714647
0.714637
0.714627
0.714616
0.714606
0.714595
0.714585
0.714574
0.714564
0.714553
0.714543
0.714532
0.714522
0.714511
0.714501
0.71449
0.71448
0.714469
0.714459
0.714448
0.714438
0.714427
0.714417
0.714406
0.714396
0.714386
0.714375
0.714365
0.714354
0.714344
0.714333
0.714323
0.714312
0.714302
0.714291
0.712613
0.712611
0.71261
0.71261
0.712609
0.712608
0.712607
0.712606
0.712606
0.712605
0.712605
0.712606
0.712606
0.712608
0.71261
0.712614
0.71262
0.712628
0.712638
0.712652
0.71267
0.712693
0.71272
0.712753
0.712792
0.712838
0.71289
0.712949
0.713015
0.713087
0.713166
0.713251
0.713341
0.713436
0.713534
0.713635
0.713737
0.71384
0.713942
0.714043
0.71414
0.714233
0.714321
0.714403
0.714478
0.714546
0.714606
0.714658
0.714702
0.714739
0.714768
0.714791
0.714807
0.714818
0.714825
0.714828
0.714828
0.714826
0.714823
0.714818
0.714813
0.714808
0.714802
0.714797
0.714791
0.714786
0.714781
0.714777
0.714773
0.714769
0.714765
0.714762
0.714759
0.714757
0.714757
0.714757
0.71476
0.714765
0.714773
0.714783
0.714797
0.714814
0.714834
0.714857
0.714884
0.714913
0.714944
0.714978
0.715013
0.715048
0.715084
0.715119
0.715153
0.715185
0.715215
0.715241
0.715264
0.715283
0.715298
0.715309
0.715316
0.715319
0.715318
0.715315
0.715308
0.7153
0.715289
0.715278
0.715265
0.715252
0.715238
0.715225
0.715212
0.715199
0.715186
0.715173
0.715161
0.71515
0.715139
0.715128
0.715117
0.715106
0.715096
0.715085
0.715075
0.715065
0.715055
0.715044
0.715034
0.715024
0.715014
0.715003
0.714993
0.714983
0.714972
0.714962
0.714951
0.714941
0.71493
0.71492
0.714909
0.714899
0.714889
0.714878
0.714868
0.714857
0.714847
0.714836
0.714826
0.714815
0.714805
0.714794
0.714784
0.714773
0.714763
0.714752
0.714742
0.714731
0.714721
0.71471
0.7147
0.714689
0.714679
0.714668
0.714658
0.714647
0.714637
0.714627
0.714616
0.714606
0.714595
0.714585
0.714574
0.714564
0.714553
0.714543
0.714532
0.714522
0.714511
0.714501
0.71449
0.71448
0.714469
0.714459
0.714448
0.714438
0.714427
0.714417
0.714406
0.714396
0.714386
0.714375
0.714365
0.714354
0.714344
0.714333
0.714323
0.714312
0.714302
0.714291
0.712615
0.712613
0.712611
0.71261
0.712609
0.712608
0.712607
0.712607
0.712606
0.712605
0.712605
0.712605
0.712606
0.712607
0.712609
0.712612
0.712617
0.712624
0.712634
0.712647
0.712664
0.712685
0.712712
0.712744
0.712782
0.712827
0.712879
0.712937
0.713003
0.713075
0.713153
0.713238
0.713328
0.713422
0.71352
0.713621
0.713724
0.713826
0.713928
0.714029
0.714126
0.714219
0.714306
0.714388
0.714463
0.714531
0.714591
0.714643
0.714687
0.714723
0.714752
0.714775
0.714791
0.714803
0.71481
0.714813
0.714814
0.714813
0.714811
0.714808
0.714805
0.714801
0.714797
0.714794
0.71479
0.714786
0.714782
0.714777
0.714773
0.714769
0.714765
0.714762
0.714759
0.714757
0.714756
0.714757
0.714759
0.714764
0.714771
0.714781
0.714794
0.714811
0.714831
0.714854
0.71488
0.714909
0.714941
0.714974
0.715009
0.715045
0.715081
0.715117
0.715151
0.715183
0.715213
0.71524
0.715264
0.715283
0.715299
0.71531
0.715317
0.71532
0.715319
0.715316
0.715309
0.7153
0.71529
0.715278
0.715265
0.715252
0.715238
0.715225
0.715211
0.715198
0.715186
0.715173
0.715161
0.71515
0.715138
0.715127
0.715117
0.715106
0.715096
0.715085
0.715075
0.715065
0.715055
0.715044
0.715034
0.715024
0.715014
0.715003
0.714993
0.714983
0.714972
0.714962
0.714951
0.714941
0.71493
0.71492
0.714909
0.714899
0.714889
0.714878
0.714868
0.714857
0.714847
0.714836
0.714826
0.714815
0.714805
0.714794
0.714784
0.714773
0.714763
0.714752
0.714742
0.714731
0.714721
0.71471
0.7147
0.714689
0.714679
0.714668
0.714658
0.714647
0.714637
0.714627
0.714616
0.714606
0.714595
0.714585
0.714574
0.714564
0.714553
0.714543
0.714532
0.714522
0.714511
0.714501
0.71449
0.71448
0.714469
0.714459
0.714448
0.714438
0.714427
0.714417
0.714406
0.714396
0.714386
0.714375
0.714365
0.714354
0.714344
0.714333
0.714323
0.714312
0.714302
0.714291
0.71261
0.712609
0.712608
0.712608
0.712607
0.712607
0.712606
0.712606
0.712605
0.712605
0.712604
0.712604
0.712604
0.712605
0.712606
0.712609
0.712613
0.712619
0.712628
0.71264
0.712656
0.712676
0.712702
0.712733
0.71277
0.712814
0.712865
0.712923
0.712988
0.71306
0.713138
0.713222
0.713311
0.713405
0.713502
0.713602
0.713703
0.713805
0.713906
0.714005
0.7141
0.714192
0.714278
0.714358
0.714431
0.714497
0.714554
0.714605
0.714647
0.714682
0.714709
0.714731
0.714746
0.714757
0.714765
0.714769
0.714771
0.714771
0.714771
0.714771
0.714771
0.714771
0.714771
0.714772
0.714772
0.714773
0.714773
0.714772
0.714771
0.714769
0.714767
0.714764
0.714761
0.714759
0.714758
0.714758
0.71476
0.714764
0.714771
0.714781
0.714794
0.71481
0.71483
0.714852
0.714878
0.714907
0.714938
0.714972
0.715007
0.715042
0.715078
0.715114
0.715148
0.715181
0.715211
0.715238
0.715261
0.715281
0.715297
0.715308
0.715315
0.715318
0.715318
0.715314
0.715308
0.715299
0.715289
0.715277
0.715264
0.715251
0.715238
0.715224
0.715211
0.715198
0.715185
0.715173
0.715161
0.71515
0.715138
0.715127
0.715117
0.715106
0.715096
0.715085
0.715075
0.715065
0.715055
0.715044
0.715034
0.715024
0.715014
0.715003
0.714993
0.714983
0.714972
0.714962
0.714951
0.714941
0.71493
0.71492
0.714909
0.714899
0.714889
0.714878
0.714868
0.714857
0.714847
0.714836
0.714826
0.714815
0.714805
0.714794
0.714784
0.714773
0.714763
0.714752
0.714742
0.714731
0.714721
0.71471
0.7147
0.714689
0.714679
0.714668
0.714658
0.714647
0.714637
0.714627
0.714616
0.714606
0.714595
0.714585
0.714574
0.714564
0.714553
0.714543
0.714532
0.714522
0.714511
0.714501
0.71449
0.71448
0.714469
0.714459
0.714448
0.714438
0.714427
0.714417
0.714406
0.714396
0.714386
0.714375
0.714365
0.714354
0.714344
0.714333
0.714323
0.714312
0.714302
0.714291
0.712608
0.712608
0.712605
0.712605
0.712603
0.712603
0.712602
0.712602
0.712602
0.712602
0.712601
0.712601
0.712601
0.712602
0.712603
0.712605
0.712608
0.712614
0.712622
0.712634
0.712649
0.712669
0.712694
0.712725
0.712762
0.712806
0.712856
0.712914
0.712978
0.713049
0.713127
0.71321
0.713298
0.71339
0.713486
0.713584
0.713684
0.713783
0.713881
0.713977
0.714069
0.714157
0.714239
0.714314
0.714383
0.714444
0.714497
0.714543
0.714581
0.714611
0.714635
0.714653
0.714666
0.714674
0.71468
0.714684
0.714686
0.714689
0.714691
0.714694
0.714698
0.714703
0.714709
0.714716
0.714724
0.714732
0.714739
0.714746
0.714752
0.714757
0.714761
0.714763
0.714765
0.714766
0.714766
0.714767
0.71477
0.714774
0.71478
0.714789
0.714802
0.714817
0.714836
0.714858
0.714883
0.714912
0.714942
0.714975
0.715009
0.715044
0.715079
0.715113
0.715147
0.715179
0.715209
0.715235
0.715258
0.715277
0.715293
0.715304
0.71531
0.715314
0.715313
0.715309
0.715303
0.715295
0.715285
0.715274
0.715261
0.715249
0.715236
0.715223
0.71521
0.715197
0.715185
0.715173
0.715161
0.71515
0.715139
0.715128
0.715117
0.715106
0.715096
0.715086
0.715075
0.715065
0.715055
0.715045
0.715034
0.715024
0.715014
0.715003
0.714993
0.714983
0.714972
0.714962
0.714951
0.714941
0.71493
0.71492
0.714909
0.714899
0.714889
0.714878
0.714868
0.714857
0.714847
0.714836
0.714826
0.714815
0.714805
0.714794
0.714784
0.714773
0.714763
0.714752
0.714742
0.714731
0.714721
0.71471
0.7147
0.714689
0.714679
0.714668
0.714658
0.714647
0.714637
0.714627
0.714616
0.714606
0.714595
0.714585
0.714574
0.714564
0.714553
0.714543
0.714532
0.714522
0.714511
0.714501
0.71449
0.71448
0.714469
0.714459
0.714448
0.714438
0.714427
0.714417
0.714406
0.714396
0.714386
0.714375
0.714365
0.714354
0.714344
0.714333
0.714323
0.714312
0.714302
0.714291
0.712576
0.712591
0.712591
0.712597
0.712598
0.7126
0.7126
0.712601
0.712601
0.712601
0.712601
0.712601
0.712601
0.712601
0.712602
0.712604
0.712607
0.712613
0.712621
0.712632
0.712647
0.712667
0.712692
0.712723
0.71276
0.712803
0.712854
0.712911
0.712975
0.713045
0.713122
0.713204
0.71329
0.713381
0.713474
0.71357
0.713666
0.713761
0.713854
0.713945
0.714032
0.714113
0.714189
0.714258
0.714319
0.714372
0.714418
0.714456
0.714487
0.71451
0.714528
0.714541
0.714549
0.714554
0.714558
0.714561
0.714564
0.714567
0.714573
0.71458
0.714589
0.7146
0.714613
0.714629
0.714645
0.714662
0.71468
0.714697
0.714714
0.714729
0.714742
0.714754
0.714764
0.714772
0.714778
0.714784
0.71479
0.714796
0.714804
0.714813
0.714825
0.714839
0.714857
0.714878
0.714901
0.714928
0.714956
0.714987
0.715019
0.715052
0.715086
0.715118
0.71515
0.71518
0.715208
0.715233
0.715255
0.715273
0.715287
0.715297
0.715304
0.715306
0.715306
0.715302
0.715296
0.715288
0.715279
0.715268
0.715257
0.715245
0.715233
0.71522
0.715208
0.715196
0.715184
0.715172
0.715161
0.71515
0.715139
0.715128
0.715117
0.715107
0.715096
0.715086
0.715076
0.715065
0.715055
0.715045
0.715035
0.715024
0.715014
0.715003
0.714993
0.714983
0.714972
0.714962
0.714951
0.714941
0.71493
0.71492
0.714909
0.714899
0.714888
0.714878
0.714868
0.714857
0.714847
0.714836
0.714826
0.714815
0.714805
0.714794
0.714784
0.714773
0.714763
0.714752
0.714742
0.714731
0.714721
0.71471
0.7147
0.714689
0.714679
0.714668
0.714658
0.714647
0.714637
0.714627
0.714616
0.714606
0.714595
0.714585
0.714574
0.714564
0.714553
0.714543
0.714532
0.714522
0.714511
0.714501
0.71449
0.71448
0.714469
0.714459
0.714448
0.714438
0.714427
0.714417
0.714406
0.714396
0.714386
0.714375
0.714365
0.714354
0.714344
0.714333
0.714323
0.714312
0.714302
0.714291
0.712576
0.712592
0.712591
0.712595
0.712595
0.712597
0.712599
0.7126
0.712601
0.712602
0.712602
0.712602
0.712602
0.712603
0.712604
0.712606
0.71261
0.712615
0.712624
0.712636
0.712652
0.712672
0.712698
0.71273
0.712768
0.712812
0.712863
0.71292
0.712984
0.713054
0.71313
0.713211
0.713295
0.713383
0.713473
0.713565
0.713656
0.713745
0.713832
0.713916
0.713995
0.714067
0.714134
0.714193
0.714244
0.714287
0.714323
0.714351
0.714372
0.714388
0.714398
0.714404
0.714408
0.71441
0.714412
0.714414
0.714418
0.714424
0.714433
0.714445
0.71446
0.714478
0.714499
0.714522
0.714548
0.714576
0.714604
0.714632
0.714661
0.714688
0.714713
0.714737
0.714758
0.714776
0.714792
0.714807
0.714819
0.714831
0.714842
0.714854
0.714867
0.714881
0.714898
0.714917
0.714938
0.714962
0.714988
0.715015
0.715044
0.715074
0.715103
0.715133
0.715161
0.715188
0.715213
0.715235
0.715254
0.71527
0.715282
0.715291
0.715296
0.715298
0.715296
0.715293
0.715287
0.71528
0.715271
0.715261
0.715251
0.71524
0.715229
0.715217
0.715206
0.715195
0.715183
0.715172
0.715161
0.71515
0.715139
0.715129
0.715118
0.715107
0.715097
0.715087
0.715076
0.715066
0.715055
0.715045
0.715035
0.715024
0.715014
0.715004
0.714993
0.714983
0.714972
0.714962
0.714951
0.714941
0.71493
0.71492
0.714909
0.714899
0.714888
0.714878
0.714868
0.714857
0.714847
0.714836
0.714826
0.714815
0.714805
0.714794
0.714784
0.714773
0.714763
0.714752
0.714742
0.714731
0.714721
0.71471
0.7147
0.714689
0.714679
0.714668
0.714658
0.714647
0.714637
0.714627
0.714616
0.714606
0.714595
0.714585
0.714574
0.714564
0.714553
0.714543
0.714532
0.714522
0.714511
0.714501
0.71449
0.71448
0.714469
0.714459
0.714448
0.714438
0.714427
0.714417
0.714406
0.714396
0.714386
0.714375
0.714365
0.714354
0.714344
0.714333
0.714323
0.714312
0.714302
0.714291
0.712419
0.712559
0.712577
0.712599
0.712602
0.712605
0.712606
0.712607
0.712607
0.712608
0.712608
0.712608
0.712609
0.71261
0.712611
0.712614
0.712619
0.712626
0.712636
0.71265
0.712668
0.71269
0.712718
0.712752
0.712792
0.712838
0.71289
0.712949
0.713013
0.713083
0.713158
0.713237
0.713319
0.713404
0.71349
0.713575
0.71366
0.713742
0.71382
0.713894
0.713962
0.714024
0.714078
0.714125
0.714164
0.714196
0.71422
0.714237
0.714249
0.714257
0.71426
0.714262
0.714262
0.714263
0.714264
0.714268
0.714274
0.714284
0.714297
0.714314
0.714336
0.71436
0.714389
0.714421
0.714455
0.714491
0.714529
0.714568
0.714607
0.714645
0.714682
0.714717
0.71475
0.71478
0.714807
0.714832
0.714853
0.714873
0.714891
0.714907
0.714923
0.714939
0.714956
0.714974
0.714993
0.715014
0.715036
0.715059
0.715083
0.715108
0.715133
0.715157
0.715181
0.715203
0.715223
0.715241
0.715256
0.715268
0.715278
0.715284
0.715287
0.715288
0.715286
0.715283
0.715277
0.71527
0.715262
0.715254
0.715244
0.715235
0.715224
0.715214
0.715203
0.715193
0.715182
0.715172
0.715161
0.71515
0.71514
0.715129
0.715119
0.715108
0.715098
0.715087
0.715077
0.715066
0.715056
0.715045
0.715035
0.715025
0.715014
0.715004
0.714993
0.714983
0.714972
0.714962
0.714951
0.714941
0.71493
0.71492
0.714909
0.714899
0.714888
0.714878
0.714867
0.714857
0.714847
0.714836
0.714826
0.714815
0.714805
0.714794
0.714784
0.714773
0.714763
0.714752
0.714742
0.714731
0.714721
0.71471
0.7147
0.714689
0.714679
0.714668
0.714658
0.714647
0.714637
0.714627
0.714616
0.714606
0.714595
0.714585
0.714574
0.714564
0.714553
0.714543
0.714532
0.714522
0.714511
0.714501
0.71449
0.71448
0.714469
0.714459
0.714448
0.714438
0.714427
0.714417
0.714406
0.714396
0.714386
0.714375
0.714365
0.714354
0.714344
0.714333
0.714323
0.714312
0.714302
0.714291
0.713159
0.713103
0.71304
0.712972
0.712899
0.71282
0.712732
0.712611
0.713166
0.713119
0.713056
0.712987
0.712913
0.712834
0.712742
0.712644
0.713171
0.713131
0.713073
0.713007
0.712938
0.712866
0.712794
0.712723
0.713181
0.713147
0.713094
0.713033
0.712969
0.712904
0.712841
0.712783
0.713194
0.713163
0.713113
0.713057
0.712998
0.712941
0.712888
0.71284
0.71321
0.713177
0.713129
0.713075
0.713022
0.71297
0.712923
0.712882
0.713225
0.713188
0.713139
0.713087
0.713036
0.712989
0.712946
0.712908
0.713234
0.713187
0.713137
0.713087
0.71304
0.712995
0.712953
0.712915
0.712546
0.712566
0.712586
0.712598
0.712605
0.712608
0.71261
0.712612
0.712613
0.712614
0.712615
0.712617
0.712619
0.712622
0.712626
0.712632
0.712639
0.71265
0.712663
0.71268
0.712702
0.712728
0.71276
0.712797
0.712841
0.71289
0.712944
0.713005
0.71307
0.71314
0.713214
0.713291
0.71337
0.71345
0.713529
0.713608
0.713683
0.713755
0.713823
0.713884
0.713939
0.713987
0.714028
0.714061
0.714087
0.714107
0.71412
0.714129
0.714134
0.714136
0.714136
0.714136
0.714136
0.714138
0.714142
0.714149
0.71416
0.714174
0.714192
0.714214
0.71424
0.71427
0.714305
0.714342
0.714383
0.714427
0.714472
0.714519
0.714566
0.714613
0.71466
0.714705
0.714747
0.714787
0.714825
0.714859
0.714889
0.714917
0.714942
0.714964
0.714985
0.715004
0.715022
0.71504
0.715058
0.715076
0.715095
0.715113
0.715132
0.715152
0.71517
0.715189
0.715206
0.715222
0.715237
0.715249
0.71526
0.715268
0.715274
0.715277
0.715279
0.715278
0.715276
0.715272
0.715267
0.715261
0.715254
0.715246
0.715238
0.715229
0.71522
0.715211
0.715201
0.715191
0.715181
0.715171
0.715161
0.715151
0.71514
0.71513
0.715119
0.715109
0.715098
0.715088
0.715077
0.715067
0.715056
0.715046
0.715035
0.715025
0.715014
0.715004
0.714993
0.714983
0.714972
0.714962
0.714951
0.714941
0.71493
0.71492
0.714909
0.714899
0.714888
0.714878
0.714867
0.714857
0.714847
0.714836
0.714826
0.714815
0.714805
0.714794
0.714784
0.714773
0.714763
0.714752
0.714742
0.714731
0.714721
0.71471
0.7147
0.714689
0.714679
0.714668
0.714658
0.714647
0.714637
0.714627
0.714616
0.714606
0.714595
0.714585
0.714574
0.714564
0.714553
0.714543
0.714532
0.714522
0.714511
0.714501
0.71449
0.71448
0.714469
0.714459
0.714448
0.714438
0.714427
0.714417
0.714406
0.714396
0.714386
0.714375
0.714365
0.714354
0.714344
0.714333
0.714323
0.714312
0.714302
0.714291
0.71257
0.712579
0.712592
0.712605
0.712613
0.712619
0.712623
0.712626
0.712628
0.712631
0.712634
0.712638
0.712643
0.712649
0.712657
0.712667
0.712679
0.712694
0.712713
0.712736
0.712763
0.712795
0.712832
0.712874
0.712922
0.712974
0.713032
0.713094
0.71316
0.71323
0.713301
0.713375
0.713448
0.713521
0.713593
0.713661
0.713724
0.713783
0.713837
0.713884
0.713924
0.713957
0.713984
0.714005
0.71402
0.71403
0.714037
0.714041
0.714043
0.714045
0.714047
0.714049
0.714053
0.714058
0.714066
0.714076
0.71409
0.714107
0.714128
0.714154
0.714183
0.714217
0.714254
0.714296
0.71434
0.714388
0.714438
0.71449
0.714543
0.714597
0.71465
0.714702
0.714752
0.7148
0.714845
0.714887
0.714925
0.71496
0.714991
0.715019
0.715044
0.715066
0.715086
0.715105
0.715122
0.715138
0.715153
0.715168
0.715182
0.715195
0.715208
0.715221
0.715232
0.715242
0.715251
0.715258
0.715264
0.715268
0.71527
0.715272
0.715271
0.715269
0.715267
0.715263
0.715258
0.715252
0.715246
0.715239
0.715232
0.715224
0.715216
0.715208
0.715199
0.71519
0.71518
0.715171
0.715161
0.715151
0.715141
0.71513
0.71512
0.71511
0.715099
0.715088
0.715078
0.715067
0.715057
0.715046
0.715036
0.715025
0.715014
0.715004
0.714993
0.714983
0.714972
0.714962
0.714951
0.714941
0.71493
0.71492
0.714909
0.714899
0.714888
0.714878
0.714867
0.714857
0.714847
0.714836
0.714826
0.714815
0.714805
0.714794
0.714784
0.714773
0.714763
0.714752
0.714742
0.714731
0.714721
0.71471
0.7147
0.714689
0.714679
0.714668
0.714658
0.714647
0.714637
0.714627
0.714616
0.714606
0.714595
0.714585
0.714574
0.714564
0.714553
0.714543
0.714532
0.714522
0.714511
0.714501
0.71449
0.71448
0.714469
0.714459
0.714448
0.714438
0.714427
0.714417
0.714406
0.714396
0.714386
0.714375
0.714365
0.714354
0.714344
0.714333
0.714323
0.714312
0.714302
0.714291
0.71267
0.712645
0.71264
0.71264
0.712643
0.712645
0.712648
0.712651
0.712655
0.712659
0.712665
0.712672
0.71268
0.712691
0.712703
0.712719
0.712737
0.712758
0.712784
0.712813
0.712847
0.712886
0.71293
0.712978
0.71303
0.713087
0.713147
0.713211
0.713276
0.713343
0.71341
0.713478
0.713544
0.713607
0.713666
0.713721
0.713771
0.713814
0.713852
0.713883
0.713909
0.71393
0.713946
0.713959
0.713969
0.713978
0.713984
0.713989
0.713994
0.713998
0.714002
0.714008
0.714014
0.714022
0.714032
0.714045
0.71406
0.714078
0.714101
0.714127
0.714158
0.714192
0.714231
0.714274
0.714321
0.714371
0.714424
0.714479
0.714536
0.714593
0.71465
0.714707
0.714762
0.714815
0.714866
0.714913
0.714956
0.714996
0.715032
0.715064
0.715093
0.715118
0.715139
0.715158
0.715175
0.715189
0.715202
0.715213
0.715223
0.715232
0.71524
0.715247
0.715253
0.715258
0.715262
0.715265
0.715267
0.715267
0.715267
0.715266
0.715265
0.715262
0.715259
0.715255
0.71525
0.715245
0.71524
0.715234
0.715227
0.71522
0.715213
0.715205
0.715197
0.715189
0.71518
0.71517
0.715161
0.715151
0.715141
0.715131
0.715121
0.71511
0.7151
0.715089
0.715078
0.715068
0.715057
0.715046
0.715036
0.715025
0.715015
0.715004
0.714993
0.714983
0.714972
0.714962
0.714951
0.714941
0.71493
0.71492
0.714909
0.714899
0.714888
0.714878
0.714867
0.714857
0.714847
0.714836
0.714826
0.714815
0.714805
0.714794
0.714784
0.714773
0.714763
0.714752
0.714742
0.714731
0.714721
0.71471
0.7147
0.714689
0.714679
0.714668
0.714658
0.714647
0.714637
0.714627
0.714616
0.714606
0.714595
0.714585
0.714574
0.714564
0.714553
0.714543
0.714532
0.714522
0.714511
0.714501
0.71449
0.71448
0.714469
0.714459
0.714448
0.714438
0.714427
0.714417
0.714406
0.714396
0.714386
0.714375
0.714365
0.714354
0.714344
0.714333
0.714323
0.714312
0.714302
0.714291
0.712736
0.712709
0.712695
0.712689
0.712686
0.712685
0.712686
0.712688
0.712692
0.712697
0.712705
0.712714
0.712726
0.712741
0.712759
0.71278
0.712804
0.712832
0.712865
0.712901
0.712942
0.712988
0.713037
0.713091
0.713148
0.713207
0.713269
0.713331
0.713394
0.713456
0.713516
0.713575
0.71363
0.71368
0.713725
0.713765
0.713799
0.713829
0.713855
0.713877
0.713896
0.713911
0.713923
0.713933
0.713942
0.71395
0.713958
0.713967
0.713975
0.713983
0.71399
0.713998
0.714005
0.714014
0.714024
0.714036
0.714052
0.71407
0.714093
0.714119
0.71415
0.714186
0.714225
0.714269
0.714317
0.714369
0.714423
0.71448
0.714538
0.714598
0.714658
0.714717
0.714775
0.714831
0.714885
0.714936
0.714982
0.715025
0.715064
0.715099
0.715129
0.715155
0.715178
0.715197
0.715213
0.715226
0.715237
0.715245
0.715252
0.715258
0.715262
0.715265
0.715267
0.715268
0.715269
0.715269
0.715268
0.715267
0.715265
0.715262
0.71526
0.715256
0.715253
0.715249
0.715245
0.71524
0.715235
0.71523
0.715224
0.715218
0.715211
0.715204
0.715196
0.715188
0.715179
0.71517
0.715161
0.715151
0.715141
0.715131
0.715121
0.715111
0.7151
0.715089
0.715079
0.715068
0.715057
0.715047
0.715036
0.715025
0.715015
0.715004
0.714993
0.714983
0.714972
0.714962
0.714951
0.714941
0.71493
0.71492
0.714909
0.714899
0.714888
0.714878
0.714867
0.714857
0.714847
0.714836
0.714826
0.714815
0.714805
0.714794
0.714784
0.714773
0.714763
0.714752
0.714742
0.714731
0.714721
0.71471
0.7147
0.714689
0.714679
0.714668
0.714658
0.714647
0.714637
0.714627
0.714616
0.714606
0.714595
0.714585
0.714574
0.714564
0.714553
0.714543
0.714532
0.714522
0.714511
0.714501
0.71449
0.71448
0.714469
0.714459
0.714448
0.714438
0.714427
0.714417
0.714406
0.714396
0.714386
0.714375
0.714365
0.714354
0.714344
0.714333
0.714323
0.714312
0.714302
0.714291
0.712802
0.712774
0.712755
0.712743
0.712736
0.712731
0.712729
0.712729
0.712732
0.712737
0.712746
0.712757
0.712772
0.712791
0.712813
0.712839
0.712868
0.712903
0.712941
0.712983
0.71303
0.713081
0.713135
0.713192
0.71325
0.71331
0.71337
0.713428
0.713484
0.713537
0.713589
0.713637
0.713682
0.713723
0.713758
0.713788
0.713812
0.713832
0.713848
0.713861
0.713874
0.713888
0.713903
0.713919
0.713933
0.713946
0.713957
0.713966
0.713975
0.713982
0.713989
0.713996
0.714003
0.714012
0.714023
0.714036
0.714052
0.714071
0.714094
0.714121
0.714153
0.714188
0.714229
0.714273
0.714322
0.714374
0.714429
0.714486
0.714546
0.714606
0.714667
0.714728
0.714788
0.714845
0.7149
0.714952
0.715001
0.715045
0.715085
0.715121
0.715152
0.715179
0.715202
0.715221
0.715236
0.715248
0.715257
0.715264
0.715269
0.715273
0.715275
0.715275
0.715275
0.715274
0.715273
0.715271
0.715269
0.715266
0.715263
0.71526
0.715256
0.715253
0.715249
0.715245
0.715241
0.715237
0.715232
0.715227
0.715221
0.715216
0.715209
0.715202
0.715195
0.715187
0.715179
0.71517
0.715161
0.715151
0.715142
0.715132
0.715121
0.715111
0.7151
0.71509
0.715079
0.715068
0.715057
0.715047
0.715036
0.715025
0.715015
0.715004
0.714993
0.714983
0.714972
0.714962
0.714951
0.714941
0.71493
0.71492
0.714909
0.714899
0.714888
0.714878
0.714867
0.714857
0.714846
0.714836
0.714826
0.714815
0.714805
0.714794
0.714784
0.714773
0.714763
0.714752
0.714742
0.714731
0.714721
0.71471
0.7147
0.714689
0.714679
0.714668
0.714658
0.714647
0.714637
0.714627
0.714616
0.714606
0.714595
0.714585
0.714574
0.714564
0.714553
0.714543
0.714532
0.714522
0.714511
0.714501
0.71449
0.71448
0.714469
0.714459
0.714448
0.714438
0.714427
0.714417
0.714406
0.714396
0.714386
0.714375
0.714365
0.714354
0.714344
0.714333
0.714323
0.714312
0.714302
0.714291
0.712847
0.71282
0.712799
0.712783
0.712772
0.712764
0.712759
0.712757
0.71276
0.712765
0.712775
0.712788
0.712805
0.712826
0.712852
0.712881
0.712914
0.712952
0.712994
0.713039
0.713089
0.713141
0.713196
0.713254
0.713312
0.71337
0.713427
0.713481
0.713532
0.713579
0.713622
0.713661
0.713695
0.713723
0.713745
0.713766
0.713787
0.713809
0.713832
0.713854
0.713874
0.713892
0.713907
0.713921
0.713933
0.713943
0.713953
0.713962
0.713971
0.713979
0.713987
0.713996
0.714004
0.714014
0.714026
0.71404
0.714056
0.714076
0.7141
0.714128
0.71416
0.714196
0.714237
0.714282
0.71433
0.714383
0.714438
0.714496
0.714556
0.714617
0.714678
0.714739
0.714799
0.714857
0.714913
0.714965
0.715014
0.715058
0.715099
0.715134
0.715166
0.715192
0.715215
0.715233
0.715248
0.715259
0.715268
0.715274
0.715278
0.71528
0.715281
0.715281
0.715279
0.715277
0.715275
0.715272
0.715268
0.715265
0.715261
0.715258
0.715254
0.715251
0.715247
0.715243
0.715239
0.715235
0.71523
0.715225
0.71522
0.715215
0.715208
0.715202
0.715194
0.715187
0.715179
0.71517
0.715161
0.715151
0.715142
0.715132
0.715121
0.715111
0.7151
0.71509
0.715079
0.715068
0.715058
0.715047
0.715036
0.715025
0.715015
0.715004
0.714994
0.714983
0.714972
0.714962
0.714951
0.714941
0.71493
0.71492
0.714909
0.714899
0.714888
0.714878
0.714867
0.714857
0.714846
0.714836
0.714826
0.714815
0.714805
0.714794
0.714784
0.714773
0.714763
0.714752
0.714742
0.714731
0.714721
0.71471
0.7147
0.714689
0.714679
0.714668
0.714658
0.714647
0.714637
0.714627
0.714616
0.714606
0.714595
0.714585
0.714574
0.714564
0.714553
0.714543
0.714532
0.714522
0.714511
0.714501
0.71449
0.71448
0.714469
0.714459
0.714448
0.714438
0.714427
0.714417
0.714406
0.714396
0.714386
0.714375
0.714365
0.714354
0.714344
0.714333
0.714323
0.714312
0.714302
0.714291
0.712875
0.712847
0.712824
0.712806
0.712792
0.712781
0.712775
0.712773
0.712774
0.71278
0.712791
0.712805
0.712824
0.712847
0.712873
0.712905
0.71294
0.712979
0.713022
0.713068
0.713118
0.713171
0.713225
0.713281
0.713336
0.713389
0.713438
0.713482
0.713523
0.713562
0.7136
0.713639
0.713676
0.713711
0.713743
0.71377
0.713795
0.713816
0.713836
0.713854
0.713871
0.713886
0.713902
0.713916
0.713929
0.713941
0.713952
0.713961
0.71397
0.713979
0.713987
0.713996
0.714005
0.714016
0.714028
0.714043
0.71406
0.714081
0.714105
0.714133
0.714166
0.714203
0.714244
0.714289
0.714338
0.71439
0.714446
0.714504
0.714563
0.714624
0.714686
0.714746
0.714806
0.714864
0.714919
0.714971
0.71502
0.715064
0.715104
0.71514
0.715171
0.715197
0.715219
0.715238
0.715252
0.715263
0.715271
0.715277
0.715281
0.715282
0.715283
0.715282
0.71528
0.715278
0.715275
0.715271
0.715268
0.715264
0.715261
0.715257
0.715253
0.71525
0.715246
0.715242
0.715238
0.715234
0.71523
0.715225
0.71522
0.715214
0.715208
0.715201
0.715194
0.715186
0.715178
0.71517
0.715161
0.715151
0.715141
0.715131
0.715121
0.715111
0.7151
0.71509
0.715079
0.715068
0.715058
0.715047
0.715036
0.715025
0.715015
0.715004
0.714994
0.714983
0.714972
0.714962
0.714951
0.714941
0.71493
0.71492
0.714909
0.714899
0.714888
0.714878
0.714867
0.714857
0.714846
0.714836
0.714826
0.714815
0.714805
0.714794
0.714784
0.714773
0.714763
0.714752
0.714742
0.714731
0.714721
0.71471
0.7147
0.714689
0.714679
0.714668
0.714658
0.714647
0.714637
0.714627
0.714616
0.714606
0.714595
0.714585
0.714574
0.714564
0.714553
0.714543
0.714532
0.714522
0.714511
0.714501
0.71449
0.71448
0.714469
0.714459
0.714448
0.714438
0.714427
0.714417
0.714406
0.714396
0.714386
0.714375
0.714365
0.714354
0.714344
0.714333
0.714323
0.714312
0.714302
0.714291
0.712882
0.712852
0.712827
0.712807
0.712791
0.712779
0.712772
0.71277
0.712771
0.712778
0.712788
0.712802
0.712821
0.712843
0.71287
0.7129
0.712934
0.712972
0.713013
0.713058
0.713105
0.713155
0.713207
0.713261
0.713315
0.713368
0.71342
0.713469
0.713515
0.713559
0.713601
0.71364
0.713676
0.713708
0.713737
0.713762
0.713786
0.713808
0.71383
0.71385
0.713869
0.713886
0.713901
0.713915
0.713927
0.713939
0.713949
0.713959
0.713968
0.713976
0.713985
0.713994
0.714004
0.714015
0.714028
0.714043
0.714062
0.714083
0.714108
0.714137
0.714171
0.714208
0.71425
0.714295
0.714345
0.714398
0.714453
0.714511
0.714571
0.714632
0.714693
0.714754
0.714814
0.714871
0.714926
0.714978
0.715026
0.71507
0.715109
0.715144
0.715175
0.715201
0.715223
0.71524
0.715254
0.715265
0.715273
0.715278
0.715281
0.715283
0.715283
0.715282
0.71528
0.715277
0.715274
0.715271
0.715268
0.715264
0.71526
0.715257
0.715253
0.71525
0.715246
0.715242
0.715238
0.715234
0.71523
0.715225
0.71522
0.715214
0.715208
0.715201
0.715194
0.715186
0.715178
0.71517
0.715161
0.715151
0.715141
0.715131
0.715121
0.715111
0.7151
0.71509
0.715079
0.715068
0.715058
0.715047
0.715036
0.715025
0.715015
0.715004
0.714994
0.714983
0.714972
0.714962
0.714951
0.714941
0.71493
0.71492
0.714909
0.714899
0.714888
0.714878
0.714867
0.714857
0.714846
0.714836
0.714826
0.714815
0.714805
0.714794
0.714784
0.714773
0.714763
0.714752
0.714742
0.714731
0.714721
0.71471
0.7147
0.714689
0.714679
0.714668
0.714658
0.714647
0.714637
0.714627
0.714616
0.714606
0.714595
0.714585
0.714574
0.714564
0.714553
0.714543
0.714532
0.714522
0.714511
0.714501
0.71449
0.71448
0.714469
0.714459
0.714448
0.714438
0.714427
0.714417
0.714406
0.714396
0.714386
0.714375
0.714365
0.714354
0.714344
0.714333
0.714323
0.714312
0.714302
0.714291
)
;

boundaryField
{
    inlet
    {
        type            zeroGradient;
    }
    outlet
    {