/*--------------------------------*- C++ -*----------------------------------*\
| =========                 |                                                 |
| \\      /  F ield         | OpenFOAM: The Open Source CFD Toolbox           |
|  \\    /   O peration     | Version:  4.1                                   |
|   \\  /    A nd           | Web:      www.OpenFOAM.org                      |
|    \\/     M anipulation  |                                                 |
\*---------------------------------------------------------------------------*/
FoamFile
{
    version     2.0;
    format      ascii;
    class       volVectorField;
    location    "666";
    object      U;
}
// * * * * * * * * * * * * * * * * * * * * * * * * * * * * * * * * * * * * * //

dimensions      [0 1 -1 0 0 0 0];

internalField   nonuniform List<vector> 
3264
(
(-2.65534e-06 -4.84736e-07 0)
(-0.000133174 3.05611e-05 0)
(-0.000389809 4.86636e-05 0)
(-0.000677099 5.10014e-05 0)
(-0.00097908 5.27259e-05 0)
(-0.00128512 5.21296e-05 0)
(-0.0015899 5.34271e-05 0)
(-0.00189477 5.40664e-05 0)
(-0.00219512 5.51649e-05 0)
(-0.00249167 5.57836e-05 0)
(-0.00278184 5.63328e-05 0)
(-0.00306583 5.6568e-05 0)
(-0.00334255 5.66514e-05 0)
(-0.00361208 5.6545e-05 0)
(-0.00387409 5.63223e-05 0)
(-0.00412868 5.59958e-05 0)
(-0.00437583 5.56044e-05 0)
(-0.00461569 5.51672e-05 0)
(-0.00484835 5.47072e-05 0)
(-0.00507399 5.42398e-05 0)
(-0.00529274 5.37795e-05 0)
(-0.00550476 5.33369e-05 0)
(-0.00571017 5.29204e-05 0)
(-0.00590908 5.2536e-05 0)
(-0.00610158 5.2187e-05 0)
(-0.00628768 5.18739e-05 0)
(-0.00646739 5.15943e-05 0)
(-0.00664063 5.13423e-05 0)
(-0.00680724 5.11083e-05 0)
(-0.00696703 5.08783e-05 0)
(-0.00711966 5.06338e-05 0)
(-0.00726473 5.03515e-05 0)
(-0.00740172 5.00028e-05 0)
(-0.00753001 4.9554e-05 0)
(-0.00764883 4.89666e-05 0)
(-0.00775731 4.81976e-05 0)
(-0.00785447 4.72002e-05 0)
(-0.00793918 4.59248e-05 0)
(-0.00801022 4.43205e-05 0)
(-0.00806628 4.23364e-05 0)
(-0.00810596 3.99235e-05 0)
(-0.00812779 3.70369e-05 0)
(-0.00813028 3.3637e-05 0)
(-0.00811191 2.96924e-05 0)
(-0.00807121 2.5181e-05 0)
(-0.00800673 2.00921e-05 0)
(-0.00791713 1.44274e-05 0)
(-0.00780117 8.2022e-06 0)
(-0.00765778 1.44574e-06 0)
(-0.00748607 -5.79855e-06 0)
(-0.00728534 -1.34735e-05 0)
(-0.00705515 -2.15088e-05 0)
(-0.00679532 -2.98226e-05 0)
(-0.00650594 -3.83227e-05 0)
(-0.00618738 -4.69086e-05 0)
(-0.00584031 -5.54734e-05 0)
(-0.00546573 -6.39067e-05 0)
(-0.00506488 -7.20962e-05 0)
(-0.00463933 -7.99309e-05 0)
(-0.00419091 -8.73034e-05 0)
(-0.00372171 -9.4112e-05 0)
(-0.00323404 -0.000100263 0)
(-0.00273043 -0.000105674 0)
(-0.00221356 -0.000110274 0)
(-0.00168628 -0.000114006 0)
(-0.00115153 -0.000116827 0)
(-0.000612304 -0.000118711 0)
(-7.16375e-05 -0.000119649 0)
(0.000467456 -0.000119647 0)
(0.00100202 -0.000118728 0)
(0.00152918 -0.00011693 0)
(0.00204622 -0.000114306 0)
(0.00255055 -0.000110921 0)
(0.0030398 -0.000106852 0)
(0.00351183 -0.000102185 0)
(0.00396472 -9.70103e-05 0)
(0.00439683 -9.14255e-05 0)
(0.00480678 -8.55286e-05 0)
(0.00519349 -7.94172e-05 0)
(0.00555615 -7.31863e-05 0)
(0.00589422 -6.69259e-05 0)
(0.00620746 -6.07195e-05 0)
(0.00649584 -5.46425e-05 0)
(0.00675962 -4.87612e-05 0)
(0.00699923 -4.31319e-05 0)
(0.00721533 -3.78008e-05 0)
(0.00740873 -3.28036e-05 0)
(0.00758041 -2.81661e-05 0)
(0.00773143 -2.39047e-05 0)
(0.00786298 -2.00269e-05 0)
(0.0079763 -1.65327e-05 0)
(0.00807268 -1.34155e-05 0)
(0.00815342 -1.06628e-05 0)
(0.00821984 -8.25808e-06 0)
(0.00827325 -6.18109e-06 0)
(0.0083149 -4.40933e-06 0)
(0.00834603 -2.91879e-06 0)
(0.00836781 -1.68471e-06 0)
(0.00838137 -6.82292e-07 0)
(0.00838775 1.12786e-07 0)
(0.00838794 7.23963e-07 0)
(0.00838284 1.17348e-06 0)
(0.00837329 1.48216e-06 0)
(0.00836007 1.66928e-06 0)
(0.00834386 1.75252e-06 0)
(0.00832529 1.74795e-06 0)
(0.00830492 1.67006e-06 0)
(0.00828325 1.5318e-06 0)
(0.00826072 1.34473e-06 0)
(0.00823771 1.11904e-06 0)
(0.00821455 8.63709e-07 0)
(0.00819154 5.86579e-07 0)
(0.0081689 2.94469e-07 0)
(0.00814685 -6.72885e-09 0)
(0.00812556 -3.11959e-07 0)
(0.00810515 -6.16912e-07 0)
(0.00808574 -9.1795e-07 0)
(0.00806741 -1.21203e-06 0)
(0.00805022 -1.49665e-06 0)
(0.0080342 -1.76975e-06 0)
(0.00801938 -2.02974e-06 0)
(0.00800576 -2.27534e-06 0)
(0.00799335 -2.50563e-06 0)
(0.00798211 -2.71998e-06 0)
(0.00797203 -2.91798e-06 0)
(0.00796308 -3.09946e-06 0)
(0.0079552 -3.26442e-06 0)
(0.00794837 -3.41304e-06 0)
(0.00794253 -3.54562e-06 0)
(0.00793762 -3.66259e-06 0)
(0.00793361 -3.76446e-06 0)
(0.00793044 -3.85184e-06 0)
(0.00792805 -3.92538e-06 0)
(0.00792639 -3.98581e-06 0)
(0.00792542 -4.03386e-06 0)
(0.00792508 -4.07033e-06 0)
(0.00792532 -4.096e-06 0)
(0.00792611 -4.11168e-06 0)
(0.00792739 -4.11818e-06 0)
(0.00792913 -4.1163e-06 0)
(0.0079313 -4.10683e-06 0)
(0.00793385 -4.09055e-06 0)
(0.00793676 -4.0682e-06 0)
(0.00794 -4.04053e-06 0)
(0.00794355 -4.00824e-06 0)
(0.00794738 -3.97201e-06 0)
(0.00795148 -3.93247e-06 0)
(0.00795583 -3.89026e-06 0)
(0.00796042 -3.84594e-06 0)
(0.00796524 -3.80007e-06 0)
(0.00797028 -3.75316e-06 0)
(0.00797554 -3.7057e-06 0)
(0.00798103 -3.65811e-06 0)
(0.00798673 -3.61083e-06 0)
(0.00799265 -3.56421e-06 0)
(0.00799879 -3.51862e-06 0)
(0.00800517 -3.47436e-06 0)
(0.00801179 -3.43171e-06 0)
(0.00801866 -3.39093e-06 0)
(0.00802579 -3.35224e-06 0)
(0.0080332 -3.31583e-06 0)
(0.00804088 -3.28186e-06 0)
(0.00804887 -3.25048e-06 0)
(0.00805717 -3.22179e-06 0)
(0.00806579 -3.19588e-06 0)
(0.00807476 -3.17281e-06 0)
(0.00808408 -3.15262e-06 0)
(0.00809377 -3.13531e-06 0)
(0.00810385 -3.12086e-06 0)
(0.00811433 -3.10925e-06 0)
(0.00812522 -3.1004e-06 0)
(0.00813653 -3.09421e-06 0)
(0.00814828 -3.09057e-06 0)
(0.00816049 -3.08932e-06 0)
(0.00817315 -3.09029e-06 0)
(0.00818627 -3.09324e-06 0)
(0.00819988 -3.09792e-06 0)
(0.00821396 -3.10402e-06 0)
(0.00822853 -3.11119e-06 0)
(0.00824358 -3.11901e-06 0)
(0.00825912 -3.127e-06 0)
(0.00827514 -3.13459e-06 0)
(0.00829163 -3.14109e-06 0)
(0.0083086 -3.14572e-06 0)
(0.00832602 -3.14751e-06 0)
(0.00834387 -3.14533e-06 0)
(0.00836214 -3.13785e-06 0)
(0.0083808 -3.12341e-06 0)
(0.00839981 -3.10057e-06 0)
(0.00841913 -3.06587e-06 0)
(0.00843872 -3.023e-06 0)
(0.00845851 -2.95356e-06 0)
(0.00847841 -2.91022e-06 0)
(0.00849851 -2.76474e-06 0)
(0.00851813 -2.86372e-06 0)
(0.0085392 -2.56643e-06 0)
(0.00855636 -3.20774e-06 0)
(0.00858336 -3.48474e-06 0)
(0.00859147 -3.90681e-06 0)
(0.00863858 -1.4038e-05 0)
(-8.33727e-05 0.000136393 0)
(-0.000583023 0.000379262 0)
(-0.00131163 0.000518381 0)
(-0.00208648 0.000562531 0)
(-0.00286651 0.000583572 0)
(-0.00363486 0.000585372 0)
(-0.00437821 0.000585417 0)
(-0.00509947 0.000578844 0)
(-0.00579145 0.000570053 0)
(-0.00645638 0.000558037 0)
(-0.00709155 0.00054459 0)
(-0.00769844 0.000529901 0)
(-0.0082767 0.000514695 0)
(-0.00882748 0.000499212 0)
(-0.00935132 0.000483737 0)
(-0.0098492 0.000468401 0)
(-0.0103218 0.000453311 0)
(-0.0107701 0.000438518 0)
(-0.0111945 0.000424048 0)
(-0.0115959 0.000409902 0)
(-0.0119746 0.000396061 0)
(-0.012331 0.00038249 0)
(-0.0126656 0.000369139 0)
(-0.0129783 0.000355942 0)
(-0.0132693 0.000342817 0)
(-0.0135385 0.000329667 0)
(-0.0137856 0.000316377 0)
(-0.0140102 0.000302816 0)
(-0.0142117 0.000288833 0)
(-0.0143894 0.000274264 0)
(-0.0145424 0.000258927 0)
(-0.0146696 0.000242626 0)
(-0.0147699 0.000225156 0)
(-0.0148416 0.000206305 0)
(-0.0148834 0.000185858 0)
(-0.0148936 0.000163603 0)
(-0.0148703 0.000139339 0)
(-0.0148118 0.000112879 0)
(-0.0147159 8.40604e-05 0)
(-0.0145809 5.27508e-05 0)
(-0.0144048 1.8853e-05 0)
(-0.0141856 -1.76867e-05 0)
(-0.0139216 -5.68749e-05 0)
(-0.0136112 -9.86657e-05 0)
(-0.0132529 -0.000142959 0)
(-0.0128453 -0.000189597 0)
(-0.0123876 -0.000238367 0)
(-0.011879 -0.000289001 0)
(-0.0113191 -0.000341178 0)
(-0.0107079 -0.000394528 0)
(-0.0100456 -0.00044864 0)
(-0.00933288 -0.000503065 0)
(-0.00857093 -0.000557324 0)
(-0.00776115 -0.000610917 0)
(-0.00690541 -0.000663331 0)
(-0.00600597 -0.000714046 0)
(-0.00506544 -0.000762546 0)
(-0.0040868 -0.00080833 0)
(-0.00307338 -0.000850914 0)
(-0.00202881 -0.000889845 0)
(-0.000956983 -0.000924707 0)
(0.00013793 -0.000955125 0)
(0.00125156 -0.000980778 0)
(0.00237939 -0.0010014 0)
(0.00351674 -0.00101678 0)
(0.00465887 -0.00102678 0)
(0.00580102 -0.00103132 0)
(0.00693843 -0.00103041 0)
(0.00806639 -0.00102409 0)
(0.00918032 -0.0010125 0)
(0.0102758 -0.000995845 0)
(0.0113486 -0.00097437 0)
(0.0123946 -0.000948393 0)
(0.0134103 -0.000918279 0)
(0.0143922 -0.000884437 0)
(0.0153372 -0.000847312 0)
(0.0162426 -0.000807374 0)
(0.0171061 -0.000765115 0)
(0.0179258 -0.000721032 0)
(0.0187001 -0.000675626 0)
(0.019428 -0.000629387 0)
(0.0201087 -0.000582788 0)
(0.0207419 -0.000536281 0)
(0.0213275 -0.000490284 0)
(0.021866 -0.000445182 0)
(0.0223581 -0.000401316 0)
(0.0228047 -0.000358989 0)
(0.0232072 -0.000318455 0)
(0.023567 -0.000279925 0)
(0.0238858 -0.000243565 0)
(0.0241656 -0.000209497 0)
(0.0244083 -0.000177802 0)
(0.0246161 -0.000148521 0)
(0.0247911 -0.000121664 0)
(0.0249357 -9.72065e-05 0)
(0.025052 -7.50992e-05 0)
(0.0251423 -5.52691e-05 0)
(0.025209 -3.76246e-05 0)
(0.025254 -2.20594e-05 0)
(0.0252797 -8.45566e-06 0)
(0.0252879 3.312e-06 0)
(0.0252807 1.3374e-05 0)
(0.0252599 2.18628e-05 0)
(0.0252272 2.89108e-05 0)
(0.0251844 3.46486e-05 0)
(0.0251328 3.9203e-05 0)
(0.0250739 4.26959e-05 0)
(0.025009 4.52438e-05 0)
(0.0249393 4.69564e-05 0)
(0.0248658 4.79367e-05 0)
(0.0247895 4.82805e-05 0)
(0.0247112 4.80762e-05 0)
(0.0246318 4.7405e-05 0)
(0.0245518 4.63413e-05 0)
(0.0244719 4.49522e-05 0)
(0.0243925 4.32984e-05 0)
(0.0243142 4.14345e-05 0)
(0.0242372 3.94088e-05 0)
(0.0241619 3.72644e-05 0)
(0.0240885 3.50392e-05 0)
(0.0240173 3.27661e-05 0)
(0.0239483 3.04738e-05 0)
(0.0238817 2.81868e-05 0)
(0.0238176 2.59261e-05 0)
(0.023756 2.37091e-05 0)
(0.023697 2.15503e-05 0)
(0.0236405 1.94613e-05 0)
(0.0235865 1.74515e-05 0)
(0.023535 1.55276e-05 0)
(0.0234859 1.36948e-05 0)
(0.0234392 1.19562e-05 0)
(0.0233948 1.03134e-05 0)
(0.0233526 8.76676e-06 0)
(0.0233125 7.31531e-06 0)
(0.0232745 5.95711e-06 0)
(0.0232385 4.68931e-06 0)
(0.0232043 3.50831e-06 0)
(0.023172 2.40991e-06 0)
(0.0231414 1.38936e-06 0)
(0.0231124 4.41527e-07 0)
(0.023085 -4.39031e-07 0)
(0.0230591 -1.25799e-06 0)
(0.0230346 -2.02119e-06 0)
(0.0230115 -2.73452e-06 0)
(0.0229898 -3.40391e-06 0)
(0.0229693 -4.03524e-06 0)
(0.0229501 -4.6343e-06 0)
(0.0229322 -5.20675e-06 0)
(0.0229154 -5.75809e-06 0)
(0.0228998 -6.29359e-06 0)
(0.0228853 -6.81829e-06 0)
(0.022872 -7.337e-06 0)
(0.0228598 -7.85422e-06 0)
(0.0228488 -8.37417e-06 0)
(0.0228389 -8.90076e-06 0)
(0.0228302 -9.43758e-06 0)
(0.0228227 -9.98789e-06 0)
(0.0228164 -1.05546e-05 0)
(0.0228113 -1.11404e-05 0)
(0.0228075 -1.17475e-05 0)
(0.0228049 -1.23778e-05 0)
(0.0228036 -1.30329e-05 0)
(0.0228037 -1.37142e-05 0)
(0.0228052 -1.44226e-05 0)
(0.0228081 -1.51587e-05 0)
(0.0228124 -1.59228e-05 0)
(0.0228183 -1.67151e-05 0)
(0.0228256 -1.75351e-05 0)
(0.0228345 -1.83824e-05 0)
(0.022845 -1.92561e-05 0)
(0.0228571 -2.0155e-05 0)
(0.0228709 -2.10777e-05 0)
(0.0228863 -2.20224e-05 0)
(0.0229035 -2.29871e-05 0)
(0.0229224 -2.39696e-05 0)
(0.022943 -2.4967e-05 0)
(0.0229654 -2.59766e-05 0)
(0.0229896 -2.6995e-05 0)
(0.0230156 -2.80185e-05 0)
(0.0230433 -2.90431e-05 0)
(0.0230729 -3.00643e-05 0)
(0.0231042 -3.1077e-05 0)
(0.0231373 -3.20756e-05 0)
(0.0231721 -3.30537e-05 0)
(0.0232087 -3.40041e-05 0)
(0.0232469 -3.49186e-05 0)
(0.0232868 -3.57877e-05 0)
(0.0233282 -3.66006e-05 0)
(0.0233712 -3.73438e-05 0)
(0.0234156 -3.80036e-05 0)
(0.0234613 -3.85656e-05 0)
(0.0235081 -3.89925e-05 0)
(0.0235561 -3.93551e-05 0)
(0.0236049 -3.93446e-05 0)
(0.0236546 -3.98365e-05 0)
(0.0237046 -3.87327e-05 0)
(0.0237541 -4.06911e-05 0)
(0.0238071 -3.88339e-05 0)
(0.0238481 -3.99993e-05 0)
(0.0239178 -5.57791e-05 0)
(-0.000178883 0.000645103 0)
(-0.00104322 0.00125426 0)
(-0.00216821 0.00153329 0)
(-0.00330573 0.00157486 0)
(-0.00439438 0.0015702 0)
(-0.00542352 0.00152714 0)
(-0.0063775 0.0014838 0)
(-0.00726741 0.00143176 0)
(-0.00808985 0.00137887 0)
(-0.00885297 0.00132348 0)
(-0.00955815 0.00126813 0)
(-0.0102105 0.00121298 0)
(-0.0108125 0.00115887 0)
(-0.0113675 0.001106 0)
(-0.0118779 0.00105456 0)
(-0.0123458 0.00100458 0)
(-0.0127731 0.000956019 0)
(-0.0131613 0.000908791 0)
(-0.0135118 0.000862758 0)
(-0.0138256 0.00081776 0)
(-0.0141036 0.000773613 0)
(-0.0143462 0.000730112 0)
(-0.0145538 0.000687036 0)
(-0.0147267 0.000644142 0)
(-0.0148648 0.000601169 0)
(-0.014968 0.000557837 0)
(-0.0150358 0.000513845 0)
(-0.0150677 0.000468878 0)
(-0.0150629 0.000422601 0)
(-0.0150207 0.000374669 0)
(-0.0149399 0.000324728 0)
(-0.0148195 0.000272423 0)
(-0.0146582 0.000217401 0)
(-0.0144547 0.000159325 0)
(-0.0142075 9.7877e-05 0)
(-0.0139153 3.27705e-05 0)
(-0.0135765 -3.62403e-05 0)
(-0.0131897 -0.000109351 0)
(-0.0127536 -0.000186698 0)
(-0.0122669 -0.000268348 0)
(-0.0117284 -0.000354296 0)
(-0.011137 -0.000444451 0)
(-0.010492 -0.000538641 0)
(-0.00979263 -0.000636602 0)
(-0.00903863 -0.000737984 0)
(-0.00822985 -0.00084235 0)
(-0.00736648 -0.000949178 0)
(-0.00644901 -0.00105787 0)
(-0.00547826 -0.00116774 0)
(-0.00445537 -0.00127808 0)
(-0.00338184 -0.00138807 0)
(-0.00225953 -0.0014969 0)
(-0.00109061 -0.00160369 0)
(0.000122382 -0.00170757 0)
(0.00137658 -0.00180764 0)
(0.0026688 -0.00190302 0)
(0.00399555 -0.00199283 0)
(0.00535306 -0.00207625 0)
(0.00673729 -0.00215249 0)
(0.00814398 -0.0022208 0)
(0.00956866 -0.00228053 0)
(0.0110067 -0.00233109 0)
(0.0124533 -0.00237196 0)
(0.0139036 -0.00240276 0)
(0.0153527 -0.00242318 0)
(0.0167956 -0.00243303 0)
(0.0182275 -0.00243223 0)
(0.0196435 -0.00242082 0)
(0.021039 -0.00239895 0)
(0.0224092 -0.00236691 0)
(0.0237501 -0.00232506 0)
(0.0250573 -0.00227389 0)
(0.0263271 -0.00221398 0)
(0.027556 -0.002146 0)
(0.0287408 -0.0020707 0)
(0.0298786 -0.00198888 0)
(0.030967 -0.0019014 0)
(0.032004 -0.00180916 0)
(0.0329878 -0.00171305 0)
(0.0339172 -0.00161401 0)
(0.0347913 -0.00151294 0)
(0.0356096 -0.00141073 0)
(0.0363718 -0.00130823 0)
(0.0370783 -0.00120623 0)
(0.0377296 -0.00110551 0)
(0.0383265 -0.00100673 0)
(0.03887 -0.000910531 0)
(0.0393617 -0.000817446 0)
(0.039803 -0.000727951 0)
(0.0401957 -0.000642441 0)
(0.0405419 -0.000561237 0)
(0.0408436 -0.000484584 0)
(0.0411029 -0.000412661 0)
(0.0413222 -0.000345578 0)
(0.0415039 -0.000283386 0)
(0.0416503 -0.000226081 0)
(0.0417637 -0.000173607 0)
(0.0418467 -0.000125867 0)
(0.0419015 -8.27259e-05 0)
(0.0419304 -4.40161e-05 0)
(0.0419359 -9.54535e-06 0)
(0.0419199 2.08992e-05 0)
(0.0418847 4.75456e-05 0)
(0.0418322 7.06321e-05 0)
(0.0417645 9.04034e-05 0)
(0.0416833 0.000107107 0)
(0.0415904 0.000120988 0)
(0.0414874 0.00013229 0)
(0.0413758 0.00014125 0)
(0.0412569 0.000148096 0)
(0.0411322 0.000153047 0)
(0.0410027 0.000156311 0)
(0.0408695 0.000158086 0)
(0.0407337 0.000158555 0)
(0.040596 0.000157891 0)
(0.0404574 0.000156252 0)
(0.0403184 0.000153786 0)
(0.0401798 0.000150626 0)
(0.0400419 0.000146894 0)
(0.0399054 0.000142701 0)
(0.0397706 0.000138145 0)
(0.0396378 0.000133316 0)
(0.0395073 0.000128291 0)
(0.0393794 0.000123139 0)
(0.0392542 0.000117921 0)
(0.0391319 0.000112689 0)
(0.0390125 0.000107487 0)
(0.0388962 0.000102352 0)
(0.038783 9.73148e-05 0)
(0.0386729 9.24015e-05 0)
(0.0385659 8.76315e-05 0)
(0.038462 8.30199e-05 0)
(0.0383611 7.85776e-05 0)
(0.0382633 7.43115e-05 0)
(0.0381684 7.02251e-05 0)
(0.0380763 6.6319e-05 0)
(0.0379871 6.2591e-05 0)
(0.0379006 5.90369e-05 0)
(0.0378167 5.56503e-05 0)
(0.0377355 5.24231e-05 0)
(0.0376568 4.93459e-05 0)
(0.0375805 4.64083e-05 0)
(0.0375067 4.35988e-05 0)
(0.0374351 4.09054e-05 0)
(0.0373658 3.83154e-05 0)
(0.0372988 3.58159e-05 0)
(0.037234 3.3394e-05 0)
(0.0371713 3.10366e-05 0)
(0.0371107 2.87309e-05 0)
(0.0370522 2.64643e-05 0)
(0.0369959 2.42244e-05 0)
(0.0369416 2.19995e-05 0)
(0.0368893 1.97783e-05 0)
(0.0368392 1.75502e-05 0)
(0.0367912 1.53051e-05 0)
(0.0367453 1.30339e-05 0)
(0.0367015 1.07279e-05 0)
(0.03666 8.37951e-06 0)
(0.0366206 5.98174e-06 0)
(0.0365835 3.52855e-06 0)
(0.0365486 1.01471e-06 0)
(0.0365162 -1.56416e-06 0)
(0.036486 -4.21157e-06 0)
(0.0364584 -6.93018e-06 0)
(0.0364332 -9.7218e-06 0)
(0.0364105 -1.25874e-05 0)
(0.0363905 -1.55271e-05 0)
(0.0363731 -1.85402e-05 0)
(0.0363584 -2.16253e-05 0)
(0.0363464 -2.47801e-05 0)
(0.0363372 -2.80014e-05 0)
(0.0363309 -3.12855e-05 0)
(0.0363275 -3.46277e-05 0)
(0.036327 -3.80228e-05 0)
(0.0363295 -4.14645e-05 0)
(0.036335 -4.49461e-05 0)
(0.0363435 -4.84598e-05 0)
(0.036355 -5.19973e-05 0)
(0.0363696 -5.55493e-05 0)
(0.0363873 -5.91056e-05 0)
(0.0364081 -6.26551e-05 0)
(0.0364319 -6.61856e-05 0)
(0.0364588 -6.96839e-05 0)
(0.0364888 -7.31353e-05 0)
(0.0365217 -7.65233e-05 0)
(0.0365576 -7.98298e-05 0)
(0.0365964 -8.30342e-05 0)
(0.0366381 -8.61133e-05 0)
(0.0366825 -8.90389e-05 0)
(0.0367296 -9.17833e-05 0)
(0.0367793 -9.43023e-05 0)
(0.0368314 -9.65682e-05 0)
(0.0368858 -9.85233e-05 0)
(0.0369422 -0.000100066 0)
(0.0370005 -0.000101471 0)
(0.0370601 -0.000101536 0)
(0.0371214 -0.0001035 0)
(0.0371824 -0.000100689 0)
(0.0372414 -0.000102962 0)
(0.0373137 -0.00010817 0)
(-0.000305608 0.0012617 0)
(-0.00151655 0.00231531 0)
(-0.00287054 0.00272356 0)
(-0.00413772 0.00273365 0)
(-0.00523674 0.00266169 0)
(-0.00621675 0.00253251 0)
(-0.0070639 0.00240367 0)
(-0.00781179 0.00226872 0)
(-0.00846193 0.00213863 0)
(-0.00903104 0.00201193 0)
(-0.00952434 0.00189091 0)
(-0.00995078 0.00177516 0)
(-0.0103152 0.00166478 0)
(-0.0106228 0.00155931 0)
(-0.0108772 0.00145835 0)
(-0.0110817 0.00136139 0)
(-0.0112387 0.00126794 0)
(-0.0113503 0.0011775 0)
(-0.0114181 0.0010896 0)
(-0.0114432 0.00100377 0)
(-0.0114267 0.00091954 0)
(-0.0113691 0.000836466 0)
(-0.0112709 0.000754094 0)
(-0.0111322 0.000671974 0)
(-0.0109529 0.000589651 0)
(-0.0107329 0.000506669 0)
(-0.0104717 0.000422566 0)
(-0.010169 0.000336879 0)
(-0.00982398 0.000249145 0)
(-0.00943601 0.000158903 0)
(-0.00900425 6.57063e-05 0)
(-0.00852785 -3.08774e-05 0)
(-0.0080059 -0.000131254 0)
(-0.0074375 -0.000235793 0)
(-0.00682174 -0.000344822 0)
(-0.00615776 -0.00045861 0)
(-0.00544477 -0.000577362 0)
(-0.00468206 -0.000701207 0)
(-0.00386903 -0.000830189 0)
(-0.00300524 -0.000964256 0)
(-0.0020904 -0.00110326 0)
(-0.00112439 -0.00124695 0)
(-0.000107344 -0.00139495 0)
(0.000960425 -0.0015468 0)
(0.00207833 -0.00170191 0)
(0.00324555 -0.00185961 0)
(0.00446096 -0.00201909 0)
(0.00572319 -0.00217949 0)
(0.00703055 -0.00233985 0)
(0.00838108 -0.00249912 0)
(0.00977251 -0.00265622 0)
(0.0112023 -0.00281 0)
(0.0126676 -0.00295929 0)
(0.0141652 -0.0031029 0)
(0.0156919 -0.00323964 0)
(0.0172438 -0.00336832 0)
(0.0188172 -0.0034878 0)
(0.0204079 -0.00359698 0)
(0.0220116 -0.00369482 0)
(0.0236238 -0.00378037 0)
(0.0252398 -0.00385277 0)
(0.026855 -0.00391128 0)
(0.0284646 -0.00395526 0)
(0.0300637 -0.00398422 0)
(0.0316474 -0.00399782 0)
(0.0332111 -0.00399587 0)
(0.03475 -0.00397832 0)
(0.0362596 -0.00394532 0)
(0.0377356 -0.00389714 0)
(0.0391738 -0.00383423 0)
(0.0405704 -0.00375721 0)
(0.0419218 -0.00366681 0)
(0.0432247 -0.00356392 0)
(0.0444763 -0.00344954 0)
(0.0456741 -0.00332478 0)
(0.046816 -0.00319083 0)
(0.0479002 -0.00304894 0)
(0.0489254 -0.00290041 0)
(0.0498908 -0.00274657 0)
(0.0507958 -0.00258875 0)
(0.0516403 -0.00242824 0)
(0.0524244 -0.00226633 0)
(0.0531489 -0.00210423 0)
(0.0538145 -0.0019431 0)
(0.0544224 -0.00178399 0)
(0.0549739 -0.0016279 0)
(0.0554708 -0.00147571 0)
(0.0559148 -0.00132819 0)
(0.0563079 -0.00118602 0)
(0.0566522 -0.00104977 0)
(0.0569499 -0.000919894 0)
(0.0572033 -0.000796764 0)
(0.0574147 -0.000680643 0)
(0.0575866 -0.000571707 0)
(0.0577212 -0.00047005 0)
(0.0578211 -0.000375688 0)
(0.0578884 -0.000288569 0)
(0.0579256 -0.000208579 0)
(0.057935 -0.000135554 0)
(0.0579186 -6.92826e-05 0)
(0.0578787 -9.51739e-06 0)
(0.0578174 4.40204e-05 0)
(0.0577366 9.16334e-05 0)
(0.0576382 0.000133642 0)
(0.0575241 0.000170379 0)
(0.057396 0.000202185 0)
(0.0572555 0.000229402 0)
(0.0571042 0.000252373 0)
(0.0569434 0.000271436 0)
(0.0567746 0.000286921 0)
(0.056599 0.000299149 0)
(0.0564177 0.00030843 0)
(0.0562319 0.000315059 0)
(0.0560425 0.000319318 0)
(0.0558504 0.000321474 0)
(0.0556565 0.000321777 0)
(0.0554614 0.000320461 0)
(0.055266 0.000317743 0)
(0.0550707 0.000313824 0)
(0.054876 0.000308891 0)
(0.0546825 0.00030311 0)
(0.0544906 0.000296637 0)
(0.0543006 0.00028961 0)
(0.0541128 0.000282154 0)
(0.0539275 0.00027438 0)
(0.0537449 0.000266386 0)
(0.0535651 0.000258259 0)
(0.0533883 0.000250073 0)
(0.0532146 0.000241893 0)
(0.0530441 0.000233774 0)
(0.0528769 0.000225761 0)
(0.0527129 0.00021789 0)
(0.0525522 0.000210193 0)
(0.0523948 0.000202692 0)
(0.0522406 0.000195402 0)
(0.0520897 0.000188335 0)
(0.051942 0.000181497 0)
(0.0517975 0.000174888 0)
(0.0516561 0.000168506 0)
(0.0515178 0.000162344 0)
(0.0513825 0.000156394 0)
(0.0512501 0.000150643 0)
(0.0511207 0.000145078 0)
(0.0509942 0.000139683 0)
(0.0508706 0.000134441 0)
(0.0507497 0.000129334 0)
(0.0506316 0.000124343 0)
(0.0505162 0.000119448 0)
(0.0504036 0.000114631 0)
(0.0502937 0.000109871 0)
(0.0501865 0.00010515 0)
(0.050082 0.000100447 0)
(0.0499803 9.57465e-05 0)
(0.0498812 9.10291e-05 0)
(0.0497849 8.62785e-05 0)
(0.0496913 8.14792e-05 0)
(0.0496006 7.66165e-05 0)
(0.0495127 7.1677e-05 0)
(0.0494277 6.66486e-05 0)
(0.0493455 6.15206e-05 0)
(0.0492664 5.62834e-05 0)
(0.0491903 5.09291e-05 0)
(0.0491173 4.54511e-05 0)
(0.0490475 3.98443e-05 0)
(0.0489808 3.4105e-05 0)
(0.0489175 2.8231e-05 0)
(0.0488575 2.22216e-05 0)
(0.0488009 1.60774e-05 0)
(0.0487478 9.80067e-06 0)
(0.0486983 3.39491e-06 0)
(0.0486523 -3.1349e-06 0)
(0.04861 -9.78243e-06 0)
(0.0485715 -1.654e-05 0)
(0.0485368 -2.33985e-05 0)
(0.0485059 -3.03477e-05 0)
(0.0484788 -3.73758e-05 0)
(0.0484557 -4.44698e-05 0)
(0.0484366 -5.16154e-05 0)
(0.0484215 -5.87969e-05 0)
(0.0484103 -6.59971e-05 0)
(0.0484032 -7.31976e-05 0)
(0.0484002 -8.03781e-05 0)
(0.0484011 -8.75167e-05 0)
(0.0484061 -9.45897e-05 0)
(0.048415 -0.000101571 0)
(0.048428 -0.000108432 0)
(0.0484448 -0.00011514 0)
(0.0484655 -0.00012166 0)
(0.0484901 -0.000127952 0)
(0.0485183 -0.000133967 0)
(0.0485501 -0.000139654 0)
(0.0485854 -0.000144944 0)
(0.0486241 -0.000149768 0)
(0.048666 -0.000154016 0)
(0.0487107 -0.000157645 0)
(0.0487582 -0.000160235 0)
(0.0488079 -0.000162742 0)
(0.0488585 -0.00016157 0)
(0.0489108 -0.000164418 0)
(0.0489685 -0.000158776 0)
(-0.000405042 0.00246922 0)
(-0.00171903 0.00379591 0)
(-0.00298711 0.00414077 0)
(-0.00404999 0.00388948 0)
(-0.00482682 0.00361636 0)
(-0.00542849 0.00331384 0)
(-0.00585191 0.00304986 0)
(-0.00615662 0.00280334 0)
(-0.00635183 0.00257932 0)
(-0.00646366 0.00237154 0)
(-0.00650056 0.00217883 0)
(-0.00647446 0.00199867 0)
(-0.00639112 0.00182944 0)
(-0.00625655 0.00166955 0)
(-0.00607442 0.00151761 0)
(-0.005848 0.00137243 0)
(-0.00557952 0.00123292 0)
(-0.00527081 0.00109811 0)
(-0.00492316 0.000967122 0)
(-0.00453752 0.000839156 0)
(-0.00411453 0.000713462 0)
(-0.00365456 0.000589341 0)
(-0.00315776 0.000466129 0)
(-0.0026241 0.000343189 0)
(-0.00205341 0.000219906 0)
(-0.00144535 9.56849e-05 0)
(-0.000799511 -3.0053e-05 0)
(-0.00011537 -0.000157868 0)
(0.000607645 -0.0002883 0)
(0.00137015 -0.000421865 0)
(0.0021728 -0.000559049 0)
(0.00301622 -0.000700298 0)
(0.00390103 -0.000846017 0)
(0.00482781 -0.000996551 0)
(0.00579708 -0.00115218 0)
(0.00680925 -0.00131312 0)
(0.00786465 -0.00147949 0)
(0.00896348 -0.00165131 0)
(0.0101058 -0.0018285 0)
(0.0112915 -0.00201089 0)
(0.0125202 -0.00219817 0)
(0.0137916 -0.00238992 0)
(0.0151048 -0.00258557 0)
(0.016459 -0.00278448 0)
(0.017853 -0.00298583 0)
(0.0192855 -0.00318873 0)
(0.0207547 -0.00339215 0)
(0.0222589 -0.00359498 0)
(0.0237957 -0.00379599 0)
(0.0253629 -0.00399389 0)
(0.0269577 -0.00418733 0)
(0.0285771 -0.00437491 0)
(0.0302181 -0.00455516 0)
(0.0318771 -0.00472665 0)
(0.0335504 -0.00488792 0)
(0.0352342 -0.00503753 0)
(0.0369245 -0.00517409 0)
(0.0386168 -0.00529629 0)
(0.0403069 -0.00540288 0)
(0.0419901 -0.00549273 0)
(0.0436619 -0.00556482 0)
(0.0453176 -0.00561828 0)
(0.0469524 -0.00565239 0)
(0.0485618 -0.00566663 0)
(0.0501412 -0.00566064 0)
(0.0516861 -0.00563427 0)
(0.0531922 -0.00558758 0)
(0.0546555 -0.00552082 0)
(0.0560721 -0.00543447 0)
(0.0574385 -0.00532922 0)
(0.0587517 -0.00520593 0)
(0.0600087 -0.00506567 0)
(0.0612071 -0.00490967 0)
(0.062345 -0.00473931 0)
(0.0634208 -0.0045561 0)
(0.0644333 -0.00436166 0)
(0.0653819 -0.00415766 0)
(0.0662661 -0.00394585 0)
(0.0670863 -0.00372796 0)
(0.0678428 -0.00350576 0)
(0.0685364 -0.00328093 0)
(0.0691685 -0.00305514 0)
(0.0697403 -0.00282996 0)
(0.0702536 -0.00260685 0)
(0.0707104 -0.00238718 0)
(0.0711128 -0.00217218 0)
(0.0714629 -0.00196295 0)
(0.0717633 -0.00176046 0)
(0.0720163 -0.00156553 0)
(0.0722244 -0.00137885 0)
(0.0723902 -0.00120098 0)
(0.0725162 -0.00103232 0)
(0.0726048 -0.000873202 0)
(0.0726587 -0.000723796 0)
(0.0726802 -0.000584193 0)
(0.0726717 -0.000454382 0)
(0.0726354 -0.000334271 0)
(0.0725737 -0.000223694 0)
(0.0724885 -0.00012242 0)
(0.072382 -3.01653e-05 0)
(0.0722561 5.33992e-05 0)
(0.0721127 0.000128638 0)
(0.0719535 0.000195945 0)
(0.0717802 0.000255733 0)
(0.0715943 0.000308432 0)
(0.0713973 0.000354477 0)
(0.0711906 0.000394308 0)
(0.0709754 0.000428365 0)
(0.0707531 0.00045708 0)
(0.0705246 0.000480878 0)
(0.0702911 0.000500172 0)
(0.0700535 0.000515361 0)
(0.0698127 0.000526828 0)
(0.0695694 0.000534941 0)
(0.0693245 0.000540046 0)
(0.0690786 0.000542473 0)
(0.0688323 0.00054253 0)
(0.0685861 0.000540507 0)
(0.0683406 0.000536673 0)
(0.0680962 0.000531277 0)
(0.0678533 0.000524549 0)
(0.0676122 0.0005167 0)
(0.0673733 0.000507922 0)
(0.0671367 0.000498389 0)
(0.0669028 0.000488258 0)
(0.0666716 0.000477671 0)
(0.0664434 0.000466752 0)
(0.0662183 0.000455611 0)
(0.0659964 0.000444346 0)
(0.0657777 0.000433038 0)
(0.0655624 0.00042176 0)
(0.0653504 0.000410572 0)
(0.0651418 0.000399522 0)
(0.0649365 0.000388651 0)
(0.0647347 0.000377989 0)
(0.0645362 0.00036756 0)
(0.064341 0.000357379 0)
(0.0641492 0.000347455 0)
(0.0639607 0.00033779 0)
(0.0637754 0.000328384 0)
(0.0635933 0.000319229 0)
(0.0634144 0.000310314 0)
(0.0632387 0.000301625 0)
(0.063066 0.000293146 0)
(0.0628964 0.000284855 0)
(0.0627299 0.000276733 0)
(0.0625663 0.000268755 0)
(0.0624058 0.000260897 0)
(0.0622482 0.000253135 0)
(0.0620936 0.000245443 0)
(0.061942 0.000237795 0)
(0.0617933 0.000230166 0)
(0.0616475 0.000222531 0)
(0.0615048 0.000214866 0)
(0.061365 0.000207148 0)
(0.0612283 0.000199354 0)
(0.0610946 0.000191464 0)
(0.060964 0.000183459 0)
(0.0608366 0.00017532 0)
(0.0607123 0.000167031 0)
(0.0605912 0.000158579 0)
(0.0604734 0.000149951 0)
(0.060359 0.000141137 0)
(0.060248 0.000132128 0)
(0.0601404 0.000122917 0)
(0.0600364 0.000113502 0)
(0.059936 0.000103879 0)
(0.0598393 9.40479e-05 0)
(0.0597463 8.40118e-05 0)
(0.0596571 7.37743e-05 0)
(0.0595719 6.33418e-05 0)
(0.0594906 5.27225e-05 0)
(0.0594133 4.19268e-05 0)
(0.0593401 3.09668e-05 0)
(0.0592711 1.9857e-05 0)
(0.0592063 8.61362e-06 0)
(0.0591457 -2.74521e-06 0)
(0.0590895 -1.41993e-05 0)
(0.0590376 -2.57266e-05 0)
(0.05899 -3.73029e-05 0)
(0.0589469 -4.89023e-05 0)
(0.0589082 -6.04964e-05 0)
(0.058874 -7.20548e-05 0)
(0.0588442 -8.35445e-05 0)
(0.0588189 -9.49298e-05 0)
(0.0587979 -0.000106172 0)
(0.0587814 -0.000117228 0)
(0.0587693 -0.000128051 0)
(0.0587614 -0.000138589 0)
(0.0587578 -0.00014878 0)
(0.0587584 -0.000158556 0)
(0.0587631 -0.000167832 0)
(0.0587718 -0.000176518 0)
(0.0587844 -0.000184461 0)
(0.0588006 -0.000191562 0)
(0.0588204 -0.000197481 0)
(0.0588434 -0.000202255 0)
(0.0588689 -0.000204132 0)
(0.0588975 -0.000207434 0)
(0.0589297 -0.000195946 0)
(-0.000693584 0.00309393 0)
(-0.00209177 0.00472211 0)
(-0.00255494 0.00495113 0)
(-0.00279338 0.00450408 0)
(-0.00262898 0.00403163 0)
(-0.00238087 0.0035649 0)
(-0.00198719 0.00316085 0)
(-0.00153233 0.00280275 0)
(-0.00100747 0.00248616 0)
(-0.000438077 0.00220246 0)
(0.000173994 0.00194508 0)
(0.000819542 0.00170921 0)
(0.00149609 0.00149054 0)
(0.00219987 0.00128604 0)
(0.00292932 0.00109302 0)
(0.00368285 0.000909419 0)
(0.00445973 0.000733441 0)
(0.00525941 0.000563608 0)
(0.00608172 0.00039862 0)
(0.00692668 0.000237347 0)
(0.0077945 7.87737e-05 0)
(0.00868553 -7.80171e-05 0)
(0.00960024 -0.000233869 0)
(0.0105392 -0.000389565 0)
(0.011503 -0.000545837 0)
(0.0124924 -0.000703373 0)
(0.013508 -0.000862821 0)
(0.0145506 -0.00102479 0)
(0.015621 -0.00118985 0)
(0.0167198 -0.00135853 0)
(0.0178477 -0.00153131 0)
(0.0190053 -0.00170861 0)
(0.0201933 -0.00189079 0)
(0.021412 -0.00207814 0)
(0.0226619 -0.00227088 0)
(0.0239431 -0.00246912 0)
(0.0252558 -0.0026729 0)
(0.0266 -0.00288212 0)
(0.0279754 -0.00309658 0)
(0.0293816 -0.00331596 0)
(0.0308181 -0.00353982 0)
(0.032284 -0.00376756 0)
(0.0337784 -0.00399847 0)
(0.0353 -0.00423169 0)
(0.0368474 -0.00446625 0)
(0.0384189 -0.00470103 0)
(0.0400124 -0.0049348 0)
(0.0416259 -0.00516622 0)
(0.0432569 -0.00539385 0)
(0.0449027 -0.00561617 0)
(0.0465603 -0.00583157 0)
(0.0482266 -0.0060384 0)
(0.0498982 -0.00623499 0)
(0.0515715 -0.00641962 0)
(0.0532425 -0.00659061 0)
(0.0549074 -0.00674631 0)
(0.056562 -0.0068851 0)
(0.0582019 -0.00700546 0)
(0.0598227 -0.00710599 0)
(0.0614201 -0.00718539 0)
(0.0629895 -0.00724254 0)
(0.0645266 -0.00727649 0)
(0.0660268 -0.0072865 0)
(0.067486 -0.00727203 0)
(0.0689002 -0.00723279 0)
(0.0702654 -0.00716875 0)
(0.0715781 -0.00708011 0)
(0.0728352 -0.00696737 0)
(0.0740336 -0.00683124 0)
(0.075171 -0.00667273 0)
(0.0762453 -0.00649307 0)
(0.0772549 -0.0062937 0)
(0.0781989 -0.00607627 0)
(0.0790764 -0.00584262 0)
(0.0798875 -0.00559469 0)
(0.0806323 -0.00533457 0)
(0.0813116 -0.00506439 0)
(0.0819266 -0.00478632 0)
(0.0824787 -0.00450254 0)
(0.0829696 -0.0042152 0)
(0.0834016 -0.00392635 0)
(0.0837768 -0.00363799 0)
(0.0840978 -0.00335196 0)
(0.0843672 -0.00306999 0)
(0.0845878 -0.00279364 0)
(0.0847622 -0.00252432 0)
(0.0848932 -0.00226325 0)
(0.0849837 -0.0020115 0)
(0.0850365 -0.00176994 0)
(0.085054 -0.00153929 0)
(0.085039 -0.00132011 0)
(0.084994 -0.0011128 0)