/*--------------------------------*- C++ -*----------------------------------*\
| =========                 |                                                 |
| \\      /  F ield         | OpenFOAM: The Open Source CFD Toolbox           |
|  \\    /   O peration     | Version:  4.1                                   |
|   \\  /    A nd           | Web:      www.OpenFOAM.org                      |
|    \\/     M anipulation  |                                                 |
\*---------------------------------------------------------------------------*/
FoamFile
{
    version     2.0;
    format      ascii;
    class       volVectorField;
    location    "593";
    object      U;
}
// * * * * * * * * * * * * * * * * * * * * * * * * * * * * * * * * * * * * * //

dimensions      [0 1 -1 0 0 0 0];

internalField   nonuniform List<vector> 
3264
(
(-2.64607e-06 -4.92237e-07 0)
(-0.000133148 3.05536e-05 0)
(-0.000389783 4.86571e-05 0)
(-0.000677098 5.09947e-05 0)
(-0.000979133 5.27201e-05 0)
(-0.00128527 5.21254e-05 0)
(-0.00159019 5.34262e-05 0)
(-0.00189526 5.40706e-05 0)
(-0.00219589 5.51764e-05 0)
(-0.0024928 5.58054e-05 0)
(-0.00278344 5.63683e-05 0)
(-0.00306803 5.66214e-05 0)
(-0.0033455 5.67281e-05 0)
(-0.00361597 5.66517e-05 0)
(-0.00387914 5.64671e-05 0)
(-0.00413515 5.61889e-05 0)
(-0.00438402 5.58583e-05 0)
(-0.00462597 5.54971e-05 0)
(-0.00486114 5.51314e-05 0)
(-0.00508977 5.47802e-05 0)
(-0.00531208 5.44614e-05 0)
(-0.00552827 5.41895e-05 0)
(-0.00573856 5.39769e-05 0)
(-0.00594313 5.38329e-05 0)
(-0.00614211 5.37637e-05 0)
(-0.00633561 5.37722e-05 0)
(-0.00652364 5.38566e-05 0)
(-0.00670615 5.40102e-05 0)
(-0.006883 5.42204e-05 0)
(-0.00705392 5.44679e-05 0)
(-0.00721852 5.47258e-05 0)
(-0.00737626 5.49593e-05 0)
(-0.00752646 5.51251e-05 0)
(-0.00766825 5.51715e-05 0)
(-0.00780058 5.50392e-05 0)
(-0.00792225 5.46615e-05 0)
(-0.00803186 5.39663e-05 0)
(-0.00812784 5.28779e-05 0)
(-0.00820849 5.13193e-05 0)
(-0.00827195 4.92152e-05 0)
(-0.00831628 4.64947e-05 0)
(-0.00833946 4.30951e-05 0)
(-0.00833944 3.89647e-05 0)
(-0.00831418 3.40654e-05 0)
(-0.00826169 2.83761e-05 0)
(-0.00818012 2.1894e-05 0)
(-0.00806774 1.46361e-05 0)
(-0.00792303 6.64039e-06 0)
(-0.00774472 -2.03464e-06 0)
(-0.00753182 -1.13105e-05 0)
(-0.00728367 -2.10901e-05 0)
(-0.00699994 -3.12598e-05 0)
(-0.0066807 -4.16916e-05 0)
(-0.00632636 -5.22463e-05 0)
(-0.00593779 -6.27767e-05 0)
(-0.0055162 -7.31308e-05 0)
(-0.00506322 -8.31554e-05 0)
(-0.00458085 -9.26997e-05 0)
(-0.00407145 -0.000101619 0)
(-0.00353771 -0.000109777 0)
(-0.00298262 -0.000117052 0)
(-0.00240942 -0.000123334 0)
(-0.00182158 -0.000128533 0)
(-0.00122274 -0.00013258 0)
(-0.000616646 -0.000135424 0)
(-7.13253e-06 -0.00013704 0)
(0.000601966 -0.000137424 0)
(0.00120685 -0.000136596 0)
(0.00180381 -0.000134598 0)
(0.0023893 -0.000131494 0)
(0.00295994 -0.000127367 0)
(0.00351261 -0.000122315 0)
(0.00404448 -0.000116454 0)
(0.00455299 -0.000109908 0)
(0.00503598 -0.000102809 0)
(0.00549161 -9.5293e-05 0)
(0.00591842 -8.7496e-05 0)
(0.00631534 -7.95509e-05 0)
(0.00668168 -7.15838e-05 0)
(0.00701709 -6.37116e-05 0)
(0.0073216 -5.60392e-05 0)
(0.00759553 -4.86583e-05 0)
(0.00783951 -4.16459e-05 0)
(0.00805445 -3.50633e-05 0)
(0.00824147 -2.89568e-05 0)
(0.00840188 -2.33578e-05 0)
(0.00853716 -1.82837e-05 0)
(0.0086489 -1.37392e-05 0)
(0.00873876 -9.71818e-06 0)
(0.00880847 -6.20495e-06 0)
(0.00885978 -3.17639e-06 0)
(0.0088944 -6.036e-07 0)
(0.00891406 1.5464e-06 0)
(0.00892038 3.30915e-06 0)
(0.00891497 4.72136e-06 0)
(0.00889933 5.81985e-06 0)
(0.00887486 6.64054e-06 0)
(0.00884289 7.21782e-06 0)
(0.00880464 7.584e-06 0)
(0.00876123 7.76901e-06 0)
(0.00871367 7.8002e-06 0)
(0.00866289 7.70226e-06 0)
(0.0086097 7.49732e-06 0)
(0.00855486 7.20499e-06 0)
(0.00849899 6.84254e-06 0)
(0.00844267 6.42507e-06 0)
(0.0083864 5.96573e-06 0)
(0.0083306 5.47586e-06 0)
(0.00827564 4.96524e-06 0)
(0.00822181 4.44222e-06 0)
(0.00816937 3.91392e-06 0)
(0.00811854 3.38634e-06 0)
(0.00806947 2.86453e-06 0)
(0.00802229 2.35269e-06 0)
(0.00797711 1.85427e-06 0)
(0.00793399 1.37206e-06 0)
(0.00789298 9.08281e-07 0)
(0.00785409 4.64657e-07 0)
(0.00781735 4.24648e-08 0)
(0.00778272 -3.57401e-07 0)
(0.0077502 -7.3438e-07 0)
(0.00771975 -1.0882e-06 0)
(0.00769133 -1.41885e-06 0)
(0.00766489 -1.72652e-06 0)
(0.00764038 -2.01158e-06 0)
(0.00761774 -2.27458e-06 0)
(0.00759691 -2.51617e-06 0)
(0.00757783 -2.73712e-06 0)
(0.00756044 -2.93829e-06 0)
(0.00754468 -3.12058e-06 0)
(0.0075305 -3.28499e-06 0)
(0.00751783 -3.43251e-06 0)
(0.00750662 -3.56419e-06 0)
(0.00749682 -3.68107e-06 0)
(0.00748837 -3.78421e-06 0)
(0.00748124 -3.87466e-06 0)
(0.00747537 -3.95347e-06 0)
(0.00747072 -4.02166e-06 0)
(0.00746727 -4.08025e-06 0)
(0.00746497 -4.1302e-06 0)
(0.00746379 -4.17248e-06 0)
(0.00746371 -4.20801e-06 0)
(0.0074647 -4.23767e-06 0)
(0.00746674 -4.26232e-06 0)
(0.00746981 -4.28277e-06 0)
(0.0074739 -4.29979e-06 0)
(0.00747899 -4.31412e-06 0)
(0.00748508 -4.32645e-06 0)
(0.00749215 -4.33744e-06 0)
(0.00750019 -4.3477e-06 0)
(0.00750921 -4.3578e-06 0)
(0.0075192 -4.36827e-06 0)
(0.00753016 -4.37961e-06 0)
(0.00754208 -4.39225e-06 0)
(0.00755497 -4.40661e-06 0)
(0.00756882 -4.42305e-06 0)
(0.00758365 -4.4419e-06 0)
(0.00759945 -4.46345e-06 0)
(0.00761623 -4.48795e-06 0)
(0.00763398 -4.51559e-06 0)
(0.00765272 -4.54656e-06 0)
(0.00767243 -4.58098e-06 0)
(0.00769313 -4.61894e-06 0)
(0.00771481 -4.6605e-06 0)
(0.00773747 -4.70566e-06 0)
(0.00776112 -4.75441e-06 0)
(0.00778574 -4.80668e-06 0)
(0.00781134 -4.86237e-06 0)
(0.0078379 -4.92134e-06 0)
(0.00786542 -4.98343e-06 0)
(0.00789389 -5.04841e-06 0)
(0.00792329 -5.11604e-06 0)
(0.00795361 -5.18604e-06 0)
(0.00798483 -5.25809e-06 0)
(0.00801692 -5.33185e-06 0)
(0.00804987 -5.40694e-06 0)
(0.00808365 -5.48295e-06 0)
(0.00811822 -5.55945e-06 0)
(0.00815355 -5.63599e-06 0)
(0.0081896 -5.71208e-06 0)
(0.00822634 -5.78724e-06 0)
(0.00826371 -5.86094e-06 0)
(0.00830167 -5.93267e-06 0)
(0.00834016 -6.00188e-06 0)
(0.00837914 -6.06805e-06 0)
(0.00841854 -6.13066e-06 0)
(0.00845831 -6.18936e-06 0)
(0.00849839 -6.2437e-06 0)
(0.0085387 -6.2947e-06 0)
(0.00857919 -6.34053e-06 0)
(0.00861978 -6.39384e-06 0)
(0.00866046 -6.43002e-06 0)
(0.00870108 -6.55276e-06 0)
(0.008742 -6.54547e-06 0)
(0.00878205 -7.05551e-06 0)
(0.0088252 -6.90567e-06 0)
(0.00886131 -8.61844e-06 0)
(0.00891792 -9.71683e-06 0)
(0.00893717 -1.06375e-05 0)
(0.00903876 -3.16563e-05 0)
(-8.33829e-05 0.000136363 0)
(-0.000583106 0.00037925 0)
(-0.00131185 0.000518412 0)
(-0.0020869 0.000562618 0)
(-0.00286722 0.000583735 0)
(-0.00363597 0.000585626 0)
(-0.00437987 0.000585783 0)
(-0.00510183 0.000579344 0)
(-0.00579471 0.000570715 0)
(-0.00646074 0.000558894 0)
(-0.00709728 0.000545681 0)
(-0.00770582 0.000531272 0)
(-0.00828607 0.000516402 0)
(-0.00883922 0.000501317 0)
(-0.00936588 0.000486313 0)
(-0.00986706 0.000471531 0)
(-0.0103436 0.000457089 0)
(-0.0107962 0.000443047 0)
(-0.0112259 0.000429441 0)
(-0.0116331 0.000416278 0)
(-0.0120184 0.000403543 0)
(-0.0123823 0.000391202 0)
(-0.0127251 0.000379199 0)
(-0.0130469 0.000367456 0)
(-0.0133477 0.00035587 0)
(-0.0136273 0.000344314 0)
(-0.0138854 0.000332635 0)
(-0.0141212 0.000320648 0)
(-0.0143341 0.000308143 0)
(-0.0145229 0.000294882 0)
(-0.0146864 0.000280602 0)
(-0.014823 0.000265017 0)
(-0.014931 0.000247826 0)
(-0.0150083 0.000228719 0)
(-0.0150528 0.000207383 0)
(-0.0150621 0.000183515 0)
(-0.0150337 0.000156829 0)
(-0.014965 0.000127069 0)
(-0.0148534 9.40203e-05 0)
(-0.0146962 5.7517e-05 0)
(-0.0144907 1.7454e-05 0)
(-0.0142345 -2.62057e-05 0)
(-0.0139253 -7.34251e-05 0)
(-0.013561 -0.000124089 0)
(-0.0131397 -0.000178001 0)
(-0.0126601 -0.000234886 0)
(-0.0121209 -0.00029439 0)
(-0.0115215 -0.000356087 0)
(-0.0108616 -0.000419485 0)
(-0.0101416 -0.000484034 0)
(-0.00936213 -0.000549132 0)
(-0.00852444 -0.000614143 0)
(-0.00763031 -0.0006784 0)
(-0.00668198 -0.000741222 0)
(-0.00568222 -0.000801923 0)
(-0.00463426 -0.000859825 0)
(-0.00354181 -0.000914268 0)
(-0.00240898 -0.000964623 0)
(-0.0012403 -0.0010103 0)
(-4.06162e-05 -0.00105077 0)
(0.00118488 -0.00108555 0)
(0.00243076 -0.00111424 0)
(0.00369139 -0.0011365 0)
(0.00496098 -0.00115208 0)
(0.00623364 -0.00116083 0)
(0.00750349 -0.00116268 0)
(0.00876464 -0.00115764 0)
(0.0100113 -0.00114584 0)
(0.0112379 -0.00112748 0)
(0.012439 -0.00110284 0)
(0.0136095 -0.00107232 0)
(0.0147446 -0.00103635 0)
(0.0158399 -0.000995451 0)
(0.0168913 -0.000950196 0)
(0.0178954 -0.000901196 0)
(0.018849 -0.000849095 0)
(0.0197497 -0.000794557 0)
(0.0205953 -0.000738249 0)
(0.0213843 -0.00068083 0)
(0.0221158 -0.000622939 0)
(0.0227892 -0.000565186 0)
(0.0234045 -0.000508138 0)
(0.0239621 -0.000452313 0)
(0.024463 -0.000398174 0)
(0.0249084 -0.000346125 0)
(0.0253 -0.000296504 0)
(0.0256396 -0.000249587 0)
(0.0259294 -0.000205586 0)
(0.026172 -0.000164653 0)
(0.0263698 -0.00012688 0)
(0.0265257 -9.23069e-05 0)
(0.0266425 -6.0926e-05 0)
(0.0267231 -3.26868e-05 0)
(0.0267704 -7.50275e-06 0)
(0.0267872 1.47424e-05 0)
(0.0267765 3.41891e-05 0)
(0.026741 5.09957e-05 0)
(0.0266834 6.53335e-05 0)
(0.0266063 7.7382e-05 0)
(0.0265122 8.73246e-05 0)
(0.0264033 9.53448e-05 0)
(0.0262819 0.000101623 0)
(0.0261499 0.000106336 0)
(0.0260092 0.000109651 0)
(0.0258616 0.000111727 0)
(0.0257086 0.000112716 0)
(0.0255516 0.000112757 0)
(0.0253919 0.000111979 0)
(0.0252307 0.000110501 0)
(0.025069 0.000108431 0)
(0.0249076 0.000105866 0)
(0.0247473 0.000102894 0)
(0.0245888 9.95936e-05 0)
(0.0244328 9.60349e-05 0)
(0.0242796 9.22791e-05 0)
(0.0241298 8.838e-05 0)
(0.0239836 8.43845e-05 0)
(0.0238413 8.03328e-05 0)
(0.0237031 7.62596e-05 0)
(0.0235693 7.21941e-05 0)
(0.0234399 6.81607e-05 0)
(0.023315 6.41796e-05 0)
(0.0231947 6.02669e-05 0)
(0.0230791 5.64355e-05 0)
(0.022968 5.26953e-05 0)
(0.0228615 4.90534e-05 0)
(0.0227596 4.55145e-05 0)
(0.0226623 4.20815e-05 0)
(0.0225694 3.87552e-05 0)
(0.0224809 3.55353e-05 0)
(0.0223968 3.24199e-05 0)
(0.0223169 2.94063e-05 0)
(0.0222413 2.64906e-05 0)
(0.0221698 2.36686e-05 0)
(0.0221024 2.09352e-05 0)
(0.0220391 1.8285e-05 0)
(0.0219797 1.57125e-05 0)
(0.0219242 1.32117e-05 0)
(0.0218725 1.07768e-05 0)
(0.0218247 8.40176e-06 0)
(0.0217806 6.08078e-06 0)
(0.0217403 3.80811e-06 0)
(0.0217037 1.57819e-06 0)
(0.0216707 -6.14312e-07 0)
(0.0216414 -2.77447e-06 0)
(0.0216157 -4.90705e-06 0)
(0.0215936 -7.01653e-06 0)
(0.0215751 -9.10702e-06 0)
(0.0215602 -1.11823e-05 0)
(0.0215488 -1.32458e-05 0)
(0.0215411 -1.53005e-05 0)
(0.0215369 -1.73492e-05 0)
(0.0215362 -1.93941e-05 0)
(0.0215392 -2.14371e-05 0)
(0.0215456 -2.34798e-05 0)
(0.0215557 -2.55233e-05 0)
(0.0215693 -2.75684e-05 0)
(0.0215864 -2.96154e-05 0)
(0.0216071 -3.16644e-05 0)
(0.0216314 -3.37149e-05 0)
(0.0216591 -3.57662e-05 0)
(0.0216904 -3.78172e-05 0)
(0.0217252 -3.98663e-05 0)
(0.0217635 -4.19115e-05 0)
(0.0218052 -4.39505e-05 0)
(0.0218503 -4.59805e-05 0)
(0.0218989 -4.79986e-05 0)
(0.0219508 -5.00011e-05 0)
(0.022006 -5.19841e-05 0)
(0.0220645 -5.39434e-05 0)
(0.0221263 -5.58744e-05 0)
(0.0221911 -5.7772e-05 0)
(0.022259 -5.96308e-05 0)
(0.02233 -6.14453e-05 0)
(0.0224038 -6.32094e-05 0)
(0.0224805 -6.4917e-05 0)
(0.0225598 -6.65617e-05 0)
(0.0226418 -6.81368e-05 0)
(0.0227262 -6.96356e-05 0)
(0.022813 -7.10515e-05 0)
(0.022902 -7.23777e-05 0)
(0.0229931 -7.36074e-05 0)
(0.0230861 -7.47343e-05 0)
(0.0231808 -7.57521e-05 0)
(0.0232771 -7.66548e-05 0)
(0.0233748 -7.7437e-05 0)
(0.0234736 -7.80938e-05 0)
(0.0235735 -7.86216e-05 0)
(0.0236743 -7.90173e-05 0)
(0.0237756 -7.92815e-05 0)
(0.0238773 -7.94247e-05 0)
(0.0239793 -7.94236e-05 0)
(0.0240813 -7.94608e-05 0)
(0.024183 -7.90695e-05 0)
(0.0242846 -7.99093e-05 0)
(0.0243856 -7.8284e-05 0)
(0.0244848 -8.29689e-05 0)
(0.0245908 -8.12044e-05 0)
(0.0246728 -8.51425e-05 0)
(0.0248171 -0.000121265 0)
(-0.000178927 0.000645198 0)
(-0.00104346 0.00125447 0)
(-0.00216873 0.00153362 0)
(-0.00330662 0.00157534 0)
(-0.00439573 0.00157088 0)
(-0.00542546 0.00152806 0)
(-0.00638016 0.00148501 0)
(-0.00727092 0.00143331 0)
(-0.00809437 0.00138083 0)
(-0.00885868 0.00132591 0)
(-0.00956522 0.0012711 0)
(-0.0102191 0.00121659 0)
(-0.0108229 0.00116321 0)
(-0.0113799 0.00111117 0)
(-0.0118923 0.00106069 0)
(-0.0123626 0.00101179 0)
(-0.0127925 0.000964447 0)
(-0.0131834 0.000918564 0)
(-0.0135368 0.000874006 0)
(-0.0138534 0.000830602 0)
(-0.0141342 0.000788148 0)
(-0.0143795 0.000746411 0)
(-0.0145895 0.000705125 0)
(-0.0147643 0.000663994 0)
(-0.0149037 0.000622686 0)
(-0.0150071 0.000580835 0)
(-0.0150738 0.00053804 0)
(-0.015103 0.000493868 0)
(-0.0150936 0.00044786 0)
(-0.0150441 0.000399531 0)
(-0.014953 0.000348384 0)
(-0.0148188 0.000293918 0)
(-0.0146395 0.000235638 0)
(-0.0144133 0.000173072 0)
(-0.0141382 0.000105783 0)
(-0.0138121 3.33857e-05 0)
(-0.013433 -4.44394e-05 0)
(-0.0129989 -0.000127931 0)
(-0.012508 -0.000217235 0)
(-0.0119586 -0.000312391 0)
(-0.011349 -0.000413327 0)
(-0.0106781 -0.000519848 0)
(-0.00994477 -0.00063164 0)
(-0.00914829 -0.000748263 0)
(-0.0082883 -0.000869157 0)
(-0.00736482 -0.000993646 0)
(-0.00637824 -0.00112095 0)
(-0.00532938 -0.00125019 0)
(-0.00421949 -0.0013804 0)
(-0.00305026 -0.00151055 0)
(-0.00182383 -0.00163955 0)
(-0.000542756 -0.00176626 0)
(0.000789952 -0.00188954 0)
(0.00217087 -0.00200822 0)
(0.00359617 -0.00212116 0)
(0.00506163 -0.00222723 0)
(0.00656269 -0.00232536 0)
(0.00809443 -0.00241452 0)
(0.00965166 -0.00249377 0)
(0.0112289 -0.00256227 0)
(0.0128206 -0.00261926 0)
(0.0144208 -0.00266412 0)
(0.0160235 -0.00269634 0)
(0.0176229 -0.00271557 0)
(0.0192128 -0.00272158 0)
(0.0207872 -0.00271431 0)
(0.0223404 -0.00269386 0)
(0.0238666 -0.00266047 0)
(0.0253602 -0.00261452 0)
(0.0268161 -0.00255658 0)
(0.0282294 -0.00248731 0)
(0.0295955 -0.00240753 0)
(0.0309102 -0.00231815 0)
(0.0321699 -0.00222019 0)
(0.0333714 -0.00211474 0)
(0.0345119 -0.00200295 0)
(0.0355891 -0.001886 0)
(0.0366013 -0.0017651 0)
(0.0375473 -0.00164145 0)
(0.0384263 -0.0015162 0)
(0.039238 -0.0013905 0)
(0.0399825 -0.0012654 0)
(0.0406605 -0.00114192 0)
(0.0412729 -0.00102095 0)
(0.041821 -0.000903325 0)
(0.0423066 -0.000789758 0)
(0.0427315 -0.000680868 0)
(0.0430981 -0.00057717 0)
(0.0434085 -0.000479074 0)
(0.0436656 -0.000386892 0)
(0.0438719 -0.000300841 0)
(0.0440303 -0.000221048 0)
(0.0441438 -0.000147561 0)
(0.0442152 -8.03506e-05 0)
(0.0442476 -1.93251e-05 0)
(0.0442439 3.5665e-05 0)
(0.044207 8.48177e-05 0)
(0.0441398 0.00012837 0)
(0.0440451 0.000166592 0)
(0.0439257 0.000199776 0)
(0.0437841 0.000228234 0)
(0.0436229 0.000252286 0)
(0.0434445 0.00027226 0)
(0.043251 0.000288484 0)
(0.0430447 0.000301279 0)
(0.0428274 0.000310963 0)
(0.0426012 0.000317839 0)
(0.0423677 0.000322201 0)
(0.0421284 0.000324325 0)
(0.0418848 0.000324474 0)
(0.0416383 0.000322891 0)
(0.04139 0.000319803 0)
(0.041141 0.00031542 0)
(0.0408923 0.000309933 0)
(0.0406447 0.000303516 0)
(0.040399 0.000296328 0)
(0.0401558 0.000288509 0)
(0.0399158 0.000280186 0)
(0.0396794 0.000271469 0)
(0.039447 0.000262458 0)
(0.0392191 0.000253238 0)
(0.0389958 0.000243881 0)
(0.0387776 0.000234452 0)
(0.0385645 0.000225002 0)
(0.0383568 0.000215576 0)
(0.0381545 0.00020621 0)
(0.0379578 0.000196932 0)
(0.0377668 0.000187765 0)
(0.0375815 0.000178726 0)
(0.0374019 0.000169825 0)
(0.0372281 0.00016107 0)
(0.0370601 0.000152463 0)
(0.0368979 0.000144007 0)
(0.0367414 0.000135697 0)
(0.0365908 0.000127529 0)
(0.0364459 0.000119497 0)
(0.0363069 0.000111593 0)
(0.0361735 0.000103808 0)
(0.036046 9.61323e-05 0)
(0.0359242 8.85557e-05 0)
(0.0358082 8.10683e-05 0)
(0.0356979 7.36597e-05 0)
(0.0355934 6.63199e-05 0)
(0.0354947 5.90392e-05 0)
(0.0354018 5.18086e-05 0)
(0.0353148 4.46195e-05 0)
(0.0352335 3.7464e-05 0)
(0.0351581 3.03351e-05 0)
(0.0350886 2.32264e-05 0)
(0.0350249 1.61326e-05 0)
(0.0349672 9.04913e-06 0)
(0.0349154 1.97252e-06 0)
(0.0348696 -5.09993e-06 0)
(0.0348297 -1.21699e-05 0)
(0.0347959 -1.92382e-05 0)
(0.034768 -2.63047e-05 0)
(0.0347462 -3.33682e-05 0)
(0.0347304 -4.04268e-05 0)
(0.0347206 -4.74775e-05 0)
(0.0347169 -5.45165e-05 0)
(0.0347192 -6.1539e-05 0)
(0.0347275 -6.85394e-05 0)
(0.0347418 -7.5511e-05 0)
(0.034762 -8.24466e-05 0)
(0.0347881 -8.93377e-05 0)
(0.0348202 -9.61751e-05 0)
(0.034858 -0.000102949 0)
(0.0349016 -0.000109648 0)
(0.0349508 -0.00011626 0)
(0.0350057 -0.000122773 0)
(0.0350661 -0.000129174 0)
(0.0351319 -0.000135447 0)
(0.0352029 -0.000141578 0)
(0.0352792 -0.000147552 0)
(0.0353604 -0.000153352 0)
(0.0354465 -0.00015896 0)
(0.0355374 -0.00016436 0)
(0.0356327 -0.000169535 0)
(0.0357324 -0.000174465 0)
(0.0358363 -0.000179133 0)
(0.0359441 -0.000183521 0)
(0.0360557 -0.000187612 0)
(0.0361707 -0.000191388 0)
(0.036289 -0.000194832 0)
(0.0364102 -0.000197929 0)
(0.0365342 -0.000200664 0)
(0.0366606 -0.000203023 0)
(0.0367892 -0.000204995 0)
(0.0369197 -0.000206568 0)
(0.0370517 -0.000207742 0)
(0.037185 -0.000208502 0)
(0.0373192 -0.000208876 0)
(0.0374541 -0.000208871 0)
(0.0375893 -0.000208446 0)
(0.0377245 -0.000208261 0)
(0.0378588 -0.000206397 0)
(0.0379934 -0.000209127 0)
(0.0381252 -0.000204475 0)
(0.0382505 -0.000210099 0)
(0.0384066 -0.00023119 0)
(-0.000305685 0.00126191 0)
(-0.00151691 0.00231573 0)
(-0.00287122 0.00272419 0)
(-0.00413873 0.00273452 0)
(-0.00523809 0.00266286 0)
(-0.00621844 0.00253403 0)
(-0.00706593 0.00240557 0)
(-0.00781415 0.00227105 0)
(-0.00846457 0.00214145 0)
(-0.00903389 0.0020153 0)
(-0.00952731 0.00189489 0)
(-0.00995373 0.00177982 0)
(-0.0103179 0.00167019 0)
(-0.0106251 0.00156554 0)
(-0.0108787 0.00146546 0)
(-0.011082 0.00136945 0)
(-0.0112373 0.00127701 0)
(-0.0113465 0.00118761 0)
(-0.0114112 0.00110076 0)
(-0.0114322 0.00101595 0)
(-0.0114104 0.000932679 0)
(-0.0113462 0.000850424 0)
(-0.0112397 0.000768664 0)
(-0.0110908 0.000686859 0)
(-0.0108991 0.000604452 0)
(-0.0106641 0.000520864 0)
(-0.010385 0.000435501 0)
(-0.010061 0.000347754 0)
(-0.00969105 0.000257004 0)
(-0.00927394 0.000162634 0)
(-0.00880844 6.40341e-05 0)
(-0.00829327 -3.9382e-05 0)
(-0.00772709 -0.000148164 0)
(-0.00710856 -0.000262811 0)
(-0.00643641 -0.000383751 0)
(-0.0057094 -0.000511332 0)
(-0.00492641 -0.000645797 0)
(-0.00408647 -0.00078728 0)
(-0.00318875 -0.000935783 0)
(-0.00223265 -0.00109118 0)
(-0.00121779 -0.00125318 0)
(-0.000144049 -0.00142137 0)
(0.000988412 -0.00159516 0)
(0.00217912 -0.00177384 0)
(0.00342729 -0.00195654 0)
(0.00473179 -0.00214225 0)
(0.00609114 -0.00232983 0)
(0.00750348 -0.00251807 0)
(0.00896661 -0.00270561 0)
(0.010478 -0.00289103 0)
(0.0120346 -0.00307287 0)
(0.0136331 -0.0032496 0)
(0.0152699 -0.00341968 0)
(0.016941 -0.00358156 0)
(0.0186421 -0.00373371 0)
(0.0203684 -0.00387467 0)
(0.022115 -0.00400299 0)
(0.0238768 -0.00411736 0)
(0.0256483 -0.00421654 0)
(0.0274239 -0.00429942 0)
(0.029198 -0.00436506 0)
(0.0309647 -0.00441264 0)
(0.032718 -0.00444156 0)
(0.0344522 -0.00445139 0)
(0.0361614 -0.00444191 0)
(0.03784 -0.00441311 0)
(0.0394825 -0.00436519 0)
(0.0410836 -0.00429857 0)
(0.0426383 -0.0042139 0)
(0.0441421 -0.004112 0)
(0.0455908 -0.00399391 0)
(0.0469805 -0.00386084 0)
(0.0483079 -0.00371414 0)
(0.0495701 -0.00355531 0)
(0.050765 -0.00338594 0)
(0.0518906 -0.0032077 0)
(0.0529456 -0.00302229 0)
(0.0539294 -0.00283146 0)
(0.0548415 -0.0026369 0)
(0.0556821 -0.00244029 0)
(0.0564518 -0.00224324 0)
(0.0571516 -0.00204726 0)
(0.0577829 -0.00185377 0)
(0.0583473 -0.00166404 0)
(0.0588467 -0.00147923 0)
(0.0592834 -0.00130037 0)
(0.0596598 -0.00112832 0)
(0.0599783 -0.000963813 0)
(0.0602416 -0.000807441 0)
(0.0604525 -0.000659655 0)
(0.0606137 -0.000520782 0)
(0.0607282 -0.000391027 0)
(0.0607988 -0.000270486 0)
(0.0608283 -0.000159155 0)
(0.0608195 -5.69413e-05 0)
(0.0607752 3.63229e-05 0)
(0.0606981 0.000120873 0)
(0.0605908 0.000197001 0)
(0.0604558 0.000265043 0)
(0.0602957 0.000325371 0)
(0.0601127 0.000378387 0)
(0.0599092 0.000424509 0)
(0.0596874 0.000464171 0)
(0.0594491 0.00049781 0)
(0.0591965 0.000525867 0)
(0.0589314 0.000548774 0)
(0.0586554 0.000566959 0)
(0.0583702 0.000580836 0)
(0.0580774 0.000590804 0)
(0.0577783 0.000597245 0)
(0.0574742 0.000600524 0)
(0.0571663 0.000600983 0)
(0.0568558 0.000598945 0)
(0.0565436 0.00059471 0)
(0.0562307 0.000588556 0)
(0.0559179 0.000580742 0)
(0.0556059 0.000571501 0)
(0.0552956 0.000561049 0)
(0.0549873 0.000549578 0)
(0.0546818 0.000537263 0)
(0.0543795 0.000524259 0)
(0.0540808 0.000510704 0)
(0.053786 0.000496717 0)
(0.0534956 0.000482404 0)
(0.0532097 0.000467855 0)
(0.0529287 0.000453147 0)
(0.0526527 0.000438344 0)
(0.052382 0.000423499 0)
(0.0521167 0.000408656 0)
(0.0518569 0.000393848 0)
(0.0516028 0.0003791 0)
(0.0513544 0.000364432 0)
(0.0511119 0.000349854 0)
(0.0508753 0.000335374 0)
(0.0506448 0.000320994 0)
(0.0504204 0.000306711 0)
(0.0502021 0.000292521 0)
(0.0499901 0.000278417 0)
(0.0497844 0.000264389 0)
(0.049585 0.000250427 0)
(0.0493921 0.000236518 0)
(0.0492057 0.000222652 0)
(0.0490259 0.000208815 0)
(0.0488527 0.000194997 0)
(0.0486863 0.000181186 0)
(0.0485267 0.000167371 0)
(0.0483739 0.000153545 0)
(0.0482282 0.000139698 0)
(0.0480895 0.000125824 0)
(0.0479579 0.000111918 0)
(0.0478335 9.79772e-05 0)
(0.0477164 8.39985e-05 0)
(0.0476067 6.99819e-05 0)
(0.0475044 5.59288e-05 0)
(0.0474096 4.18422e-05 0)
(0.0473223 2.77266e-05 0)
(0.0472426 1.35884e-05 0)
(0.0471706 -5.64664e-07 0)
(0.0471063 -1.47231e-05 0)
(0.0470497 -2.8876e-05 0)
(0.0470008 -4.30108e-05 0)
(0.0469597 -5.71136e-05 0)
(0.0469264 -7.11691e-05 0)
(0.0469008 -8.51605e-05 0)
(0.0468829 -9.90696e-05 0)
(0.0468727 -0.000112877 0)
(0.0468701 -0.000126562 0)
(0.0468752 -0.000140102 0)
(0.0468877 -0.000153474 0)
(0.0469077 -0.000166654 0)
(0.046935 -0.000179616 0)
(0.0469696 -0.000192333 0)
(0.0470112 -0.000204778 0)
(0.0470597 -0.000216922 0)
(0.047115 -0.000228735 0)
(0.047177 -0.000240188 0)
(0.0472454 -0.00025125 0)
(0.04732 -0.000261889 0)
(0.0474006 -0.000272075 0)
(0.047487 -0.000281776 0)
(0.0475789 -0.000290961 0)
(0.0476761 -0.0002996 0)
(0.0477783 -0.000307663 0)
(0.0478853 -0.000315122 0)
(0.0479966 -0.000321949 0)
(0.0481121 -0.000328119 0)
(0.0482314 -0.000333608 0)
(0.0483543 -0.000338393 0)
(0.0484802 -0.000342457 0)
(0.048609 -0.000345781 0)
(0.0487402 -0.000348358 0)
(0.0488735 -0.00035017 0)
(0.0490085 -0.000351235 0)
(0.0491448 -0.000351533 0)
(0.049282 -0.000351223 0)
(0.0494195 -0.000349855 0)
(0.0495568 -0.000349686 0)
(0.0496916 -0.000344503 0)
(0.049825 -0.000348843 0)
(0.0499711 -0.000349512 0)
(-0.000405113 0.00246978 0)
(-0.00171926 0.00379673 0)
(-0.00298746 0.00414176 0)
(-0.00405034 0.00389063 0)
(-0.00482705 0.00361771 0)
(-0.00542841 0.00331543 0)
(-0.00585132 0.00305172 0)
(-0.00615528 0.00280548 0)
(-0.00634945 0.00258176 0)
(-0.0064599 0.00237429 0)
(-0.00649501 0.00218188 0)
(-0.00646661 0.00200203 0)
(-0.00638039 0.00183309 0)
(-0.00624225 0.00167345 0)
(-0.00605572 0.00152173 0)
(-0.00582394 0.0013767 0)
(-0.00554898 0.00123723 0)
(-0.0052325 0.00110233 0)
(-0.00487557 0.000971061 0)
(-0.00447895 0.000842573 0)
(-0.00404299 0.000716046 0)
(-0.00356784 0.000590698 0)
(-0.00305334 0.000465768 0)
(-0.00249917 0.000340512 0)
(-0.00190483 0.000214192 0)
(-0.00126967 8.60774e-05 0)
(-0.000592909 -4.45549e-05 0)
(0.000126303 -0.000178418 0)
(0.000888893 -0.00031621 0)
(0.00169582 -0.000458605 0)
(0.00254806 -0.000606239 0)
(0.00344657 -0.000759704 0)
(0.00439226 -0.000919529 0)
(0.00538597 -0.00108617 0)
(0.00642844 -0.00125997 0)
(0.00752029 -0.0014412 0)
(0.00866198 -0.00162997 0)
(0.00985381 -0.00182627 0)
(0.0110959 -0.00202995 0)
(0.0123881 -0.0022407 0)
(0.01373 -0.00245802 0)
(0.015121 -0.00268127 0)
(0.0165603 -0.00290964 0)
(0.0180467 -0.00314215 0)
(0.0195786 -0.00337765 0)
(0.0211543 -0.00361487 0)
(0.0227718 -0.00385236 0)
(0.0244285 -0.0040886 0)
(0.0261218 -0.00432191 0)
(0.0278485 -0.00455055 0)
(0.0296053 -0.00477272 0)
(0.0313884 -0.00498655 0)
(0.0331939 -0.00519017 0)
(0.0350173 -0.00538169 0)
(0.036854 -0.00555926 0)
(0.0386992 -0.00572108 0)
(0.0405478 -0.00586544 0)
(0.0423944 -0.00599073 0)
(0.0442336 -0.00609547 0)
(0.0460597 -0.00617835 0)
(0.0478671 -0.00623824 0)
(0.0496501 -0.00627422 0)
(0.051403 -0.0062856 0)
(0.0531202 -0.00627195 0)
(0.0547963 -0.00623309 0)
(0.0564261 -0.00616913 0)
(0.0580048 -0.00608045 0)
(0.0595277 -0.00596771 0)
(0.0609907 -0.00583185 0)
(0.06239 -0.00567407 0)
(0.0637224 -0.00549582 0)
(0.0649852 -0.00529877 0)
(0.0661763 -0.00508478 0)
(0.067294 -0.00485587 0)
(0.0683372 -0.00461418 0)
(0.0693055 -0.00436193 0)
(0.0701988 -0.0041014 0)
(0.0710176 -0.00383484 0)
(0.071763 -0.00356449 0)
(0.0724362 -0.00329251 0)
(0.0730391 -0.00302096 0)
(0.0735737 -0.00275177 0)
(0.0740422 -0.00248671 0)
(0.0744474 -0.00222739 0)
(0.0747919 -0.00197524 0)
(0.0750785 -0.00173151 0)
(0.0753102 -0.00149726 0)
(0.0754899 -0.00127334 0)
(0.0756208 -0.00106046 0)
(0.0757056 -0.000859132 0)
(0.0757475 -0.000669716 0)
(0.0757492 -0.000492424 0)
(0.0757136 -0.000327333 0)
(0.0756434 -0.0001744 0)
(0.0755412 -3.34771e-05 0)
(0.0754096 9.56762e-05 0)
(0.075251 0.000213377 0)
(0.0750677 0.000320008 0)
(0.0748619 0.000416004 0)
(0.0746357 0.000501841 0)
(0.074391 0.000578027 0)
(0.0741297 0.00064509 0)
(0.0738537 0.000703573 0)
(0.0735645 0.000754025 0)
(0.0732637 0.000796995 0)
(0.0729527 0.000833028 0)
(0.072633 0.000862655 0)
(0.0723058 0.000886397 0)
(0.0719724 0.000904756 0)
(0.0716337 0.000918215 0)
(0.0712909 0.000927233 0)
(0.0709448 0.000932249 0)
(0.0705964 0.000933675 0)
(0.0702465 0.000931898 0)
(0.0698957 0.00092728 0)
(0.0695448 0.000920157 0)
(0.0691945 0.000910839 0)
(0.0688451 0.000899611 0)
(0.0684974 0.000886733 0)
(0.0681516 0.000872442 0)
(0.0678083 0.00085695 0)
(0.0674678 0.000840449 0)
(0.0671304 0.000823108 0)
(0.0667964 0.000805078 0)
(0.0664662 0.000786488 0)
(0.0661399 0.000767454 0)
(0.0658177 0.000748072 0)
(0.0655 0.000728423 0)
(0.0651867 0.000708577 0)
(0.0648781 0.000688587 0)
(0.0645743 0.0006685 0)
(0.0642755 0.000648348 0)
(0.0639817 0.000628156 0)
(0.0636932 0.00060794 0)
(0.0634099 0.000587712 0)
(0.063132 0.000567473 0)
(0.0628597 0.000547225 0)
(0.0625929 0.00052696 0)
(0.0623319 0.000506672 0)
(0.0620767 0.000486349 0)
(0.0618274 0.000465979 0)
(0.0615842 0.000445549 0)
(0.0613471 0.000425046 0)
(0.0611163 0.000404454 0)
(0.0608919 0.000383763 0)
(0.060674 0.000362959 0)
(0.0604627 0.000342032 0)
(0.0602582 0.000320973 0)
(0.0600606 0.000299776 0)
(0.05987 0.000278437 0)
(0.0596865 0.000256952 0)
(0.0595104 0.000235322 0)
(0.0593416 0.000213549 0)
(0.0591803 0.00019164 0)
(0.0590267 0.000169602 0)
(0.0588808 0.000147446 0)
(0.0587428 0.000125185 0)
(0.0586127 0.000102835 0)
(0.0584906 8.04137e-05 0)
(0.0583767 5.79421e-05 0)
(0.058271 3.54431e-05 0)
(0.0581735 1.29421e-05 0)
(0.0580843 -9.53367e-06 0)
(0.0580034 -3.19546e-05 0)
(0.0579309 -5.42893e-05 0)
(0.0578667 -7.65044e-05 0)
(0.0578109 -9.85648e-05 0)
(0.0577634 -0.000120434 0)
(0.0577242 -0.000142072 0)
(0.0576932 -0.000163441 0)
(0.0576704 -0.000184499 0)
(0.0576556 -0.000205202 0)
(0.0576488 -0.000225509 0)
(0.0576499 -0.000245372 0)
(0.0576586 -0.000264748 0)
(0.0576749 -0.00028359 0)
(0.0576986 -0.000301851 0)
(0.0577294 -0.000319485 0)
(0.0577672 -0.000336445 0)
(0.0578118 -0.000352684 0)
(0.0578629 -0.000368156 0)
(0.0579202 -0.000382818 0)
(0.0579836 -0.000396625 0)
(0.0580527 -0.000409536 0)
(0.0581272 -0.000421511 0)
(0.0582069 -0.000432513 0)
(0.0582914 -0.000442508 0)
(0.0583804 -0.000451463 0)
(0.0584736 -0.000459349 0)
(0.0585706 -0.00046614 0)
(0.0586711 -0.000471812 0)
(0.0587747 -0.000476339 0)
(0.0588811 -0.000479711 0)
(0.0589898 -0.000481859 0)
(0.0591004 -0.000482854 0)
(0.0592125 -0.000482426 0)
(0.0593252 -0.000481172 0)
(0.0594374 -0.000476247 0)
(0.0595498 -0.000477308 0)
(0.0596663 -0.000460072 0)
(-0.000693701 0.0030943 0)
(-0.00209192 0.0047227 0)
(-0.00255469 0.00495183 0)
(-0.00279252 0.00450479 0)
(-0.00262719 0.00403237 0)
(-0.00237786 0.00356562 0)
(-0.0019826 0.00316152 0)
(-0.00152576 0.00280333 0)
(-0.000998438 0.0024866 0)
(-0.000426043 0.00220268 0)
(0.000189668 0.001945 0)
(0.000839591 0.00170872 0)
(0.00152136 0.00148952 0)
(0.00223133 0.00128433 0)
(0.00296809 0.00109042 0)
(0.0037302 0.000905697 0)
(0.00451711 0.00072832 0)
(0.00532845 0.000556755 0)
(0.00616428 0.000389635 0)
(0.00702483 0.000225759 0)
(0.00791055 6.40252e-05 0)
(0.00882206 -9.65781e-05 0)
(0.00976009 -0.000257001 0)
(0.0107255 -0.000418144 0)
(0.0117192 -0.000580866 0)
(0.0127421 -0.000745991 0)
(0.0137953 -0.000914311 0)
(0.0148799 -0.00108658 0)
(0.0159967 -0.00126352 0)
(0.0171468 -0.00144579 0)
(0.0183311 -0.00163402 0)
(0.0195505 -0.00182873 0)
(0.0208057 -0.00203041 0)
(0.0220974 -0.00223941 0)
(0.0234259 -0.002456 0)
(0.0247918 -0.00268031 0)
(0.026195 -0.00291233 0)
(0.0276356 -0.0031519 0)
(0.0291133 -0.00339872 0)
(0.0306275 -0.00365229 0)
(0.0321775 -0.00391194 0)
(0.0337624 -0.00417682 0)
(0.0353807 -0.00444592 0)
(0.0370309 -0.00471803 0)
(0.0387112 -0.00499176 0)
(0.0404194 -0.00526557 0)
(0.0421529 -0.00553778 0)
(0.043909 -0.00580655 0)
(0.0456847 -0.00606995 0)
(0.0474764 -0.00632592 0)
(0.0492804 -0.00657234 0)
(0.0510928 -0.00680705 0)
(0.0529092 -0.00702785 0)
(0.054725 -0.00723254 0)
(0.0565354 -0.00741897 0)
(0.0583354 -0.00758506 0)
(0.0601197 -0.00772881 0)
(0.061883 -0.00784838 0)
(0.0636198 -0.00794208 0)
(0.0653246 -0.00800844 0)
(0.0669919 -0.0080462 0)
(0.0686165 -0.00805441 0)
(0.070193 -0.00803236 0)
(0.0717164 -0.00797971 0)
(0.0731821 -0.00789641 0)
(0.0745859 -0.00778279 0)
(0.0759237 -0.00763952 0)
(0.0771923 -0.00746762 0)
(0.0783888 -0.00726845 0)
(0.079511 -0.00704369 0)
(0.0805574 -0.00679532 0)
(0.0815269 -0.00652557 0)
(0.0824191 -0.0062369 0)
(0.0832344 -0.00593192 0)
(0.0839735 -0.00561337 0)
(0.0846378 -0.00528405 0)
(0.0852292 -0.0049468 0)
(0.0857499 -0.0046044 0)
(0.0862025 -0.00425955 0)
(0.0865899 -0.00391483 0)
(0.0869153 -0.00357267 0)
(0.0871819 -0.0032353 0)
(0.0873931 -0.00290476 0)
(0.0875523 -0.00258284 0)
(0.0876629 -0.00227111 0)
(0.0877282 -0.00197091 0)
(0.0877515 -0.00168334 0)
(0.0877359 -0.00140928 0)
(0.0876845 -0.0011494 0)
(0.0876001 -0.00090417 0)
(0.0874855 -0.00067387 0)
(0.0873432 -0.000458624 0)