/*--------------------------------*- C++ -*----------------------------------*\
| =========                 |                                                 |
| \\      /  F ield         | OpenFOAM: The Open Source CFD Toolbox           |
|  \\    /   O peration     | Version:  4.1                                   |
|   \\  /    A nd           | Web:      www.OpenFOAM.org                      |
|    \\/     M anipulation  |                                                 |
\*---------------------------------------------------------------------------*/
FoamFile
{
    version     2.0;
    format      ascii;
    class       volVectorField;
    location    "659";
    object      U;
}
// * * * * * * * * * * * * * * * * * * * * * * * * * * * * * * * * * * * * * //

dimensions      [0 1 -1 0 0 0 0];

internalField   nonuniform List<vector> 
3264
(
(-2.65465e-06 -4.85294e-07 0)
(-0.000133172 3.05606e-05 0)
(-0.000389807 4.86631e-05 0)
(-0.000677099 5.1001e-05 0)
(-0.000979085 5.27255e-05 0)
(-0.00128514 5.21293e-05 0)
(-0.00158992 5.34271e-05 0)
(-0.0018948 5.40668e-05 0)
(-0.00219518 5.51659e-05 0)
(-0.00249176 5.57855e-05 0)
(-0.00278197 5.63358e-05 0)
(-0.003066 5.65724e-05 0)
(-0.00334278 5.66577e-05 0)
(-0.00361238 5.65537e-05 0)
(-0.00387449 5.63341e-05 0)
(-0.00412919 5.60114e-05 0)
(-0.00437647 5.56247e-05 0)
(-0.00461648 5.51933e-05 0)
(-0.00484934 5.47405e-05 0)
(-0.00507521 5.4282e-05 0)
(-0.00529423 5.38323e-05 0)
(-0.00550657 5.34025e-05 0)
(-0.00571235 5.30012e-05 0)
(-0.00591169 5.26346e-05 0)
(-0.00610467 5.23062e-05 0)
(-0.00629134 5.20168e-05 0)
(-0.00647167 5.17641e-05 0)
(-0.0066456 5.1542e-05 0)
(-0.006813 5.13408e-05 0)
(-0.00697362 5.11463e-05 0)
(-0.00712716 5.09394e-05 0)
(-0.0072732 5.0696e-05 0)
(-0.0074112 5.03867e-05 0)
(-0.00754053 4.99765e-05 0)
(-0.00766041 4.94255e-05 0)
(-0.00776994 4.86891e-05 0)
(-0.0078681 4.77187e-05 0)
(-0.00795374 4.64628e-05 0)
(-0.00802561 4.48686e-05 0)
(-0.00808235 4.28833e-05 0)
(-0.00812252 4.04563e-05 0)
(-0.00814462 3.75408e-05 0)
(-0.00814709 3.40964e-05 0)
(-0.00812841 3.00905e-05 0)
(-0.00808702 2.55008e-05 0)
(-0.00802147 2.03166e-05 0)
(-0.00793038 1.45405e-05 0)
(-0.00781247 8.18876e-06 0)
(-0.00766665 1.29246e-06 0)
(-0.00749202 -6.10277e-06 0)
(-0.00728788 -1.39371e-05 0)
(-0.00705378 -2.21373e-05 0)
(-0.00678955 -3.06182e-05 0)
(-0.0064953 -3.92841e-05 0)
(-0.00617143 -4.8031e-05 0)
(-0.00581865 -5.67484e-05 0)
(-0.00543798 -6.53225e-05 0)
(-0.00503074 -7.36377e-05 0)
(-0.00459854 -8.15802e-05 0)
(-0.00414328 -8.90398e-05 0)
(-0.0036671 -9.59126e-05 0)
(-0.0031724 -0.000102104 0)
(-0.00266177 -0.000107529 0)
(-0.00213798 -0.000112116 0)
(-0.00160394 -0.000115809 0)
(-0.00106265 -0.000118566 0)
(-0.000517207 -0.000120361 0)
(2.93096e-05 -0.000121187 0)
(0.000573821 -0.000121052 0)
(0.00111331 -0.000119981 0)
(0.00164487 -0.000118017 0)
(0.00216571 -0.000115215 0)
(0.00267325 -0.000111644 0)
(0.00316507 -0.000107383 0)
(0.00363901 -0.000102523 0)
(0.00409316 -9.71587e-05 0)
(0.00452588 -9.13896e-05 0)
(0.0049358 -8.53172e-05 0)
(0.00532186 -7.90418e-05 0)
(0.00568327 -7.26606e-05 0)
(0.00601954 -6.62654e-05 0)
(0.00633045 -5.9941e-05 0)
(0.00661603 -5.37635e-05 0)
(0.00687658 -4.77996e-05 0)
(0.00711258 -4.21055e-05 0)
(0.00732475 -3.67266e-05 0)
(0.00751395 -3.16978e-05 0)
(0.00768118 -2.70437e-05 0)
(0.0078276 -2.27791e-05 0)
(0.00795441 -1.89103e-05 0)
(0.0080629 -1.54353e-05 0)
(0.00815441 -1.2346e-05 0)
(0.00823027 -9.62829e-06 0)
(0.00829183 -7.26395e-06 0)
(0.00834043 -5.2314e-06 0)
(0.00837735 -3.50684e-06 0)
(0.00840385 -2.06509e-06 0)
(0.00842112 -8.80429e-07 0)
(0.00843028 7.27543e-08 0)
(0.00843241 8.1946e-07 0)
(0.0084285 1.38365e-06 0)
(0.00841945 1.78796e-06 0)
(0.00840611 2.05349e-06 0)
(0.00838925 2.19972e-06 0)
(0.00836956 2.24443e-06 0)
(0.00834766 2.20373e-06 0)
(0.00832411 2.0921e-06 0)
(0.0082994 1.92246e-06 0)
(0.00827398 1.70626e-06 0)
(0.00824821 1.45363e-06 0)
(0.00822242 1.17342e-06 0)
(0.0081969 8.73349e-07 0)
(0.00817188 5.60121e-07 0)
(0.00814755 2.39504e-07 0)
(0.00812409 -8.35691e-08 0)
(0.00810162 -4.04907e-07 0)
(0.00808023 -7.20986e-07 0)
(0.00806001 -1.02887e-06 0)
(0.00804102 -1.32616e-06 0)
(0.00802328 -1.61092e-06 0)
(0.00800681 -1.8816e-06 0)
(0.00799161 -2.13706e-06 0)
(0.00797769 -2.37643e-06 0)
(0.007965 -2.59917e-06 0)
(0.00795354 -2.80493e-06 0)
(0.00794325 -2.99362e-06 0)
(0.0079341 -3.1653e-06 0)
(0.00792604 -3.32019e-06 0)
(0.00791902 -3.45867e-06 0)
(0.007913 -3.5812e-06 0)
(0.00790791 -3.68834e-06 0)
(0.0079037 -3.78075e-06 0)
(0.00790032 -3.8591e-06 0)
(0.00789772 -3.92417e-06 0)
(0.00789585 -3.97672e-06 0)
(0.00789466 -4.01757e-06 0)
(0.00789409 -4.04753e-06 0)
(0.00789411 -4.06744e-06 0)
(0.00789467 -4.07812e-06 0)
(0.00789574 -4.08039e-06 0)
(0.00789727 -4.07506e-06 0)
(0.00789923 -4.06292e-06 0)
(0.0079016 -4.04473e-06 0)
(0.00790435 -4.02125e-06 0)
(0.00790745 -3.99318e-06 0)
(0.00791089 -3.9612e-06 0)
(0.00791464 -3.92598e-06 0)
(0.0079187 -3.88813e-06 0)
(0.00792305 -3.84824e-06 0)
(0.00792768 -3.80686e-06 0)
(0.00793259 -3.76451e-06 0)
(0.00793777 -3.72166e-06 0)
(0.00794323 -3.67877e-06 0)
(0.00794896 -3.63625e-06 0)
(0.00795497 -3.59448e-06 0)
(0.00796126 -3.5538e-06 0)
(0.00796784 -3.51453e-06 0)
(0.00797472 -3.47694e-06 0)
(0.00798191 -3.4413e-06 0)
(0.00798942 -3.40782e-06 0)
(0.00799727 -3.37669e-06 0)
(0.00800545 -3.34807e-06 0)
(0.008014 -3.32212e-06 0)
(0.00802291 -3.29893e-06 0)
(0.00803222 -3.27858e-06 0)
(0.00804192 -3.26115e-06 0)
(0.00805204 -3.24666e-06 0)
(0.00806258 -3.23512e-06 0)
(0.00807357 -3.22651e-06 0)
(0.00808501 -3.22078e-06 0)
(0.00809693 -3.21788e-06 0)
(0.00810932 -3.2177e-06 0)
(0.0081222 -3.22012e-06 0)
(0.00813559 -3.22498e-06 0)
(0.00814948 -3.2321e-06 0)
(0.0081639 -3.24124e-06 0)
(0.00817883 -3.25216e-06 0)
(0.0081943 -3.26453e-06 0)
(0.00821029 -3.278e-06 0)
(0.00822681 -3.29215e-06 0)
(0.00824386 -3.30649e-06 0)
(0.00826143 -3.32045e-06 0)
(0.00827952 -3.33335e-06 0)
(0.00829811 -3.34441e-06 0)
(0.00831718 -3.35267e-06 0)
(0.00833673 -3.35703e-06 0)
(0.00835672 -3.35619e-06 0)
(0.00837713 -3.34855e-06 0)
(0.00839792 -3.33286e-06 0)
(0.00841904 -3.30568e-06 0)
(0.00844046 -3.27172e-06 0)
(0.0084621 -3.21121e-06 0)
(0.00848388 -3.18386e-06 0)
(0.00850591 -3.04797e-06 0)
(0.00852744 -3.19122e-06 0)
(0.00855068 -2.90111e-06 0)
(0.00856961 -3.66349e-06 0)
(0.00859976 -4.03946e-06 0)
(0.00860876 -4.52373e-06 0)
(0.00866195 -1.59752e-05 0)
(-8.33735e-05 0.000136391 0)
(-0.00058303 0.000379261 0)
(-0.00131165 0.000518384 0)
(-0.00208652 0.000562538 0)
(-0.00286657 0.000583585 0)
(-0.00363495 0.000585393 0)
(-0.00437834 0.000585446 0)
(-0.00509965 0.000578884 0)
(-0.00579171 0.000570105 0)
(-0.00645672 0.000558104 0)
(-0.007092 0.000544675 0)
(-0.00769901 0.000530007 0)
(-0.00827742 0.000514828 0)
(-0.00882839 0.000499375 0)
(-0.00935245 0.000483936 0)
(-0.00985057 0.000468642 0)
(-0.0103235 0.000453601 0)
(-0.0107721 0.000438865 0)
(-0.0111969 0.00042446 0)
(-0.0115987 0.000410387 0)
(-0.0119779 0.000396629 0)
(-0.0123349 0.00038315 0)
(-0.0126701 0.000369899 0)
(-0.0129835 0.000356811 0)
(-0.0132753 0.000343801 0)
(-0.0135453 0.000330771 0)
(-0.0137932 0.000317604 0)
(-0.0140186 0.000304163 0)
(-0.014221 0.000290296 0)
(-0.0143996 0.000275832 0)
(-0.0145534 0.000260584 0)
(-0.0146814 0.000244349 0)
(-0.0147822 0.000226917 0)
(-0.0148545 0.000208066 0)
(-0.0148966 0.000187575 0)
(-0.0149068 0.000165226 0)
(-0.0148833 0.000140809 0)
(-0.0148241 0.000114133 0)
(-0.0147272 8.50298e-05 0)
(-0.0145907 5.33628e-05 0)
(-0.0144125 1.90331e-05 0)
(-0.0141908 -1.80136e-05 0)
(-0.0139236 -5.7782e-05 0)
(-0.0136093 -0.000100223 0)
(-0.0132463 -0.000145231 0)
(-0.0128335 -0.000192641 0)
(-0.0123697 -0.000242231 0)
(-0.0118543 -0.000293723 0)
(-0.0112868 -0.000346782 0)
(-0.0106673 -0.000401027 0)
(-0.00999593 -0.000456033 0)
(-0.00927355 -0.000511335 0)
(-0.00850125 -0.000566441 0)
(-0.00768055 -0.000620836 0)
(-0.00681336 -0.000673992 0)
(-0.00590201 -0.000725377 0)
(-0.0049492 -0.000774462 0)
(-0.00395799 -0.000820733 0)
(-0.00293179 -0.000863699 0)
(-0.00187432 -0.000902896 0)
(-0.000789604 -0.000937901 0)
(0.000318114 -0.000968337 0)
(0.00144436 -0.000993878 0)
(0.0025845 -0.00101425 0)
(0.00373377 -0.00102926 0)
(0.00488734 -0.00103876 0)
(0.00604033 -0.00104269 0)
(0.00718791 -0.00104104 0)
(0.00832528 -0.00103388 0)
(0.00944779 -0.00102136 0)
(0.0105509 -0.00100369 0)
(0.0116304 -0.000981134 0)
(0.0126822 -0.000954023 0)
(0.0137025 -0.000922736 0)
(0.014688 -0.0008877 0)
(0.0156355 -0.000849373 0)
(0.0165423 -0.000808243 0)
(0.0174062 -0.000764815 0)
(0.0182252 -0.000719602 0)
(0.0189978 -0.000673115 0)
(0.0197229 -0.000625857 0)
(0.0203999 -0.000578312 0)
(0.0210284 -0.000530936 0)
(0.0216086 -0.000484156 0)
(0.0221409 -0.000438358 0)
(0.022626 -0.000393889 0)
(0.0230651 -0.000351049 0)
(0.0234594 -0.000310094 0)
(0.0238106 -0.000271231 0)
(0.0241204 -0.000234621 0)
(0.0243908 -0.000200383 0)
(0.0246238 -0.00016859 0)
(0.0248217 -0.00013928 0)
(0.0249867 -0.000112453 0)
(0.0251211 -8.80799e-05 0)
(0.0252273 -6.61031e-05 0)
(0.0253075 -4.64432e-05 0)
(0.025364 -2.90019e-05 0)
(0.0253991 -1.36666e-05 0)
(0.0254149 -3.13816e-07 0)
(0.0254134 1.11872e-05 0)
(0.0253967 2.09716e-05 0)
(0.0253666 2.91762e-05 0)
(0.0253249 3.5937e-05 0)
(0.0252732 4.13879e-05 0)
(0.025213 4.56581e-05 0)
(0.0251458 4.88722e-05 0)
(0.0250729 5.1148e-05 0)
(0.0249953 5.25969e-05 0)
(0.0249143 5.33229e-05 0)
(0.0248307 5.34225e-05 0)
(0.0247454 5.29846e-05 0)
(0.0246591 5.20908e-05 0)
(0.0245726 5.08154e-05 0)
(0.0244863 4.92254e-05 0)
(0.0244009 4.73815e-05 0)
(0.0243166 4.53377e-05 0)
(0.024234 4.31421e-05 0)
(0.0241532 4.08372e-05 0)
(0.0240745 3.84603e-05 0)
(0.0239982 3.60438e-05 0)
(0.0239243 3.36158e-05 0)
(0.0238529 3.12003e-05 0)
(0.0237842 2.88174e-05 0)
(0.0237182 2.64841e-05 0)
(0.0236548 2.42143e-05 0)
(0.0235942 2.20189e-05 0)
(0.0235362 1.99067e-05 0)
(0.0234808 1.78839e-05 0)
(0.023428 1.59551e-05 0)
(0.0233777 1.41229e-05 0)
(0.0233298 1.23884e-05 0)
(0.0232842 1.07515e-05 0)
(0.0232409 9.21077e-06 0)
(0.0231998 7.76386e-06 0)
(0.0231608 6.40755e-06 0)
(0.0231238 5.1379e-06 0)
(0.0230887 3.95035e-06 0)
(0.0230555 2.8399e-06 0)
(0.0230241 1.80116e-06 0)
(0.0229943 8.28453e-07 0)
(0.0229662 -8.40899e-08 0)
(0.0229397 -9.42452e-07 0)
(0.0229147 -1.75267e-06 0)
(0.0228912 -2.52076e-06 0)
(0.0228691 -3.25267e-06 0)
(0.0228484 -3.95424e-06 0)
(0.0228291 -4.63114e-06 0)
(0.0228111 -5.28884e-06 0)
(0.0227945 -5.93259e-06 0)
(0.0227792 -6.56737e-06 0)
(0.0227652 -7.19789e-06 0)
(0.0227525 -7.82855e-06 0)
(0.0227411 -8.46345e-06 0)
(0.0227311 -9.10635e-06 0)
(0.0227224 -9.76069e-06 0)
(0.022715 -1.04296e-05 0)
(0.0227091 -1.11157e-05 0)
(0.0227046 -1.18216e-05 0)
(0.0227014 -1.25492e-05 0)
(0.0226998 -1.33003e-05 0)
(0.0226997 -1.40763e-05 0)
(0.0227011 -1.48783e-05 0)
(0.022704 -1.57069e-05 0)
(0.0227086 -1.65626e-05 0)
(0.0227147 -1.74456e-05 0)
(0.0227226 -1.83555e-05 0)
(0.0227321 -1.9292e-05 0)
(0.0227434 -2.02541e-05 0)
(0.0227565 -2.12409e-05 0)
(0.0227713 -2.22509e-05 0)
(0.022788 -2.32825e-05 0)
(0.0228065 -2.43338e-05 0)
(0.0228269 -2.54024e-05 0)
(0.0228491 -2.6486e-05 0)
(0.0228733 -2.75815e-05 0)
(0.0228994 -2.86859e-05 0)
(0.0229274 -2.97958e-05 0)
(0.0229573 -3.09072e-05 0)
(0.0229891 -3.2016e-05 0)
(0.0230228 -3.31174e-05 0)
(0.0230585 -3.42063e-05 0)
(0.023096 -3.5277e-05 0)
(0.0231353 -3.6323e-05 0)
(0.0231765 -3.73371e-05 0)
(0.0232194 -3.83111e-05 0)
(0.023264 -3.92355e-05 0)
(0.0233103 -4.00999e-05 0)
(0.0233581 -4.08911e-05 0)
(0.0234075 -4.15963e-05 0)
(0.0234582 -4.22028e-05 0)
(0.0235101 -4.26725e-05 0)
(0.0235631 -4.3091e-05 0)
(0.023617 -4.31199e-05 0)
(0.0236718 -4.3746e-05 0)
(0.023727 -4.26391e-05 0)
(0.0237817 -4.50065e-05 0)
(0.0238405 -4.32122e-05 0)
(0.0238858 -4.47478e-05 0)
(0.023964 -6.3051e-05 0)
(-0.000178886 0.00064511 0)
(-0.00104324 0.00125428 0)
(-0.00216825 0.00153331 0)
(-0.0033058 0.0015749 0)
(-0.00439448 0.00157025 0)
(-0.00542367 0.00152721 0)
(-0.00637771 0.00148389 0)
(-0.00726768 0.00143188 0)
(-0.0080902 0.00137902 0)
(-0.00885341 0.00132367 0)
(-0.0095587 0.00126836 0)
(-0.0102112 0.00121326 0)
(-0.0108133 0.00115921 0)
(-0.0113685 0.00110639 0)
(-0.011879 0.00105503 0)
(-0.0123471 0.00100513 0)
(-0.0127745 0.000956663 0)
(-0.013163 0.000909535 0)
(-0.0135137 0.000863613 0)
(-0.0138278 0.000818734 0)
(-0.0141059 0.000774713 0)
(-0.0143487 0.000731345 0)
(-0.0145565 0.000688403 0)
(-0.0147296 0.000645643 0)
(-0.0148678 0.000602797 0)
(-0.0149709 0.000559579 0)
(-0.0150387 0.000515684 0)
(-0.0150703 0.000470786 0)
(-0.0150653 0.000424541 0)
(-0.0150225 0.000376596 0)
(-0.014941 0.000326585 0)
(-0.0148196 0.000274143 0)
(-0.0146569 0.000218906 0)
(-0.0144517 0.000160525 0)
(-0.0142025 9.86735e-05 0)
(-0.0139077 3.30564e-05 0)
(-0.0135659 -3.65794e-05 0)
(-0.0131756 -0.000110434 0)
(-0.0127354 -0.000188648 0)
(-0.012244 -0.000271288 0)
(-0.0117001 -0.000358345 0)
(-0.0111026 -0.000449724 0)
(-0.0104508 -0.000545245 0)
(-0.00974402 -0.000644633 0)
(-0.00898183 -0.000747524 0)
(-0.00816415 -0.000853464 0)
(-0.00729116 -0.000961914 0)
(-0.00636337 -0.00107225 0)
(-0.00538162 -0.00118379 0)
(-0.0043471 -0.00129576 0)
(-0.00326136 -0.00140735 0)
(-0.00212627 -0.00151772 0)
(-0.000944101 -0.00162596 0)
(0.000282567 -0.00173118 0)
(0.00155079 -0.00183246 0)
(0.00285732 -0.0019289 0)
(0.00419857 -0.0020196 0)
(0.00557069 -0.00210372 0)
(0.00696954 -0.00218045 0)
(0.00839078 -0.00224905 0)
(0.00982984 -0.00230884 0)
(0.011282 -0.00235922 0)
(0.0127423 -0.00239969 0)
(0.0142059 -0.00242985 0)
(0.0156677 -0.00244939 0)
(0.0171227 -0.00245814 0)
(0.018566 -0.00245602 0)
(0.0199926 -0.00244309 0)
(0.0213976 -0.00241952 0)
(0.0227767 -0.00238559 0)
(0.0241252 -0.0023417 0)
(0.0254391 -0.00228838 0)
(0.0267145 -0.00222621 0)
(0.0279479 -0.0021559 0)
(0.029136 -0.00207821 0)
(0.030276 -0.00199398 0)
(0.0313655 -0.0019041 0)
(0.0324024 -0.00180948 0)
(0.033385 -0.00171107 0)
(0.0343121 -0.00160978 0)
(0.0351829 -0.00150657 0)
(0.0359969 -0.00140233 0)
(0.0367539 -0.00129793 0)
(0.0374543 -0.00119418 0)
(0.0380986 -0.00109185 0)
(0.0386877 -0.000991632 0)
(0.0392228 -0.000894148 0)
(0.0397054 -0.000799946 0)
(0.0401371 -0.000709497 0)
(0.0405197 -0.000623192 0)
(0.0408553 -0.000541347 0)
(0.041146 -0.000464201 0)
(0.0413941 -0.000391923 0)
(0.0416019 -0.000324615 0)
(0.0417718 -0.000262318 0)
(0.0419063 -0.000205016 0)
(0.0420078 -0.000152644 0)
(0.0420787 -0.000105092 0)
(0.0421215 -6.22153e-05 0)
(0.0421384 -2.38357e-05 0)
(0.0421319 1.02492e-05 0)
(0.0421041 4.02619e-05 0)
(0.0420571 6.64393e-05 0)
(0.0419931 8.90278e-05 0)
(0.041914 0.00010828 0)
(0.0418216 0.000124449 0)
(0.0417176 0.000137788 0)
(0.0416038 0.000148545 0)
(0.0414815 0.00015696 0)
(0.0413523 0.000163267 0)
(0.0412174 0.000167687 0)
(0.041078 0.000170432 0)
(0.0409352 0.000171701 0)
(0.04079 0.000171679 0)
(0.0406431 0.00017054 0)
(0.0404955 0.000168444 0)
(0.0403479 0.000165538 0)
(0.0402007 0.000161956 0)
(0.0400546 0.00015782 0)
(0.03991 0.000153239 0)
(0.0397673 0.000148313 0)
(0.0396269 0.000143128 0)
(0.039489 0.000137763 0)
(0.0393539 0.000132285 0)
(0.0392216 0.000126754 0)
(0.0390925 0.00012122 0)
(0.0389664 0.000115726 0)
(0.0388437 0.000110309 0)
(0.0387241 0.000104998 0)
(0.0386079 9.98171e-05 0)
(0.0384949 9.47851e-05 0)
(0.0383852 8.99158e-05 0)
(0.0382787 8.52188e-05 0)
(0.0381754 8.06999e-05 0)
(0.0380751 7.63615e-05 0)
(0.037978 7.22033e-05 0)
(0.0378838 6.8222e-05 0)
(0.0377925 6.44125e-05 0)
(0.037704 6.07675e-05 0)
(0.0376183 5.72783e-05 0)
(0.0375354 5.39347e-05 0)
(0.037455 5.07257e-05 0)
(0.0373773 4.76394e-05 0)
(0.0373021 4.46631e-05 0)
(0.0372293 4.1784e-05 0)
(0.037159 3.89889e-05 0)
(0.0370911 3.62646e-05 0)
(0.0370256 3.3598e-05 0)
(0.0369624 3.09763e-05 0)
(0.0369016 2.83868e-05 0)
(0.0368431 2.58175e-05 0)
(0.0367869 2.32568e-05 0)
(0.036733 2.06938e-05 0)
(0.0366815 1.81181e-05 0)
(0.0366324 1.55203e-05 0)
(0.0365856 1.28914e-05 0)
(0.0365413 1.02237e-05 0)
(0.0364994 7.5098e-06 0)
(0.03646 4.7436e-06 0)
(0.0364232 1.91968e-06 0)
(0.0363889 -9.6647e-07 0)
(0.0363572 -3.91849e-06 0)
(0.0363283 -6.93911e-06 0)
(0.036302 -1.00302e-05 0)
(0.0362785 -1.31928e-05 0)
(0.0362579 -1.6427e-05 0)
(0.0362401 -1.97322e-05 0)
(0.0362253 -2.31068e-05 0)
(0.0362135 -2.65486e-05 0)
(0.0362047 -3.00544e-05 0)
(0.0361989 -3.36205e-05 0)
(0.0361963 -3.72421e-05 0)
(0.0361969 -4.09139e-05 0)
(0.0362006 -4.46298e-05 0)
(0.0362076 -4.8383e-05 0)
(0.0362178 -5.21658e-05 0)
(0.0362313 -5.597e-05 0)
(0.0362481 -5.97864e-05 0)
(0.0362681 -6.36052e-05 0)
(0.0362915 -6.74156e-05 0)
(0.0363181 -7.12059e-05 0)
(0.036348 -7.49637e-05 0)
(0.0363811 -7.8675e-05 0)
(0.0364174 -8.23247e-05 0)
(0.0364569 -8.58965e-05 0)
(0.0364994 -8.93717e-05 0)
(0.0365451 -9.27299e-05 0)
(0.0365937 -9.5948e-05 0)
(0.0366451 -9.89984e-05 0)
(0.0366993 -0.000101854 0)
(0.0367562 -0.000104473 0)
(0.0368156 -0.00010683 0)
(0.0368772 -0.000108873 0)
(0.036941 -0.000110498 0)
(0.0370067 -0.000112034 0)
(0.0370736 -0.000112154 0)
(0.0371425 -0.000114513 0)
(0.0372108 -0.000111717 0)
(0.0372769 -0.000114602 0)
(0.0373585 -0.000121827 0)
(-0.000305614 0.00126172 0)
(-0.00151657 0.00231534 0)
(-0.00287059 0.0027236 0)
(-0.00413779 0.00273372 0)
(-0.00523684 0.00266178 0)
(-0.00621688 0.00253263 0)
(-0.00706405 0.00240382 0)
(-0.00781197 0.0022689 0)
(-0.00846213 0.00213884 0)
(-0.00903126 0.00201219 0)
(-0.00952456 0.00189122 0)
(-0.009951 0.00177552 0)
(-0.0103154 0.0016652 0)
(-0.010623 0.00155979 0)
(-0.0108773 0.00145889 0)
(-0.0110817 0.001362 0)
(-0.0112386 0.00126863 0)
(-0.01135 0.00117827 0)
(-0.0114175 0.00109045 0)
(-0.0114424 0.00100469 0)
(-0.0114254 0.000920533 0)
(-0.0113674 0.000837519 0)
(-0.0112685 0.000755193 0)
(-0.011129 0.000673097 0)
(-0.0109487 0.000590769 0)
(-0.0107276 0.000507745 0)
(-0.0104651 0.000423554 0)
(-0.0101607 0.00033772 0)
(-0.00981378 0.00024977 0)
(-0.00942358 0.000159232 0)
(-0.00898924 6.56467e-05 0)
(-0.00850987 -3.14307e-05 0)
(-0.00798453 -0.000132417 0)
(-0.00741227 -0.000237693 0)
(-0.00679217 -0.000347595 0)
(-0.00612333 -0.000462399 0)
(-0.00540493 -0.000582316 0)
(-0.00463622 -0.000707477 0)
(-0.00381661 -0.000837925 0)
(-0.00294561 -0.000973607 0)
(-0.00202293 -0.00111437 0)
(-0.00104846 -0.00125994 0)
(-2.23008e-05 -0.00140994 0)
(0.00105521 -0.00156389 0)
(0.00218349 -0.00172119 0)
(0.00336167 -0.00188112 0)
(0.00458864 -0.00204288 0)
(0.00586297 -0.00220556 0)
(0.00718296 -0.00236818 0)
(0.00854658 -0.00252966 0)
(0.00995154 -0.00268889 0)
(0.0113952 -0.00284469 0)
(0.0128747 -0.00299585 0)
(0.0143868 -0.00314117 0)
(0.0159281 -0.00327941 0)
(0.0174947 -0.00340937 0)
(0.0190829 -0.00352989 0)
(0.0206882 -0.00363983 0)
(0.0223064 -0.00373814 0)
(0.0239328 -0.00382386 0)
(0.0255628 -0.00389611 0)
(0.0271915 -0.00395413 0)
(0.0288141 -0.0039973 0)
(0.0304255 -0.00402513 0)
(0.032021 -0.00403726 0)
(0.0335956 -0.00403352 0)
(0.0351446 -0.00401389 0)
(0.0366634 -0.00397851 0)
(0.0381476 -0.0039277 0)
(0.0395931 -0.00386192 0)
(0.0409958 -0.00378182 0)
(0.0423523 -0.00368817 0)
(0.0436592 -0.00358189 0)
(0.0449136 -0.00346403 0)
(0.0461132 -0.00333572 0)
(0.0472556 -0.00319818 0)
(0.0483394 -0.00305273 0)
(0.0493631 -0.00290068 0)
(0.0503259 -0.00274341 0)
(0.0512273 -0.00258225 0)
(0.0520673 -0.00241856 0)
(0.0528462 -0.00225363 0)
(0.0535645 -0.00208869 0)
(0.0542231 -0.00192492 0)
(0.0548234 -0.0017634 0)
(0.0553667 -0.00160511 0)
(0.0558547 -0.00145094 0)
(0.0562894 -0.00130168 0)
(0.0566727 -0.00115799 0)
(0.0570068 -0.00102044 0)
(0.057294 -0.00088949 0)
(0.0575366 -0.000765485 0)
(0.057737 -0.000648685 0)
(0.0578976 -0.000539253 0)
(0.0580209 -0.000437269 0)
(0.0581092 -0.000342736 0)
(0.0581649 -0.000255588 0)
(0.0581905 -0.000175697 0)
(0.0581881 -0.000102885 0)
(0.0581601 -3.69278e-05 0)
(0.0581086 2.24363e-05 0)
(0.0580356 7.54979e-05 0)
(0.0579433 0.000122571 0)
(0.0578335 0.000163988 0)
(0.0577081 0.000200091 0)
(0.0575687 0.000231229 0)
(0.0574171 0.000257754 0)
(0.0572547 0.000280016 0)
(0.0570831 0.000298359 0)
(0.0569036 0.000313119 0)
(0.0567175 0.000324624 0)
(0.0565258 0.000333186 0)
(0.0563298 0.000339105 0)
(0.0561304 0.000342667 0)
(0.0559284 0.000344139 0)
(0.0557248 0.000343775 0)
(0.0555202 0.00034181 0)
(0.0553154 0.000338462 0)
(0.0551108 0.000333932 0)
(0.0549072 0.000328407 0)
(0.0547048 0.000322055 0)
(0.0545042 0.000315029 0)
(0.0543056 0.000307468 0)
(0.0541094 0.000299494 0)
(0.0539158 0.000291219 0)
(0.0537251 0.000282739 0)
(0.0535374 0.000274139 0)
(0.0533528 0.000265492 0)
(0.0531715 0.000256861 0)
(0.0529936 0.0002483 0)
(0.052819 0.000239851 0)
(0.0526478 0.000231551 0)
(0.0524801 0.000223427 0)
(0.0523158 0.0002155 0)
(0.052155 0.000207784 0)
(0.0519975 0.00020029 0)
(0.0518434 0.00019302 0)
(0.0516927 0.000185975 0)
(0.0515452 0.000179151 0)
(0.051401 0.000172539 0)
(0.05126 0.000166129 0)
(0.0511221 0.000159909 0)
(0.0509874 0.000153863 0)
(0.0508557 0.000147974 0)
(0.0507271 0.000142226 0)
(0.0506016 0.000136599 0)
(0.050479 0.000131075 0)
(0.0503594 0.000125632 0)
(0.0502428 0.000120252 0)
(0.0501291 0.000114916 0)
(0.0500184 0.000109603 0)
(0.0499106 0.000104295 0)
(0.0498059 9.89747e-05 0)
(0.0497042 9.36249e-05 0)
(0.0496055 8.82294e-05 0)
(0.0495098 8.27735e-05 0)
(0.0494173 7.72435e-05 0)
(0.0493279 7.16271e-05 0)
(0.0492417 6.59133e-05 0)
(0.0491588 6.00926e-05 0)
(0.0490792 5.4157e-05 0)
(0.049003 4.80998e-05 0)
(0.0489302 4.1916e-05 0)
(0.0488609 3.56019e-05 0)
(0.0487951 2.91556e-05 0)
(0.048733 2.25766e-05 0)
(0.0486747 1.58656e-05 0)
(0.0486201 9.02515e-06 0)
(0.0485693 2.0591e-06 0)
(0.0485224 -5.02731e-06 0)
(0.0484795 -1.22274e-05 0)
(0.0484406 -1.95332e-05 0)
(0.0484058 -2.69353e-05 0)
(0.0483751 -3.4423e-05 0)
(0.0483486 -4.19845e-05 0)
(0.0483263 -4.96064e-05 0)
(0.0483082 -5.72743e-05 0)
(0.0482944 -6.49724e-05 0)
(0.0482849 -7.26837e-05 0)
(0.0482797 -8.03897e-05 0)
(0.0482788 -8.80707e-05 0)
(0.0482821 -9.57053e-05 0)
(0.0482898 -0.000103271 0)
(0.0483017 -0.000110742 0)
(0.0483178 -0.000118093 0)
(0.048338 -0.000125294 0)
(0.0483624 -0.000132313 0)
(0.0483908 -0.000139114 0)
(0.0484232 -0.000145656 0)
(0.0484594 -0.000151893 0)
(0.0484993 -0.000157775 0)
(0.0485429 -0.000163233 0)
(0.0485898 -0.000168205 0)
(0.0486401 -0.000172584 0)
(0.0486932 -0.000176346 0)
(0.0487491 -0.000179047 0)
(0.0488072 -0.000181813 0)
(0.0488662 -0.000180676 0)
(0.0489266 -0.000184163 0)
(0.0489936 -0.000179586 0)
(-0.000405048 0.00246927 0)
(-0.00171905 0.00379597 0)
(-0.00298714 0.00414085 0)
(-0.00405001 0.00388957 0)
(-0.00482684 0.00361646 0)
(-0.00542849 0.00331396 0)
(-0.00585186 0.00305001 0)
(-0.00615651 0.0028035 0)
(-0.00635164 0.00257951 0)
(-0.00646336 0.00237175 0)
(-0.00650013 0.00217906 0)
(-0.00647384 0.00199893 0)
(-0.00639028 0.00182972 0)
(-0.00625544 0.00166984 0)
(-0.00607297 0.00151792 0)
(-0.00584613 0.00137275 0)
(-0.00557715 0.00123324 0)
(-0.00526784 0.00109842 0)
(-0.00491947 0.000967413 0)
(-0.00453299 0.000839404 0)
(-0.004109 0.000713643 0)
(-0.00364786 0.000589427 0)
(-0.0031497 0.000466082 0)
(-0.00261447 0.000342964 0)
(-0.00204195 0.00021945 0)
(-0.00143181 9.49337e-05 0)
(-0.000783583 -3.11737e-05 0)
(-9.67385e-05 -0.000159444 0)
(0.000629332 -0.000290429 0)
(0.00139527 -0.000424657 0)
(0.00220176 -0.000562624 0)
(0.00304945 -0.000704791 0)
(0.00393899 -0.00085157 0)
(0.00487099 -0.00100332 0)
(0.00584597 -0.00116032 0)
(0.00686439 -0.0013228 0)
(0.00792657 -0.00149087 0)
(0.00903272 -0.00166456 0)
(0.0101829 -0.0018438 0)
(0.011377 -0.00202838 0)
(0.0126148 -0.002218 0)
(0.0138957 -0.00241222 0)
(0.015219 -0.00261046 0)
(0.0165839 -0.00281204 0)
(0.0179891 -0.00301615 0)
(0.0194332 -0.00322184 0)
(0.0209145 -0.00342806 0)
(0.0224311 -0.00363367 0)
(0.0239809 -0.00383741 0)
(0.0255612 -0.00403795 0)
(0.0271695 -0.00423391 0)
(0.0288026 -0.00442384 0)
(0.0304574 -0.00460626 0)
(0.0321303 -0.00477968 0)
(0.0338176 -0.00494261 0)
(0.0355153 -0.00509359 0)
(0.0372192 -0.0052312 0)
(0.038925 -0.00535409 0)
(0.0406283 -0.005461 0)
(0.0423243 -0.00555077 0)
(0.0440084 -0.00562237 0)
(0.0456757 -0.00567492 0)
(0.0473217 -0.00570771 0)
(0.0489414 -0.0057202 0)
(0.0505302 -0.00571205 0)
(0.0520837 -0.00568312 0)
(0.0535975 -0.00563349 0)
(0.0550675 -0.00556343 0)
(0.0564898 -0.00547347 0)
(0.0578608 -0.0053643 0)
(0.0591775 -0.00523685 0)
(0.0604369 -0.00509222 0)
(0.0616366 -0.0049317 0)
(0.0627748 -0.0047567 0)
(0.0638498 -0.0045688 0)
(0.0648605 -0.00436964 0)
(0.0658062 -0.00416097 0)
(0.0666868 -0.00394456 0)
(0.0675024 -0.00372221 0)
(0.0682535 -0.00349569 0)
(0.0689411 -0.00326675 0)
(0.0695663 -0.00303708 0)
(0.0701308 -0.00280826 0)
(0.0706362 -0.00258178 0)
(0.0710847 -0.00235901 0)
(0.0714783 -0.00214121 0)
(0.0718194 -0.00192947 0)
(0.0721104 -0.00172477 0)
(0.0723538 -0.00152791 0)
(0.0725522 -0.00133958 0)
(0.0727081 -0.00116032 0)
(0.072824 -0.000990536 0)
(0.0729027 -0.000830526 0)
(0.0729464 -0.000680458 0)
(0.0729578 -0.000540399 0)
(0.0729392 -0.000410323 0)
(0.0728928 -0.00029012 0)
(0.072821 -0.000179605 0)
(0.0727259 -7.8531e-05 0)
(0.0726095 1.34014e-05 0)
(0.0724738 9.65372e-05 0)
(0.0723206 0.000171256 0)
(0.0721517 0.000237965 0)
(0.0719687 0.00029709 0)
(0.0717733 0.000349072 0)
(0.0715669 0.000394358 0)
(0.0713508 0.000433397 0)
(0.0711265 0.000466638 0)
(0.070895 0.000494521 0)
(0.0706575 0.000517477 0)
(0.070415 0.000535926 0)
(0.0701686 0.000550271 0)
(0.069919 0.000560902 0)
(0.069667 0.000568187 0)
(0.0694135 0.000572478 0)
(0.0691591 0.000574106 0)
(0.0689045 0.000573382 0)
(0.06865 0.000570596 0)
(0.0683963 0.000566018 0)
(0.0681438 0.000559899 0)
(0.0678929 0.000552467 0)
(0.0676438 0.000543934 0)
(0.067397 0.000534492 0)
(0.0671527 0.000524312 0)
(0.0669111 0.000513552 0)
(0.0666724 0.00050235 0)
(0.0664367 0.00049083 0)
(0.0662042 0.000479101 0)
(0.0659749 0.000467257 0)
(0.065749 0.000455379 0)
(0.0655265 0.000443537 0)
(0.0653075 0.000431788 0)
(0.0650919 0.000420179 0)
(0.0648798 0.000408748 0)
(0.0646712 0.000397524 0)
(0.0644661 0.000386527 0)
(0.0642644 0.000375771 0)
(0.0640662 0.000365263 0)
(0.0638713 0.000355003 0)
(0.0636799 0.000344988 0)
(0.0634918 0.000335208 0)
(0.063307 0.000325653 0)
(0.0631254 0.000316305 0)
(0.0629472 0.000307146 0)
(0.0627721 0.000298155 0)
(0.0626003 0.00028931 0)
(0.0624317 0.000280587 0)
(0.0622662 0.00027196 0)
(0.0621039 0.000263405 0)
(0.0619448 0.000254895 0)
(0.0617889 0.000246405 0)
(0.0616361 0.00023791 0)
(0.0614866 0.000229385 0)
(0.0613403 0.000220806 0)
(0.0611972 0.000212152 0)
(0.0610574 0.000203401 0)
(0.060921 0.000194533 0)
(0.0607879 0.000185531 0)
(0.0606582 0.000176378 0)
(0.0605321 0.00016706 0)
(0.0604095 0.000157564 0)
(0.0602905 0.000147881 0)
(0.0601751 0.000138003 0)
(0.0600635 0.000127922 0)
(0.0599558 0.000117636 0)
(0.0598519 0.000107142 0)
(0.0597519 9.64419e-05 0)
(0.0596561 8.55372e-05 0)
(0.0595643 7.44331e-05 0)
(0.0594767 6.31366e-05 0)
(0.0593934 5.16565e-05 0)
(0.0593144 4.0004e-05 0)
(0.0592398 2.81923e-05 0)
(0.0591696 1.62362e-05 0)
(0.0591039 4.15296e-06 0)
(0.0590428 -8.03866e-06 0)
(0.0589863 -2.03178e-05 0)
(0.0589345 -3.2662e-05 0)
(0.0588873 -4.50465e-05 0)
(0.0588448 -5.74451e-05 0)
(0.0588071 -6.98295e-05 0)
(0.0587741 -8.21695e-05 0)
(0.0587458 -9.44327e-05 0)
(0.0587222 -0.000106584 0)
(0.0587033 -0.000118588 0)
(0.0586891 -0.000130402 0)
(0.0586795 -0.000141984 0)
(0.0586744 -0.000153287 0)
(0.0586739 -0.000164255 0)
(0.0586779 -0.000174831 0)
(0.0586861 -0.000184944 0)
(0.0586986 -0.000194512 0)
(0.0587153 -0.000203447 0)
(0.0587358 -0.000211598 0)
(0.0587602 -0.000218878 0)
(0.0587881 -0.000224938 0)
(0.0588192 -0.00022988 0)
(0.0588529 -0.000231781 0)
(0.0588894 -0.000235573 0)
(0.0589301 -0.0002241 0)
(-0.000693593 0.00309395 0)
(-0.00209178 0.00472215 0)
(-0.00255492 0.00495118 0)
(-0.00279331 0.00450413 0)
(-0.00262884 0.00403169 0)
(-0.00238063 0.00356495 0)
(-0.00198683 0.0031609 0)
(-0.00153182 0.0028028 0)
(-0.00100677 0.0024862 0)
(-0.000437143 0.00220248 0)
(0.000175209 0.00194507 0)
(0.000821096 0.00170916 0)
(0.00149805 0.00149046 0)
(0.00220231 0.0012859 0)
(0.00293232 0.00109281 0)
(0.00368652 0.000909124 0)
(0.00446417 0.000733036 0)
(0.00526475 0.000563068 0)
(0.00608811 0.000397914 0)
(0.00693427 0.000236439 0)
(0.00780347 7.76202e-05 0)
(0.00869608 -7.94658e-05 0)
(0.00961259 -0.000235671 0)
(0.0105536 -0.000391787 0)
(0.0115197 -0.000548555 0)
(0.0125117 -0.000706674 0)
(0.0135302 -0.000866803 0)
(0.0145761 -0.00102956 0)
(0.01565 -0.00119553 0)
(0.0167528 -0.00136525 0)
(0.0178851 -0.00153921 0)
(0.0190476 -0.00171784 0)
(0.0202408 -0.00190152 0)
(0.0214653 -0.00209053 0)
(0.0227213 -0.00228511 0)
(0.0240092 -0.00248536 0)
(0.0253291 -0.00269133 0)
(0.0266809 -0.00290291 0)
(0.0280644 -0.0031199 0)
(0.0294793 -0.00334197 0)
(0.0309249 -0.00356865 0)
(0.0324004 -0.00379935 0)
(0.0339048 -0.00403332 0)
(0.0354368 -0.00426969 0)
(0.0369951 -0.00450744 0)
(0.0385777 -0.00474543 0)
(0.0401828 -0.00498241 0)
(0.0418081 -0.00521698 0)
(0.0434511 -0.00544768 0)
(0.0451091 -0.00567293 0)
(0.046779 -0.0058911 0)
(0.0484577 -0.00610049 0)
(0.0501417 -0.00629938 0)
(0.0518272 -0.00648603 0)
(0.0535103 -0.0066587 0)
(0.0551871 -0.0068157 0)
(0.0568531 -0.0069554 0)
(0.0585041 -0.00707624 0)
(0.0601356 -0.00717678 0)
(0.061743 -0.00725571 0)
(0.0633218 -0.0073119 0)
(0.0648674 -0.00734438 0)
(0.0663754 -0.00735241 0)
(0.0678415 -0.00733545 0)
(0.0692615 -0.00729324 0)
(0.0706316 -0.00722575 0)
(0.0719482 -0.00713322 0)
(0.0732081 -0.00701617 0)
(0.0744082 -0.00687537 0)
(0.0755462 -0.00671187 0)
(0.0766201 -0.00652694 0)
(0.0776283 -0.0063221 0)
(0.0785697 -0.00609905 0)
(0.0794439 -0.00585968 0)
(0.0802506 -0.00560601 0)
(0.0809903 -0.00534018 0)
(0.0816638 -0.00506438 0)
(0.0822722 -0.00478083 0)
(0.0828172 -0.00449177 0)
(0.0833007 -0.00419937 0)
(0.0837247 -0.00390575 0)
(0.0840917 -0.00361291 0)
(0.0844042 -0.00332272 0)
(0.084665 -0.00303694 0)
(0.0848767 -0.00275714 0)
(0.0850423 -0.00248471 0)
(0.0851646 -0.0022209 0)
(0.0852464 -0.00196674 0)
(0.0852904 -0.00172312 0)
(0.0852995 -0.00149073 0)
(0.0852761 -0.00127012 0)
(0.0852228 -0.00106167 0)