/*--------------------------------*- C++ -*----------------------------------*\
| =========                 |                                                 |
| \\      /  F ield         | OpenFOAM: The Open Source CFD Toolbox           |
|  \\    /   O peration     | Version:  4.1                                   |
|   \\  /    A nd           | Web:      www.OpenFOAM.org                      |
|    \\/     M anipulation  |                                                 |
\*---------------------------------------------------------------------------*/
FoamFile
{
    version     2.0;
    format      ascii;
    class       volVectorField;
    location    "0.0432";
    object      U;
}
// * * * * * * * * * * * * * * * * * * * * * * * * * * * * * * * * * * * * * //

dimensions      [0 1 -1 0 0 0 0];

internalField   nonuniform List<vector> 
441
(
(-9.55841e-05 7.3594e-05 0)
(-0.000490282 0.000289951 0)
(-0.00112067 0.000521337 0)
(-0.00194146 0.000692544 0)
(-0.00287572 0.000782793 0)
(-0.00383756 0.000791564 0)
(-0.00474571 0.000727266 0)
(-0.00553008 0.000602365 0)
(-0.00613473 0.000430968 0)
(-0.00651879 0.000227713 0)
(-0.00665673 7.42914e-06 0)
(-0.00653849 -0.000214782 0)
(-0.00616983 -0.000423322 0)
(-0.00557311 -0.00060199 0)
(-0.00478795 -0.000734228 0)
(-0.00387137 -0.000803955 0)
(-0.00289659 -0.000797255 0)
(-0.0019492 -0.000705303 0)
(-0.00111916 -0.000529531 0)
(-0.000485712 -0.000292843 0)
(-9.36359e-05 -7.29487e-05 0)
(-0.000362763 0.000439052 0)
(-0.0016174 0.00141232 0)
(-0.00341788 0.00232099 0)
(-0.00564179 0.00297315 0)
(-0.00810474 0.00330247 0)
(-0.0106026 0.00330793 0)
(-0.0129408 0.00302228 0)
(-0.0149497 0.00249464 0)
(-0.0164931 0.00178109 0)
(-0.0174712 0.000940076 0)
(-0.0178215 3.09276e-05 0)
(-0.0175197 -0.000885921 0)
(-0.0165802 -0.00174807 0)
(-0.0150581 -0.00249074 0)
(-0.01305 -0.00304788 0)
(-0.0106942 -0.00335554 0)
(-0.00816694 -0.00335877 0)
(-0.00567251 -0.00302307 0)
(-0.00342444 -0.00235296 0)
(-0.00161294 -0.00142322 0)
(-0.000360124 -0.000436854 0)
(-0.000668313 0.00108086 0)
(-0.00280598 0.00316802 0)
(-0.00570479 0.00496123 0)
(-0.00916558 0.00620066 0)
(-0.0129209 0.00679395 0)
(-0.0166818 0.00675028 0)
(-0.0201742 0.00613646 0)
(-0.0231596 0.00504906 0)
(-0.0254462 0.00359779 0)
(-0.0268933 0.00189697 0)
(-0.0274128 6.26818e-05 0)
(-0.0269702 -0.00178683 0)
(-0.0255856 -0.00352952 0)
(-0.0233358 -0.0050388 0)
(-0.0203564 -0.0061855 0)
(-0.0168411 -0.00684448 0)
(-0.0130375 -0.00690741 0)
(-0.00923322 -0.00630339 0)
(-0.00573141 -0.00502937 0)
(-0.00280923 -0.00319377 0)
(-0.000667051 -0.00107855 0)
(-0.000968977 0.00200495 0)
(-0.00397014 0.00557007 0)
(-0.00791597 0.00845158 0)
(-0.0125228 0.0103687 0)
(-0.0174425 0.0112315 0)
(-0.0223143 0.0110776 0)
(-0.0268022 0.010022 0)
(-0.0306181 0.00822044 0)
(-0.0335315 0.00584695 0)
(-0.0353745 0.00308151 0)
(-0.0360416 0.000106113 0)
(-0.0354906 -0.00289419 0)
(-0.0337438 -0.00572838 0)
(-0.0308906 -0.00819783 0)
(-0.0270909 -0.0100989 0)
(-0.0225764 -0.0112324 0)
(-0.0176462 -0.0114228 0)
(-0.0126542 -0.010547 0)
(-0.00798128 -0.00857544 0)
(-0.003991 -0.00562261 0)
(-0.000971553 -0.00200564 0)
(-0.00126177 0.00320966 0)
(-0.00510993 0.00862244 0)
(-0.0100773 0.0128008 0)
(-0.0157881 0.0154806 0)
(-0.0218097 0.0166063 0)
(-0.0277125 0.016269 0)
(-0.0331084 0.0146506 0)
(-0.0376712 0.0119805 0)
(-0.0411447 0.00850766 0)
(-0.0433432 0.00448573 0)
(-0.0441504 0.000168798 0)
(-0.043518 -0.00418583 0)
(-0.0414668 -0.00831228 0)
(-0.0380908 -0.0119324 0)
(-0.0335626 -0.014758 0)
(-0.0281381 -0.0165024 0)
(-0.0221562 -0.0169051 0)
(-0.0160283 -0.0157692 0)
(-0.0102123 -0.0130118 0)
(-0.00516476 -0.00872251 0)
(-0.00127223 -0.00321971 0)
(-0.00155433 0.00469735 0)
(-0.00625431 0.0123352 0)
(-0.0122451 0.0180232 0)
(-0.01905 0.0215463 0)
(-0.026147 0.022918 0)
(-0.0330381 0.0223127 0)
(-0.0392893 0.0200031 0)
(-0.044546 0.0163091 0)
(-0.0485363 0.0115659 0)
(-0.0510663 0.00610704 0)
(-0.052014 0.000261918 0)
(-0.0513264 -0.00563805 0)
(-0.049019 -0.0112498 0)
(-0.0451825 -0.0162109 0)
(-0.0399911 -0.0201394 0)
(-0.0337129 -0.0226465 0)
(-0.0267163 -0.023365 0)
(-0.0194652 -0.0219959 0)
(-0.0124961 -0.01837 0)
(-0.00636818 -0.012517 0)
(-0.00157894 -0.00472872 0)
(-0.0018553 0.00647908 0)
(-0.00743448 0.0167313 0)
(-0.0144709 0.0241425 0)
(-0.0223763 0.0285805 0)
(-0.030533 0.0301666 0)
(-0.0383766 0.029195 0)
(-0.0454339 0.0260571 0)
(-0.0513331 0.0211833 0)
(-0.0557981 0.0150059 0)
(-0.0586362 0.0079431 0)
(-0.0597266 0.000399471 0)
(-0.0590125 -0.0072218 0)
(-0.0565009 -0.0145022 0)
(-0.05227 -0.0209936 0)
(-0.0464833 -0.026213 0)
(-0.0394075 -0.0296531 0)
(-0.0314278 -0.0308145 0)
(-0.0230534 -0.0292611 0)
(-0.0149009 -0.0246959 0)
(-0.00764224 -0.017048 0)
(-0.00190291 -0.00655213 0)
(-0.00217049 0.00857388 0)
(-0.00867034 0.0218436 0)
(-0.0167809 0.0311847 0)
(-0.0257878 0.0365899 0)
(-0.0349728 0.0383362 0)
(-0.0437093 0.0368807 0)
(-0.0514967 0.0327676 0)
(-0.0579608 0.0265595 0)
(-0.0628365 0.0187969 0)
(-0.0659454 0.0099842 0)
(-0.0671754 0.000596929 0)
(-0.0664689 -0.00889744 0)
(-0.0638203 -0.0180121 0)
(-0.0592855 -0.0262163 0)
(-0.0530019 -0.032921 0)
(-0.0452161 -0.0374851 0)
(-0.0363124 -0.0392476 0)
(-0.0268322 -0.0375922 0)
(-0.0174686 -0.032042 0)
(-0.0090168 -0.0223722 0)
(-0.00225265 -0.00872034 0)
(-0.00250064 0.0110055 0)
(-0.009962 0.0277054 0)
(-0.0191605 0.0391632 0)
(-0.0292375 0.0455534 0)
(-0.0393711 0.0473705 0)
(-0.0488834 0.045288 0)
(-0.0572651 0.0400427 0)
(-0.0641613 0.0323531 0)
(-0.0693389 0.0228773 0)
(-0.0726504 0.0122038 0)
(-0.0740042 0.000868987 0)
(-0.0733458 -0.0106093 0)
(-0.0706534 -0.02169 0)
(-0.0659492 -0.0317693 0)
(-0.0593254 -0.040153 0)
(-0.0509836 -0.0460522 0)
(-0.0412798 -0.0486125 0)
(-0.0307648 -0.0469863 0)
(-0.0201966 -0.0404494 0)
(-0.0105008 -0.028551 0)
(-0.00263145 -0.0112715 0)
(-0.00283944 0.0137978 0)
(-0.0112823 0.0343372 0)
(-0.0215392 0.048057 0)
(-0.032587 0.0553942 0)
(-0.0435027 0.0571417 0)
(-0.0535769 0.0542569 0)
(-0.0623208 0.0477148 0)
(-0.0694302 0.0384143 0)
(-0.0747317 0.0271368 0)
(-0.0781308 0.0145474 0)
(-0.0795707 0.00122608 0)
(-0.0790066 -0.0122809 0)
(-0.0763982 -0.0254011 0)
(-0.0717215 -0.0374762 0)
(-0.0650007 -0.0477157 0)
(-0.05636 -0.055175 0)
(-0.0460888 -0.0587747 0)
(-0.0347093 -0.0573761 0)
(-0.0230186 -0.0499217 0)
(-0.0120729 -0.0356343 0)
(-0.00303503 -0.014246 0)
(-0.00317105 0.0169686 0)
(-0.0125675 0.0417286 0)
(-0.0237729 0.0577821 0)
(-0.0355795 0.0659432 0)
(-0.046976 0.0674118 0)
(-0.0572566 0.063512 0)
(-0.0659962 0.0555079 0)
(-0.0729827 0.0445011 0)
(-0.0781377 0.0313966 0)
(-0.0814459 0.01692 0)
(-0.0829029 0.00166939 0)
(-0.0824824 -0.013812 0)
(-0.0801251 -0.0289529 0)
(-0.0757494 -0.0430711 0)
(-0.0692874 -0.0553004 0)
(-0.0607469 -0.0645436 0)
(-0.050299 -0.06947 0)
(-0.0383803 -0.0685842 0)
(-0.0257802 -0.0603875 0)
(-0.0136688 -0.0436376 0)
(-0.00344829 -0.01768 0)
(-0.003466 0.0205233 0)
(-0.0137028 0.0498157 0)
(-0.0256157 0.0681542 0)
(-0.0377989 0.0768942 0)
(-0.0491841 0.0777864 0)
(-0.0591255 0.0726208 0)
(-0.067322 0.0630038 0)
(-0.073706 0.0502549 0)
(-0.0783335 0.0353917 0)
(-0.0812967 0.0191746 0)
(-0.0826619 0.00218452 0)
(-0.0824319 -0.0150785 0)
(-0.0805311 -0.032088 0)
(-0.0768133 -0.0481807 0)
(-0.0710965 -0.0624522 0)
(-0.0632314 -0.073673 0)
(-0.0532077 -0.0802493 0)
(-0.0412968 -0.0802654 0)
(-0.0282018 -0.0716516 0)
(-0.0151624 -0.0525113 0)
(-0.00384028 -0.0215952 0)
(-0.0036736 0.0244446 0)
(-0.0144957 0.058451 0)
(-0.0266733 0.0788407 0)
(-0.0386058 0.0877477 0)
(-0.049232 0.0876623 0)
(-0.0580518 0.080953 0)
(-0.0649665 0.0696137 0)
(-0.0701114 0.055181 0)
(-0.0737155 0.038759 0)
(-0.0760019 0.0211035 0)
(-0.0771222 0.00273451 0)
(-0.0771189 -0.0159386 0)
(-0.0759075 -0.0344855 0)
(-0.0732784 -0.0523173 0)
(-0.0689248 -0.0685478 0)
(-0.0625057 -0.0818619 0)
(-0.0537632 -0.0904187 0)
(-0.0427023 -0.0918352 0)
(-0.0298202 -0.0833287 0)
(-0.0163329 -0.0620978 0)
(-0.00415522 -0.0259862 0)
(-0.00370696 0.0286805 0)
(-0.0146245 0.0673606 0)
(-0.0263155 0.0892945 0)
(-0.0370279 0.0977426 0)
(-0.0458237 0.0961731 0)
(-0.0524699 0.0876461 0)
(-0.0571609 0.0745633 0)
(-0.0602885 0.0586478 0)
(-0.0622796 0.0410402 0)
(-0.0634965 0.0224393 0)
(-0.0641802 0.00325408 0)
(-0.0644194 -0.0162457 0)
(-0.0641329 -0.0357785 0)
(-0.0630639 -0.0548932 0)
(-0.0607904 -0.0727965 0)
(-0.0567699 -0.0881685 0)
(-0.0504445 -0.0989829 0)
(-0.0414418 -0.102388 0)
(-0.0298875 -0.0947572 0)
(-0.0168052 -0.0720708 0)
(-0.00429583 -0.0308008 0)
(-0.00341149 0.0331198 0)
(-0.0135309 0.0760761 0)
(-0.023509 0.0986618 0)
(-0.0315666 0.105774 0)
(-0.0370811 0.102142 0)
(-0.0402391 0.091596 0)
(-0.0416105 0.0769105 0)
(-0.0418684 0.0599167 0)
(-0.0416281 0.0417115 0)
(-0.0413704 0.0228724 0)
(-0.0414091 0.00364867 0)
(-0.0418764 -0.0158698 0)
(-0.0427112 -0.035594 0)
(-0.0436438 -0.0552696 0)
(-0.0441822 -0.0742828 0)
(-0.0436185 -0.0914246 0)
(-0.0410905 -0.104613 0)
(-0.0357623 -0.110612 0)
(-0.0271911 -0.104884 0)
(-0.0159344 -0.0818431 0)
(-0.00409037 -0.0359082 0)
(-0.00249509 0.0375468 0)
(-0.0101901 0.0838179 0)
(-0.0164866 0.105646 0)
(-0.0198526 0.110306 0)
(-0.0202571 0.104064 0)
(-0.0184483 0.0915001 0)
(-0.0153956 0.0756229 0)
(-0.0120078 0.0582263 0)
(-0.00901893 0.0402544 0)
(-0.00696191 0.0220954 0)
(-0.00617702 0.00380378 0)
(-0.00682313 -0.0147282 0)
(-0.00887611 -0.0336217 0)
(-0.0121074 -0.0528567 0)
(-0.0160437 -0.0720777 0)
(-0.0199206 -0.0903274 0)
(-0.0226657 -0.105672 0)
(-0.0229898 -0.114719 0)
(-0.0197195 -0.112119 0)
(-0.0125681 -0.0904213 0)
(-0.00322204 -0.0410406 0)
(-0.00035454 0.0415275 0)
(-0.00259001 0.0892658 0)
(-0.00208942 0.108306 0)
(0.00195085 0.1093 0)
(0.00869461 0.100171 0)
(0.0168264 0.0860046 0)
(0.0251098 0.0697522 0)
(0.0325706 0.0529559 0)
(0.0385121 0.0362836 0)
(0.0424684 0.0198834 0)
(0.0441499 0.0036111 0)
(0.0434054 -0.0128181 0)
(0.0402105 -0.0297105 0)
(0.0346883 -0.0472723 0)
(0.0271669 -0.0654468 0)
(0.0182723 -0.0836563 0)
(0.00904062 -0.100377 0)
(0.000986869 -0.11246 0)
(-0.00403197 -0.114162 0)
(-0.00452736 -0.0961539 0)
(-0.00105671 -0.0456674 0)
(0.00441952 0.04417 0)
(0.0135075 0.0901672 0)
(0.0255489 0.103842 0)
(0.0401358 0.100286 0)
(0.0556898 0.0887014 0)
(0.0707444 0.0740443 0)
(0.0842219 0.0587562 0)
(0.0954194 0.0438861 0)
(0.103913 0.0297358 0)
(0.109457 0.0162115 0)
(0.111905 0.00301573 0)
(0.111157 -0.0102437 0)
(0.107143 -0.0239797 0)
(0.0998299 -0.0385537 0)
(0.0892717 -0.05417 0)
(0.0757084 -0.070681 0)
(0.0597287 -0.0872048 0)
(0.0424941 -0.101371 0)
(0.0259451 -0.107912 0)
(0.0125996 -0.0963505 0)
(0.00385256 -0.0487332 0)
(0.0159597 0.0432652 0)
(0.0476812 0.0822855 0)
(0.0775091 0.0883443 0)
(0.104847 0.0807667 0)
(0.129028 0.0685441 0)
(0.149679 0.0554589 0)
(0.166658 0.0429819 0)
(0.179971 0.0315399 0)
(0.189697 0.0210924 0)
(0.195926 0.0113874 0)
(0.198713 0.00207849 0)
(0.198049 -0.00722102 0)
(0.193835 -0.0169093 0)
(0.185884 -0.0273705 0)
(0.173924 -0.0389319 0)
(0.15763 -0.0517683 0)
(0.136704 -0.0656693 0)
(0.11104 -0.0794573 0)
(0.0811006 -0.0895519 0)
(0.0484329 -0.0864014 0)
(0.0156834 -0.0478118 0)
(0.0496401 0.0349464 0)
(0.123086 0.0598654 0)
(0.174648 0.0584571 0)
(0.211531 0.0501358 0)
(0.239254 0.040781 0)
(0.260474 0.0320264 0)
(0.276678 0.0242835 0)
(0.288753 0.0175216 0)
(0.297277 0.0115538 0)
(0.302624 0.00613956 0)
(0.305008 0.00102163 0)
(0.304495 -0.00406077 0)
(0.301 -0.00936867 0)
(0.294268 -0.0151614 0)
(0.283832 -0.0216911 0)
(0.26893 -0.0291832 0)
(0.248345 -0.0377798 0)
(0.220082 -0.0473443 0)
(0.180947 -0.056779 0)
(0.125531 -0.060765 0)
(0.0497641 -0.0386376 0)
(0.1829 0.00470344 0)
(0.296953 0.00845984 0)
(0.351183 0.0121314 0)
(0.378971 0.011986 0)
(0.396212 0.0102283 0)
(0.407896 0.00815586 0)
(0.416174 0.00619731 0)
(0.422043 0.00445384 0)
(0.426044 0.0029098 0)
(0.428486 0.00151163 0)
(0.429541 0.000194612 0)
(0.429273 -0.00110751 0)
(0.427648 -0.00245813 0)
(0.424519 -0.00391255 0)
(0.419583 -0.00550616 0)
(0.41227 -0.00722512 0)
(0.401449 -0.008933 0)
(0.384611 -0.010208 0)
(0.355965 -0.0100147 0)
(0.298605 -0.00722601 0)
(0.181175 -0.00734656 0)
)
;

boundaryField
{
    movingWall
    {
        type            fixedValue;
        value           uniform (0.5 0 0);
    }
    fixedWalls
    {
        type            noSlip;
    }
    frontAndBack
    {
        type            empty;
    }
}


// ************************************************************************* //
