/*--------------------------------*- C++ -*----------------------------------*\
| =========                 |                                                 |
| \\      /  F ield         | OpenFOAM: The Open Source CFD Toolbox           |
|  \\    /   O peration     | Version:  4.1                                   |
|   \\  /    A nd           | Web:      www.OpenFOAM.org                      |
|    \\/     M anipulation  |                                                 |
\*---------------------------------------------------------------------------*/
FoamFile
{
    version     2.0;
    format      ascii;
    class       volScalarField;
    location    "75";
    object      p;
}
// * * * * * * * * * * * * * * * * * * * * * * * * * * * * * * * * * * * * * //

dimensions      [1 -1 -2 0 0 0 0];

internalField   nonuniform List<scalar> 
3264
(
0.713141
0.713133
0.71312
0.713101
0.713079
0.713055
0.713031
0.713009
0.71299
0.712977
0.712971
0.712974
0.712986
0.71301
0.713046
0.713095
0.713157
0.713233
0.713322
0.713424
0.713539
0.713665
0.713802
0.713947
0.7141
0.714257
0.714419
0.714581
0.714744
0.714903
0.715058
0.715207
0.715348
0.71548
0.715603
0.715714
0.715814
0.715903
0.715981
0.716047
0.716102
0.716147
0.716183
0.71621
0.71623
0.716243
0.71625
0.716253
0.716251
0.716247
0.716241
0.716233
0.716224
0.716215
0.716205
0.716194
0.716184
0.716173
0.716162
0.716151
0.71614
0.716128
0.716116
0.716104
0.716092
0.716079
0.716067
0.716054
0.716041
0.716028
0.716015
0.716002
0.715989
0.715976
0.715962
0.715949
0.715936
0.715923
0.715909
0.715896
0.715883
0.715869
0.715856
0.715842
0.715829
0.715816
0.715802
0.715789
0.715776
0.715762
0.715749
0.715736
0.715722
0.715709
0.715696
0.715682
0.715669
0.715655
0.715642
0.715629
0.715615
0.715602
0.715589
0.715575
0.715562
0.715549
0.715535
0.715522
0.715508
0.715495
0.715482
0.715468
0.715455
0.715442
0.715428
0.715415
0.715402
0.715388
0.715375
0.715361
0.715348
0.715335
0.715321
0.715308
0.715295
0.715281
0.715268
0.715255
0.715241
0.715228
0.715215
0.715201
0.715188
0.715174
0.715161
0.715148
0.715134
0.715121
0.715108
0.715094
0.715081
0.715068
0.715054
0.715041
0.715027
0.715014
0.715001
0.714987
0.714974
0.714961
0.714947
0.714934
0.714921
0.714907
0.714894
0.714881
0.714867
0.714854
0.71484
0.714827
0.714814
0.7148
0.714787
0.714774
0.71476
0.714747
0.714734
0.71472
0.714707
0.714693
0.71468
0.714667
0.714653
0.71464
0.714627
0.714613
0.7146
0.714587
0.714573
0.71456
0.714547
0.714533
0.71452
0.714506
0.714493
0.71448
0.714466
0.714453
0.71444
0.714426
0.714413
0.7144
0.714386
0.714373
0.714359
0.714346
0.714333
0.714319
0.714306
0.714293
0.71315
0.713143
0.713132
0.713115
0.713094
0.713068
0.713042
0.713016
0.712994
0.712978
0.712969
0.712969
0.712979
0.713001
0.713035
0.713082
0.713143
0.713217
0.713305
0.713406
0.71352
0.713646
0.713782
0.713926
0.714079
0.714237
0.714398
0.714561
0.714723
0.714883
0.715038
0.715188
0.71533
0.715463
0.715587
0.7157
0.715802
0.715893
0.715972
0.716041
0.716098
0.716145
0.716183
0.716211
0.716232
0.716246
0.716253
0.716255
0.716254
0.716249
0.716243
0.716234
0.716225
0.716215
0.716205
0.716195
0.716184
0.716173
0.716162
0.716151
0.71614
0.716128
0.716116
0.716104
0.716092
0.716079
0.716067
0.716054
0.716041
0.716028
0.716015
0.716002
0.715989
0.715976
0.715962
0.715949
0.715936
0.715923
0.715909
0.715896
0.715883
0.715869
0.715856
0.715842
0.715829
0.715816
0.715802
0.715789
0.715776
0.715762
0.715749
0.715736
0.715722
0.715709
0.715696
0.715682
0.715669
0.715655
0.715642
0.715629
0.715615
0.715602
0.715589
0.715575
0.715562
0.715549
0.715535
0.715522
0.715508
0.715495
0.715482
0.715468
0.715455
0.715442
0.715428
0.715415
0.715402
0.715388
0.715375
0.715361
0.715348
0.715335
0.715321
0.715308
0.715295
0.715281
0.715268
0.715255
0.715241
0.715228
0.715215
0.715201
0.715188
0.715174
0.715161
0.715148
0.715134
0.715121
0.715108
0.715094
0.715081
0.715068
0.715054
0.715041
0.715027
0.715014
0.715001
0.714987
0.714974
0.714961
0.714947
0.714934
0.714921
0.714907
0.714894
0.714881
0.714867
0.714854
0.71484
0.714827
0.714814
0.7148
0.714787
0.714774
0.71476
0.714747
0.714734
0.71472
0.714707
0.714693
0.71468
0.714667
0.714653
0.71464
0.714627
0.714613
0.7146
0.714587
0.714573
0.71456
0.714547
0.714533
0.71452
0.714506
0.714493
0.71448
0.714466
0.714453
0.71444
0.714426
0.714413
0.7144
0.714386
0.714373
0.714359
0.714346
0.714333
0.714319
0.714306
0.714293
0.713162
0.713153
0.71314
0.71312
0.713094
0.713064
0.713034
0.713005
0.712981
0.712963
0.712952
0.712951
0.71296
0.71298
0.713013
0.713059
0.713119
0.713192
0.713279
0.71338
0.713493
0.713618
0.713754
0.713898
0.71405
0.714208
0.714369
0.714532
0.714694
0.714855
0.715011
0.715161
0.715304
0.715438
0.715563
0.715677
0.715781
0.715874
0.715956
0.716027
0.716087
0.716137
0.716177
0.716208
0.71623
0.716246
0.716254
0.716258
0.716256
0.716252
0.716245
0.716237
0.716227
0.716217
0.716207
0.716196
0.716185
0.716174
0.716163
0.716152
0.71614
0.716129
0.716117
0.716104
0.716092
0.71608
0.716067
0.716054
0.716041
0.716028
0.716015
0.716002
0.715989
0.715976
0.715962
0.715949
0.715936
0.715923
0.715909
0.715896
0.715883
0.715869
0.715856
0.715842
0.715829
0.715816
0.715802
0.715789
0.715776
0.715762
0.715749
0.715736
0.715722
0.715709
0.715696
0.715682
0.715669
0.715655
0.715642
0.715629
0.715615
0.715602
0.715589
0.715575
0.715562
0.715549
0.715535
0.715522
0.715508
0.715495
0.715482
0.715468
0.715455
0.715442
0.715428
0.715415
0.715402
0.715388
0.715375
0.715361
0.715348
0.715335
0.715321
0.715308
0.715295
0.715281
0.715268
0.715255
0.715241
0.715228
0.715215
0.715201
0.715188
0.715174
0.715161
0.715148
0.715134
0.715121
0.715108
0.715094
0.715081
0.715068
0.715054
0.715041
0.715027
0.715014
0.715001
0.714987
0.714974
0.714961
0.714947
0.714934
0.714921
0.714907
0.714894
0.714881
0.714867
0.714854
0.71484
0.714827
0.714814
0.7148
0.714787
0.714774
0.71476
0.714747
0.714734
0.71472
0.714707
0.714693
0.71468
0.714667
0.714653
0.71464
0.714627
0.714613
0.7146
0.714587
0.714573
0.71456
0.714547
0.714533
0.71452
0.714506
0.714493
0.71448
0.714466
0.714453
0.71444
0.714426
0.714413
0.7144
0.714386
0.714373
0.714359
0.714346
0.714333
0.714319
0.714306
0.714293
0.71316
0.713154
0.71314
0.713118
0.713089
0.713056
0.713022
0.712991
0.712964
0.712944
0.712931
0.712928
0.712936
0.712955
0.712986
0.713031
0.713089
0.713161
0.713247
0.713347
0.713459
0.713583
0.713717
0.713861
0.714012
0.714168
0.714329
0.714491
0.714652
0.714812
0.714967
0.715118
0.715261
0.715396
0.715522
0.715638
0.715744
0.71584
0.715925
0.715999
0.716063
0.716116
0.716161
0.716196
0.716222
0.71624
0.716252
0.716257
0.716257
0.716254
0.716247
0.716239
0.71623
0.71622
0.716209
0.716198
0.716187
0.716176
0.716165
0.716153
0.716141
0.716129
0.716117
0.716105
0.716093
0.71608
0.716067
0.716054
0.716041
0.716028
0.716015
0.716002
0.715989
0.715976
0.715962
0.715949
0.715936
0.715923
0.715909
0.715896
0.715883
0.715869
0.715856
0.715842
0.715829
0.715816
0.715802
0.715789
0.715776
0.715762
0.715749
0.715736
0.715722
0.715709
0.715696
0.715682
0.715669
0.715655
0.715642
0.715629
0.715615
0.715602
0.715589
0.715575
0.715562
0.715549
0.715535
0.715522
0.715508
0.715495
0.715482
0.715468
0.715455
0.715442
0.715428
0.715415
0.715402
0.715388
0.715375
0.715361
0.715348
0.715335
0.715321
0.715308
0.715295
0.715281
0.715268
0.715255
0.715241
0.715228
0.715215
0.715201
0.715188
0.715174
0.715161
0.715148
0.715134
0.715121
0.715108
0.715094
0.715081
0.715068
0.715054
0.715041
0.715027
0.715014
0.715001
0.714987
0.714974
0.714961
0.714947
0.714934
0.714921
0.714907
0.714894
0.714881
0.714867
0.714854
0.71484
0.714827
0.714814
0.7148
0.714787
0.714774
0.71476
0.714747
0.714734
0.71472
0.714707
0.714693
0.71468
0.714667
0.714653
0.71464
0.714627
0.714613
0.7146
0.714587
0.714573
0.71456
0.714547
0.714533
0.71452
0.714506
0.714493
0.71448
0.714466
0.714453
0.71444
0.714426
0.714413
0.7144
0.714386
0.714373
0.714359
0.714346
0.714333
0.714319
0.714306
0.714293
0.713156
0.713154
0.713139
0.713115
0.713083
0.713048
0.713013
0.71298
0.712952
0.71293
0.712916
0.712912
0.712918
0.712935
0.712966
0.713009
0.713066
0.713137
0.713221
0.713319
0.71343
0.713552
0.713685
0.713826
0.713975
0.71413
0.714287
0.714446
0.714605
0.714762
0.714914
0.715062
0.715203
0.715336
0.715462
0.715579
0.715687
0.715787
0.715877
0.715957
0.716027
0.716087
0.716137
0.716178
0.716209
0.716232
0.716247
0.716255
0.716257
0.716255
0.71625
0.716242
0.716233
0.716223
0.716212
0.716201
0.71619
0.716178
0.716167
0.716155
0.716143
0.716131
0.716118
0.716106
0.716093
0.71608
0.716068
0.716055
0.716042
0.716029
0.716015
0.716002
0.715989
0.715976
0.715962
0.715949
0.715936
0.715923
0.715909
0.715896
0.715883
0.715869
0.715856
0.715842
0.715829
0.715816
0.715802
0.715789
0.715776
0.715762
0.715749
0.715736
0.715722
0.715709
0.715695
0.715682
0.715669
0.715655
0.715642
0.715629
0.715615
0.715602
0.715589
0.715575
0.715562
0.715549
0.715535
0.715522
0.715508
0.715495
0.715482
0.715468
0.715455
0.715442
0.715428
0.715415
0.715402
0.715388
0.715375
0.715361
0.715348
0.715335
0.715321
0.715308
0.715295
0.715281
0.715268
0.715255
0.715241
0.715228
0.715215
0.715201
0.715188
0.715174
0.715161
0.715148
0.715134
0.715121
0.715108
0.715094
0.715081
0.715068
0.715054
0.715041
0.715027
0.715014
0.715001
0.714987
0.714974
0.714961
0.714947
0.714934
0.714921
0.714907
0.714894
0.714881
0.714867
0.714854
0.71484
0.714827
0.714814
0.7148
0.714787
0.714774
0.71476
0.714747
0.714734
0.71472
0.714707
0.714693
0.71468
0.714667
0.714653
0.71464
0.714627
0.714613
0.7146
0.714587
0.714573
0.71456
0.714547
0.714533
0.71452
0.714506
0.714493
0.71448
0.714466
0.714453
0.71444
0.714426
0.714413
0.7144
0.714386
0.714373
0.714359
0.714346
0.714333
0.714319
0.714306
0.714293
0.713124
0.713142
0.713132
0.713116
0.713086
0.713052
0.713016
0.712982
0.712952
0.712928
0.712913
0.712906
0.712911
0.712927
0.712955
0.712997
0.713053
0.713122
0.713205
0.713301
0.713409
0.713529
0.713659
0.713797
0.713942
0.714091
0.714244
0.714397
0.714549
0.714699
0.714845
0.714985
0.71512
0.715248
0.715369
0.715483
0.715591
0.715692
0.715787
0.715876
0.715958
0.716032
0.716095
0.716148
0.71619
0.716221
0.716242
0.716254
0.716258
0.716257
0.716253
0.716245
0.716236
0.716226
0.716216
0.716204
0.716193
0.716181
0.716169
0.716157
0.716144
0.716132
0.716119
0.716107
0.716094
0.716081
0.716068
0.716055
0.716042
0.716029
0.716016
0.716002
0.715989
0.715976
0.715963
0.715949
0.715936
0.715923
0.715909
0.715896
0.715883
0.715869
0.715856
0.715842
0.715829
0.715816
0.715802
0.715789
0.715776
0.715762
0.715749
0.715736
0.715722
0.715709
0.715695
0.715682
0.715669
0.715655
0.715642
0.715629
0.715615
0.715602
0.715589
0.715575
0.715562
0.715549
0.715535
0.715522
0.715508
0.715495
0.715482
0.715468
0.715455
0.715442
0.715428
0.715415
0.715402
0.715388
0.715375
0.715361
0.715348
0.715335
0.715321
0.715308
0.715295
0.715281
0.715268
0.715255
0.715241
0.715228
0.715215
0.715201
0.715188
0.715174
0.715161
0.715148
0.715134
0.715121
0.715108
0.715094
0.715081
0.715068
0.715054
0.715041
0.715027
0.715014
0.715001
0.714987
0.714974
0.714961
0.714947
0.714934
0.714921
0.714907
0.714894
0.714881
0.714867
0.714854
0.71484
0.714827
0.714814
0.7148
0.714787
0.714774
0.71476
0.714747
0.714734
0.71472
0.714707
0.714693
0.71468
0.714667
0.714653
0.71464
0.714627
0.714613
0.7146
0.714587
0.714573
0.71456
0.714547
0.714533
0.71452
0.714506
0.714493
0.71448
0.714466
0.714453
0.71444
0.714426
0.714413
0.7144
0.714386
0.714373
0.714359
0.714346
0.714333
0.714319
0.714306
0.714293
0.713137
0.713161
0.713153
0.713136
0.713104
0.713068
0.71303
0.712994
0.712962
0.712937
0.71292
0.712913
0.712916
0.712931
0.712959
0.713
0.713055
0.713123
0.713205
0.713299
0.713405
0.713521
0.713646
0.713779
0.713917
0.714059
0.714203
0.714346
0.714487
0.714625
0.714758
0.714886
0.715008
0.715125
0.715236
0.715344
0.715448
0.715549
0.715649
0.715746
0.715841
0.715931
0.716014
0.716088
0.71615
0.716198
0.716231
0.71625
0.716259
0.716261
0.716257
0.71625
0.716241
0.716231
0.71622
0.716208
0.716196
0.716184
0.716172
0.716159
0.716146
0.716134
0.716121
0.716108
0.716095
0.716082
0.716069
0.716055
0.716042
0.716029
0.716016
0.716003
0.715989
0.715976
0.715963
0.715949
0.715936
0.715923
0.715909
0.715896
0.715883
0.715869
0.715856
0.715842
0.715829
0.715816
0.715802
0.715789
0.715776
0.715762
0.715749
0.715736
0.715722
0.715709
0.715695
0.715682
0.715669
0.715655
0.715642
0.715629
0.715615
0.715602
0.715589
0.715575
0.715562
0.715549
0.715535
0.715522
0.715508
0.715495
0.715482
0.715468
0.715455
0.715442
0.715428
0.715415
0.715402
0.715388
0.715375
0.715361
0.715348
0.715335
0.715321
0.715308
0.715295
0.715281
0.715268
0.715255
0.715241
0.715228
0.715215
0.715201
0.715188
0.715174
0.715161
0.715148
0.715134
0.715121
0.715108
0.715094
0.715081
0.715068
0.715054
0.715041
0.715027
0.715014
0.715001
0.714987
0.714974
0.714961
0.714947
0.714934
0.714921
0.714907
0.714894
0.714881
0.714867
0.714854
0.71484
0.714827
0.714814
0.7148
0.714787
0.714774
0.71476
0.714747
0.714734
0.71472
0.714707
0.714693
0.71468
0.714667
0.714653
0.71464
0.714627
0.714613
0.7146
0.714587
0.714573
0.71456
0.714547
0.714533
0.71452
0.714506
0.714493
0.71448
0.714466
0.714453
0.71444
0.714426
0.714413
0.7144
0.714386
0.714373
0.714359
0.714346
0.714333
0.714319
0.714306
0.714293
0.712983
0.713139
0.713154
0.713157
0.713129
0.713093
0.713054
0.713016
0.712984
0.712958
0.712941
0.712934
0.712938
0.712954
0.712983
0.713024
0.713079
0.713148
0.713228
0.713321
0.713424
0.713536
0.713655
0.71378
0.713909
0.71404
0.71417
0.714298
0.714422
0.714541
0.714656
0.714765
0.714869
0.714969
0.715067
0.715164
0.715262
0.715363
0.715467
0.715573
0.715683
0.715792
0.715898
0.715997
0.716084
0.716155
0.716206
0.716239
0.716257
0.716263
0.716261
0.716255
0.716246
0.716236
0.716224
0.716212
0.7162
0.716187
0.716175
0.716162
0.716149
0.716135
0.716122
0.716109
0.716096
0.716083
0.716069
0.716056
0.716043
0.716029
0.716016
0.716003
0.715989
0.715976
0.715963
0.715949
0.715936
0.715923
0.715909
0.715896
0.715883
0.715869
0.715856
0.715842
0.715829
0.715816
0.715802
0.715789
0.715776
0.715762
0.715749
0.715736
0.715722
0.715709
0.715695
0.715682
0.715669
0.715655
0.715642
0.715629
0.715615
0.715602
0.715589
0.715575
0.715562
0.715549
0.715535
0.715522
0.715508
0.715495
0.715482
0.715468
0.715455
0.715442
0.715428
0.715415
0.715402
0.715388
0.715375
0.715361
0.715348
0.715335
0.715321
0.715308
0.715295
0.715281
0.715268
0.715255
0.715241
0.715228
0.715215
0.715201
0.715188
0.715174
0.715161
0.715148
0.715134
0.715121
0.715108
0.715094
0.715081
0.715068
0.715054
0.715041
0.715027
0.715014
0.715001
0.714987
0.714974
0.714961
0.714947
0.714934
0.714921
0.714907
0.714894
0.714881
0.714867
0.714854
0.71484
0.714827
0.714814
0.7148
0.714787
0.714774
0.71476
0.714747
0.714734
0.71472
0.714707
0.714693
0.71468
0.714667
0.714653
0.71464
0.714627
0.714613
0.7146
0.714587
0.714573
0.71456
0.714547
0.714533
0.71452
0.714506
0.714493
0.71448
0.714466
0.714453
0.71444
0.714426
0.714413
0.7144
0.714386
0.714373
0.714359
0.714346
0.714333
0.714319
0.714306
0.714293
0.713766
0.713708
0.713644
0.713575
0.713499
0.713417
0.713325
0.713196
0.713774
0.713726
0.713662
0.713591
0.713515
0.713433
0.713337
0.713233
0.713781
0.713741
0.713682
0.713615
0.713543
0.713469
0.713395
0.713321
0.713794
0.71376
0.713707
0.713645
0.71358
0.713515
0.713451
0.713391
0.71381
0.713778
0.71373
0.713673
0.713615
0.713559
0.713506
0.71346
0.713828
0.713796
0.713749
0.713696
0.713644
0.713595
0.71355
0.713512
0.713846
0.713809
0.713761
0.713711
0.713662
0.713618
0.713578
0.713544
0.713855
0.713809
0.713761
0.713713
0.713668
0.713626
0.713588
0.713555
0.713118
0.713146
0.713167
0.713164
0.713142
0.713111
0.713075
0.713041
0.713012
0.71299
0.712977
0.712974
0.712982
0.713002
0.713035
0.71308
0.713138
0.713207
0.713288
0.713379
0.713479
0.713586
0.713697
0.713812
0.713928
0.714042
0.714153
0.71426
0.714361
0.714456
0.714545
0.71463
0.714711
0.714793
0.714876
0.714963
0.715057
0.715159
0.715269
0.715388
0.715513
0.715642
0.715771
0.715895
0.716007
0.716101
0.716172
0.716221
0.716249
0.716262
0.716264
0.71626
0.716251
0.716241
0.716229
0.716217
0.716204
0.716191
0.716178
0.716164
0.716151
0.716137
0.716124
0.71611
0.716097
0.716083
0.71607
0.716056
0.716043
0.71603
0.716016
0.716003
0.715989
0.715976
0.715963
0.715949
0.715936
0.715923
0.715909
0.715896
0.715883
0.715869
0.715856
0.715842
0.715829
0.715816
0.715802
0.715789
0.715776
0.715762
0.715749
0.715736
0.715722
0.715709
0.715695
0.715682
0.715669
0.715655
0.715642
0.715629
0.715615
0.715602
0.715589
0.715575
0.715562
0.715549
0.715535
0.715522
0.715508
0.715495
0.715482
0.715468
0.715455
0.715442
0.715428
0.715415
0.715402
0.715388
0.715375
0.715361
0.715348
0.715335
0.715321
0.715308
0.715295
0.715281
0.715268
0.715255
0.715241
0.715228
0.715215
0.715201
0.715188
0.715174
0.715161
0.715148
0.715134
0.715121
0.715108
0.715094
0.715081
0.715068
0.715054
0.715041
0.715027
0.715014
0.715001
0.714987
0.714974
0.714961
0.714947
0.714934
0.714921
0.714907
0.714894
0.714881
0.714867
0.714854
0.71484
0.714827
0.714814
0.7148
0.714787
0.714774
0.71476
0.714747
0.714734
0.71472
0.714707
0.714693
0.71468
0.714667
0.714653
0.71464
0.714627
0.714613
0.7146
0.714587
0.714573
0.71456
0.714547
0.714533
0.71452
0.714506
0.714493
0.71448
0.714466
0.714453
0.71444
0.714426
0.714413
0.7144
0.714386
0.714373
0.714359
0.714346
0.714333
0.714319
0.714306
0.714293
0.71315
0.713158
0.713168
0.713171
0.71316
0.71314
0.713116
0.713091
0.713071
0.713057
0.713052
0.713057
0.713072
0.7131
0.713139
0.713189
0.71325
0.713322
0.713402
0.71349
0.713585
0.713683
0.713783
0.713883
0.71398
0.714072
0.714158
0.714236
0.714308
0.714373
0.714434
0.714493
0.714553
0.714618
0.714692
0.714776
0.714872
0.71498
0.715101
0.715233
0.715374
0.71552
0.715668
0.715811
0.715942
0.716053
0.71614
0.716201
0.716239
0.716259
0.716265
0.716263
0.716256
0.716246
0.716234
0.716222
0.716208
0.716195
0.716181
0.716167
0.716153
0.716139
0.716125
0.716111
0.716098
0.716084
0.716071
0.716057
0.716043
0.71603
0.716016
0.716003
0.71599
0.715976
0.715963
0.715949
0.715936
0.715923
0.715909
0.715896
0.715883
0.715869
0.715856
0.715842
0.715829
0.715816
0.715802
0.715789
0.715776
0.715762
0.715749
0.715736
0.715722
0.715709
0.715695
0.715682
0.715669
0.715655
0.715642
0.715629
0.715615
0.715602
0.715589
0.715575
0.715562
0.715549
0.715535
0.715522
0.715508
0.715495
0.715482
0.715468
0.715455
0.715442
0.715428
0.715415
0.715402
0.715388
0.715375
0.715361
0.715348
0.715335
0.715321
0.715308
0.715295
0.715281
0.715268
0.715255
0.715241
0.715228
0.715215
0.715201
0.715188
0.715174
0.715161
0.715148
0.715134
0.715121
0.715108
0.715094
0.715081
0.715068
0.715054
0.715041
0.715027
0.715014
0.715001
0.714987
0.714974
0.714961
0.714947
0.714934
0.714921
0.714907
0.714894
0.714881
0.714867
0.714854
0.71484
0.714827
0.714814
0.7148
0.714787
0.714774
0.71476
0.714747
0.714734
0.71472
0.714707
0.714693
0.71468
0.714667
0.714653
0.71464
0.714627
0.714613
0.7146
0.714587
0.714573
0.71456
0.714547
0.714533
0.71452
0.714506
0.714493
0.71448
0.714466
0.714453
0.71444
0.714426
0.714413
0.7144
0.714386
0.714373
0.714359
0.714346
0.714333
0.714319
0.714306
0.714293
0.713264
0.713237
0.713229
0.713223
0.713213
0.7132
0.713186
0.713173
0.713164
0.713162
0.713169
0.713184
0.71321
0.713247
0.713294
0.713351
0.713416
0.713488
0.713566
0.713648
0.713734
0.713819
0.713902
0.713981
0.714053
0.714116
0.714171
0.714218
0.714257
0.714294
0.71433
0.714371
0.714421
0.714482
0.714557
0.714646
0.71475
0.714869
0.715001
0.715144
0.715296
0.715454
0.715613
0.715765
0.715905
0.716025
0.716119
0.716187
0.716231
0.716256
0.716266
0.716266
0.716261
0.716251
0.716239
0.716226
0.716212
0.716198
0.716184
0.716169
0.716155
0.716141
0.716127
0.716113
0.716099
0.716085
0.716071
0.716057
0.716044
0.71603
0.716017
0.716003
0.71599
0.715976
0.715963
0.715949
0.715936
0.715923
0.715909
0.715896
0.715883
0.715869
0.715856
0.715842
0.715829
0.715816
0.715802
0.715789
0.715776
0.715762
0.715749
0.715736
0.715722
0.715709
0.715695
0.715682
0.715669
0.715655
0.715642
0.715629
0.715615
0.715602
0.715589
0.715575
0.715562
0.715549
0.715535
0.715522
0.715508
0.715495
0.715482
0.715468
0.715455
0.715442
0.715428
0.715415
0.715402
0.715388
0.715375
0.715361
0.715348
0.715335
0.715321
0.715308
0.715295
0.715281
0.715268
0.715255
0.715241
0.715228
0.715215
0.715201
0.715188
0.715174
0.715161
0.715148
0.715134
0.715121
0.715108
0.715094
0.715081
0.715068
0.715054
0.715041
0.715027
0.715014
0.715001
0.714987
0.714974
0.714961
0.714947
0.714934
0.714921
0.714907
0.714894
0.714881
0.714867
0.714854
0.71484
0.714827
0.714814
0.7148
0.714787
0.714774
0.71476
0.714747
0.714734
0.71472
0.714707
0.714693
0.71468
0.714667
0.714653
0.71464
0.714627
0.714613
0.7146
0.714587
0.714573
0.71456
0.714547
0.714533
0.71452
0.714506
0.714493
0.71448
0.714466
0.714453
0.71444
0.714426
0.714413
0.7144
0.714386
0.714373
0.714359
0.714346
0.714333
0.714319
0.714306
0.714293
0.713344
0.713316
0.713301
0.713293
0.713286
0.713279
0.713274
0.713273
0.713276
0.713287
0.713305
0.713333
0.713371
0.713418
0.713474
0.713537
0.713605
0.713676
0.713748
0.713821
0.713892
0.713959
0.714019
0.714071
0.714114
0.714148
0.714174
0.714195
0.714214
0.714235
0.714261
0.714298
0.714349
0.714416
0.714499
0.714597
0.714711
0.714837
0.714976
0.715125
0.715282
0.715443
0.715603
0.715757
0.715896
0.716016
0.716111
0.716181
0.716228
0.716255
0.716267
0.71627
0.716265
0.716256
0.716244
0.716231
0.716216
0.716202
0.716187
0.716172
0.716157
0.716142
0.716128
0.716114
0.716099
0.716085
0.716072
0.716058
0.716044
0.71603
0.716017
0.716003
0.71599
0.715976
0.715963
0.715949
0.715936
0.715923
0.715909
0.715896
0.715883
0.715869
0.715856
0.715842
0.715829
0.715816
0.715802
0.715789
0.715776
0.715762
0.715749
0.715736
0.715722
0.715709
0.715695
0.715682
0.715669
0.715655
0.715642
0.715629
0.715615
0.715602
0.715589
0.715575
0.715562
0.715549
0.715535
0.715522
0.715508
0.715495
0.715482
0.715468
0.715455
0.715442
0.715428
0.715415
0.715402
0.715388
0.715375
0.715361
0.715348
0.715335
0.715321
0.715308
0.715295
0.715281
0.715268
0.715255
0.715241
0.715228
0.715215
0.715201
0.715188
0.715174
0.715161
0.715148
0.715134
0.715121
0.715108
0.715094
0.715081
0.715068
0.715054
0.715041
0.715027
0.715014
0.715001
0.714987
0.714974
0.714961
0.714947
0.714934
0.714921
0.714907
0.714894
0.714881
0.714867
0.714854
0.71484
0.714827
0.714814
0.7148
0.714787
0.714774
0.71476
0.714747
0.714734
0.71472
0.714707
0.714693
0.71468
0.714667
0.714653
0.71464
0.714627
0.714613
0.7146
0.714587
0.714573
0.71456
0.714547
0.714533
0.71452
0.714506
0.714493
0.71448
0.714466
0.714453
0.71444
0.714426
0.714413
0.7144
0.714386
0.714373
0.714359
0.714346
0.714333
0.714319
0.714306
0.714293
0.713423
0.713398
0.713382
0.713373
0.713368
0.713366
0.713369
0.713376
0.71339
0.713411
0.71344
0.713479
0.713526
0.713582
0.713644
0.71371
0.713775
0.713837
0.713896
0.713953
0.714008
0.714058
0.7141
0.714133
0.714154
0.714164
0.714164
0.714164
0.714173
0.714196
0.714233
0.714282
0.714344
0.714419
0.714507
0.714609
0.714724
0.714852
0.714993
0.715143
0.7153
0.71546
0.715617
0.715767
0.715902
0.716017
0.71611
0.716179
0.716226
0.716255
0.716269
0.716273
0.716269
0.71626
0.716248
0.716235
0.71622
0.716205
0.716189
0.716174
0.716159
0.716144
0.716129
0.716114
0.7161
0.716086
0.716072
0.716058
0.716044
0.716031
0.716017
0.716003
0.71599
0.715976
0.715963
0.71595
0.715936
0.715923
0.715909
0.715896
0.715883
0.715869
0.715856
0.715842
0.715829
0.715816
0.715802
0.715789
0.715776
0.715762
0.715749
0.715736
0.715722
0.715709
0.715695
0.715682
0.715669
0.715655
0.715642
0.715629
0.715615
0.715602
0.715589
0.715575
0.715562
0.715549
0.715535
0.715522
0.715508
0.715495
0.715482
0.715468
0.715455
0.715442
0.715428
0.715415
0.715402
0.715388
0.715375
0.715361
0.715348
0.715335
0.715321
0.715308
0.715295
0.715281
0.715268
0.715255
0.715241
0.715228
0.715215
0.715201
0.715188
0.715174
0.715161
0.715148
0.715134
0.715121
0.715108
0.715094
0.715081
0.715068
0.715054
0.715041
0.715027
0.715014
0.715001
0.714987
0.714974
0.714961
0.714947
0.714934
0.714921
0.714907
0.714894
0.714881
0.714867
0.714854
0.71484
0.714827
0.714814
0.7148
0.714787
0.714774
0.71476
0.714747
0.714734
0.71472
0.714707
0.714693
0.71468
0.714667
0.714653
0.71464
0.714627
0.714613
0.7146
0.714587
0.714573
0.71456
0.714547
0.714533
0.71452
0.714506
0.714493
0.71448
0.714466
0.714453
0.71444
0.714426
0.714413
0.7144
0.714386
0.714373
0.714359
0.714346
0.714333
0.714319
0.714306
0.714293
0.713481
0.713459
0.713444
0.713436
0.713432
0.713434
0.713442
0.713456
0.713476
0.713503
0.713538
0.713581
0.713632
0.71369
0.713754
0.71382
0.713883
0.713941
0.713994
0.714043
0.714082
0.714105
0.71411
0.714108
0.71411
0.714121
0.714139
0.714161
0.714188
0.714219
0.714257
0.714305
0.714365
0.714439
0.714528
0.714632
0.71475
0.714881
0.715022
0.715172
0.715328
0.715485
0.715638
0.715781
0.71591
0.716021
0.71611
0.716177
0.716224
0.716254
0.716269
0.716274
0.716271
0.716263
0.716251
0.716237
0.716222
0.716206
0.716191
0.716175
0.71616
0.716145
0.71613
0.716115
0.716101
0.716086
0.716072
0.716058
0.716044
0.716031
0.716017
0.716003
0.71599
0.715976
0.715963
0.71595
0.715936
0.715923
0.715909
0.715896
0.715883
0.715869
0.715856
0.715842
0.715829
0.715816
0.715802
0.715789
0.715776
0.715762
0.715749
0.715736
0.715722
0.715709
0.715695
0.715682
0.715669
0.715655
0.715642
0.715629
0.715615
0.715602
0.715589
0.715575
0.715562
0.715549
0.715535
0.715522
0.715508
0.715495
0.715482
0.715468
0.715455
0.715442
0.715428
0.715415
0.715402
0.715388
0.715375
0.715361
0.715348
0.715335
0.715321
0.715308
0.715295
0.715281
0.715268
0.715255
0.715241
0.715228
0.715215
0.715201
0.715188
0.715174
0.715161
0.715148
0.715134
0.715121
0.715108
0.715094
0.715081
0.715068
0.715054
0.715041
0.715027
0.715014
0.715001
0.714987
0.714974
0.714961
0.714947
0.714934
0.714921
0.714907
0.714894
0.714881
0.714867
0.714854
0.71484
0.714827
0.714814
0.7148
0.714787
0.714774
0.71476
0.714747
0.714734
0.71472
0.714707
0.714693
0.71468
0.714667
0.714653
0.71464
0.714627
0.714613
0.7146
0.714587
0.714573
0.71456
0.714547
0.714533
0.71452
0.714506
0.714493
0.71448
0.714466
0.714453
0.71444
0.714426
0.714413
0.7144
0.714386
0.714373
0.714359
0.714346
0.714333
0.714319
0.714306
0.714293
0.713517
0.713496
0.713482
0.713473
0.713471
0.713475
0.713485
0.713503
0.713527
0.713558
0.713596
0.713642
0.713696
0.713759
0.713824
0.713885
0.713929
0.713956
0.713974
0.713996
0.714025
0.714056
0.714086
0.714111
0.714132
0.714147
0.714159
0.714174
0.714194
0.714224
0.714264
0.714316
0.714381
0.714459
0.714551
0.714657
0.714776
0.714907
0.715048
0.715197
0.71535
0.715503
0.715651
0.71579
0.715914
0.71602
0.716106
0.716172
0.716219
0.716249
0.716266
0.716271
0.716269
0.716262
0.71625
0.716237
0.716222
0.716207
0.716191
0.716176
0.71616
0.716145
0.71613
0.716115
0.716101
0.716087
0.716072
0.716058
0.716045
0.716031
0.716017
0.716004
0.71599
0.715976
0.715963
0.71595
0.715936
0.715923
0.715909
0.715896
0.715883
0.715869
0.715856
0.715842
0.715829
0.715816
0.715802
0.715789
0.715776
0.715762
0.715749
0.715736
0.715722
0.715709
0.715695
0.715682
0.715669
0.715655
0.715642
0.715629
0.715615
0.715602
0.715589
0.715575
0.715562
0.715549
0.715535
0.715522
0.715508
0.715495
0.715482
0.715468
0.715455
0.715442
0.715428
0.715415
0.715402
0.715388
0.715375
0.715361
0.715348
0.715335
0.715321
0.715308
0.715295
0.715281
0.715268
0.715255
0.715241
0.715228
0.715215
0.715201
0.715188
0.715174
0.715161
0.715148
0.715134
0.715121
0.715108
0.715094
0.715081
0.715068
0.715054
0.715041
0.715027
0.715014
0.715001
0.714987
0.714974
0.714961
0.714947
0.714934
0.714921
0.714907
0.714894
0.714881
0.714867
0.714854
0.71484
0.714827
0.714814
0.7148
0.714787
0.714774
0.71476
0.714747
0.714734
0.71472
0.714707
0.714693
0.71468
0.714667
0.714653
0.71464
0.714627
0.714613
0.7146
0.714587
0.714573
0.71456
0.714547
0.714533
0.71452
0.714506
0.714493
0.71448
0.714466
0.714453
0.71444
0.714426
0.714413
0.7144
0.714386
0.714373
0.714359
0.714346
0.714333
0.714319
0.714306
0.714293
0.713527
0.713506
0.71349
0.71348
0.713477
0.713481
0.71349
0.713507
0.713528
0.713555
0.713588
0.713626
0.713671
0.713723
0.713779
0.713835
0.713885
0.713929
0.713969
0.714008
0.714042
0.714069
0.714088
0.714103
0.714117
0.714133
0.71415
0.714172
0.714199
0.714233
0.714276
0.71433
0.714396
0.714475
0.714568
0.714675
0.714795
0.714926
0.715067
0.715215
0.715367
0.715517
0.715662
0.715797
0.715917
0.71602
0.716104
0.716168
0.716215
0.716245
0.716262
0.716268
0.716267
0.71626
0.716249
0.716236
0.716222
0.716207
0.716191
0.716176
0.71616
0.716145
0.71613
0.716115
0.716101
0.716087
0.716072
0.716059
0.716045
0.716031
0.716017
0.716004
0.71599
0.715976
0.715963
0.71595
0.715936
0.715923
0.715909
0.715896
0.715883
0.715869
0.715856
0.715842
0.715829
0.715816
0.715802
0.715789
0.715776
0.715762
0.715749
0.715736
0.715722
0.715709
0.715695
0.715682
0.715669
0.715655
0.715642
0.715629
0.715615
0.715602
0.715589
0.715575
0.715562
0.715549
0.715535
0.715522
0.715508
0.715495
0.715482
0.715468
0.715455
0.715442
0.715428
0.715415
0.715402
0.715388
0.715375
0.715361
0.715348
0.715335
0.715321
0.715308
0.715295
0.715281
0.715268
0.715255
0.715241
0.715228
0.715215
0.715201
0.715188
0.715174
0.715161
0.715148
0.715134
0.715121
0.715108
0.715094
0.715081
0.715068
0.715054
0.715041
0.715027
0.715014
0.715001
0.714987
0.714974
0.714961
0.714947
0.714934
0.714921
0.714907
0.714894
0.714881
0.714867
0.714854
0.71484
0.714827
0.714814
0.7148
0.714787
0.714774
0.71476
0.714747
0.714734
0.71472
0.714707
0.714693
0.71468
0.714667
0.714653
0.71464
0.714627
0.714613
0.7146
0.714587
0.714573
0.71456
0.714547
0.714533
0.71452
0.714506
0.714493
0.71448
0.714466
0.714453
0.71444
0.714426
0.714413
0.7144
0.714386
0.714373
0.714359
0.714346
0.714333
0.714319
0.714306
0.714293
)
;

boundaryField
{
    inlet
    {
        type            zeroGradient;
    }
    outlet
    {
        type            fixedValue;