/*--------------------------------*- C++ -*----------------------------------*\
| =========                 |                                                 |
| \\      /  F ield         | OpenFOAM: The Open Source CFD Toolbox           |
|  \\    /   O peration     | Version:  4.1                                   |
|   \\  /    A nd           | Web:      www.OpenFOAM.org                      |
|    \\/     M anipulation  |                                                 |
\*---------------------------------------------------------------------------*/
FoamFile
{
    version     2.0;
    format      ascii;
    class       volVectorField;
    location    "0.0135";
    object      U;
}
// * * * * * * * * * * * * * * * * * * * * * * * * * * * * * * * * * * * * * //

dimensions      [0 1 -1 0 0 0 0];

internalField   nonuniform List<vector> 
441
(
(-0.000126109 0.000114549 0)
(-0.000573827 0.000302482 0)
(-0.00116384 0.000450465 0)
(-0.00182817 0.000525368 0)
(-0.00250223 0.000536575 0)
(-0.00313557 0.000500402 0)
(-0.00369207 0.00043139 0)
(-0.00414703 0.000340484 0)
(-0.00448408 0.000235441 0)
(-0.00469266 0.000121797 0)
(-0.00476662 3.7992e-06 0)
(-0.00470347 -0.000114843 0)
(-0.00450425 -0.000230327 0)
(-0.00417385 -0.00033813 0)
(-0.00372197 -0.00043227 0)
(-0.00316474 -0.000504413 0)
(-0.00252725 -0.000542975 0)
(-0.00184671 -0.000532834 0)
(-0.00117515 -0.000457321 0)
(-0.000578822 -0.000307126 0)
(-0.000126958 -0.000116128 0)
(-0.000345286 0.000548354 0)
(-0.00150196 0.00137846 0)
(-0.00296518 0.00193429 0)
(-0.00457568 0.00219503 0)
(-0.00618915 0.0022111 0)
(-0.00769396 0.0020464 0)
(-0.00901006 0.00175634 0)
(-0.0100827 0.00138254 0)
(-0.0108754 0.00095453 0)
(-0.0113648 0.000493449 0)
(-0.0115375 1.55747e-05 0)
(-0.011388 -0.000464829 0)
(-0.0109187 -0.000933133 0)
(-0.0101404 -0.00137199 0)
(-0.00907479 -0.00175853 0)
(-0.00775751 -0.00206097 0)
(-0.00624416 -0.00223522 0)
(-0.00461701 -0.00222365 0)
(-0.00299089 -0.001961 0)
(-0.00151363 -0.00139706 0)
(-0.000347336 -0.000554896 0)
(-0.000542922 0.00115788 0)
(-0.00224825 0.00282915 0)
(-0.00434891 0.00387968 0)
(-0.00662797 0.0043472 0)
(-0.00889312 0.00434766 0)
(-0.0109959 0.00400659 0)
(-0.0128296 0.00342944 0)
(-0.014321 0.00269481 0)
(-0.0154217 0.00185834 0)
(-0.0161007 0.000959784 0)
(-0.0163402 2.96995e-05 0)
(-0.0161331 -0.000905206 0)
(-0.0154822 -0.00181754 0)
(-0.014402 -0.00267474 0)
(-0.0129206 -0.00343378 0)
(-0.0110858 -0.00403474 0)
(-0.00897149 -0.00439429 0)
(-0.00668742 -0.00440268 0)
(-0.00438643 -0.00393169 0)
(-0.00226577 -0.00286563 0)
(-0.0005463 -0.00117078 0)
(-0.000702306 0.00191096 0)
(-0.00284393 0.00458356 0)
(-0.00544135 0.00620038 0)
(-0.00823288 0.00689046 0)
(-0.0109898 0.00685618 0)
(-0.0135377 0.00629765 0)
(-0.0157521 0.00537868 0)
(-0.017549 0.00422021 0)
(-0.0188731 0.00290744 0)
(-0.0196898 0.0015009 0)
(-0.0199791 4.66853e-05 0)
(-0.019733 -0.00141512 0)
(-0.0189542 -0.0028434 0)
(-0.0176579 -0.00418893 0)
(-0.0158752 -0.00538612 0)
(-0.01366 -0.00634307 0)
(-0.0110973 -0.0069313 0)
(-0.00831523 -0.00698001 0)
(-0.00549401 -0.00628462 0)
(-0.00286904 -0.00464285 0)
(-0.000707427 -0.00193192 0)
(-0.000840422 0.00278881 0)
(-0.00336602 0.00660532 0)
(-0.00640057 0.00885573 0)
(-0.0096402 0.00978285 0)
(-0.0128219 0.0096945 0)
(-0.0157484 0.00887897 0)
(-0.018282 0.00756744 0)
(-0.0203315 0.00592886 0)
(-0.0218391 0.00408114 0)
(-0.0227694 0.00210699 0)
(-0.0231022 6.84497e-05 0)
(-0.0228288 -0.00198115 0)
(-0.0219509 -0.00398702 0)
(-0.0204823 -0.00588275 0)
(-0.0184535 -0.0075784 0)
(-0.0159203 -0.00894636 0)
(-0.0129746 -0.00980654 0)
(-0.00975867 -0.00991713 0)
(-0.00647757 -0.00898272 0)
(-0.0034036 -0.00669514 0)
(-0.000848437 -0.00282071 0)
(-0.000977665 0.00379122 0)
(-0.00389244 0.00889738 0)
(-0.00737125 0.0118517 0)
(-0.0110636 0.01303 0)
(-0.014669 0.0128651 0)
(-0.0179669 0.011749 0)
(-0.0208077 0.00999129 0)
(-0.0230966 0.00781545 0)
(-0.0247765 0.00537547 0)
(-0.025814 0.00277719 0)
(-0.0261907 9.80727e-05 0)
(-0.0258977 -0.00259658 0)
(-0.0249345 -0.00523955 0)
(-0.0233109 -0.00774756 0)
(-0.0210535 -0.010005 0)
(-0.0182156 -0.0118443 0)
(-0.0148927 -0.013026 0)
(-0.0112398 -0.0132249 0)
(-0.00748789 -0.0120378 0)
(-0.00395072 -0.00903024 0)
(-0.000990558 -0.00383904 0)
(-0.00113181 0.00493519 0)
(-0.00448976 0.0114973 0)
(-0.00847284 0.0152339 0)
(-0.0126733 0.0166757 0)
(-0.0167462 0.0164039 0)
(-0.0204455 0.0149338 0)
(-0.0236111 0.012667 0)
(-0.0261482 0.00989002 0)
(-0.0280043 0.00679662 0)
(-0.029152 0.00351614 0)
(-0.029577 0.000139702 0)
(-0.0292707 -0.00325813 0)
(-0.0282292 -0.00660039 0)
(-0.0264552 -0.00978854 0)
(-0.0239665 -0.0126803 0)
(-0.0208092 -0.0150638 0)
(-0.0170777 -0.0166301 0)
(-0.0129386 -0.0169544 0)
(-0.00865173 -0.0155038 0)
(-0.00458113 -0.0116929 0)
(-0.0011526 -0.00500713 0)
(-0.00131785 0.00625272 0)
(-0.00521414 0.0144721 0)
(-0.00980361 0.01908 0)
(-0.0146043 0.0207921 0)
(-0.019217 0.0203687 0)
(-0.0233673 0.0184744 0)
(-0.0268877 0.015621 0)
(-0.0296885 0.0121685 0)
(-0.0317285 0.00835419 0)
(-0.0329915 0.00433044 0)
(-0.0334704 0.000198656 0)
(-0.0331585 -0.00396213 0)
(-0.0320464 -0.00807003 0)
(-0.0301257 -0.0120146 0)
(-0.0273988 -0.0156274 0)
(-0.023897 -0.0186468 0)
(-0.0197069 -0.0206819 0)
(-0.0150028 -0.0211871 0)
(-0.0100773 -0.0194699 0)
(-0.00535675 -0.0147601 0)
(-0.00135101 -0.00636176 0)
(-0.00154901 0.0077899 0)
(-0.00611555 0.0179147 0)
(-0.0114479 0.0234938 0)
(-0.0169662 0.0254705 0)
(-0.0222043 0.0248278 0)
(-0.0268584 0.0224151 0)
(-0.0307595 0.0188782 0)
(-0.0338324 0.0146628 0)
(-0.0360567 0.010054 0)
(-0.0374349 0.00522499 0)
(-0.0379726 0.000281524 0)
(-0.0376659 -0.00470057 0)
(-0.0364986 -0.00964238 0)
(-0.0344452 -0.0144279 0)
(-0.0314839 -0.0188644 0)
(-0.0276197 -0.0226361 0)
(-0.0229197 -0.0252549 0)
(-0.0175585 -0.0260257 0)
(-0.0118623 -0.0240552 0)
(-0.0063356 -0.0183393 0)
(-0.00160106 -0.00795592 0)
(-0.00183695 0.00960743 0)
(-0.00723874 0.0219429 0)
(-0.0134766 0.0285992 0)
(-0.0198408 0.0308112 0)
(-0.0257851 0.029847 0)
(-0.0309791 0.0267889 0)
(-0.0352637 0.0224475 0)
(-0.0385935 0.0173694 0)
(-0.0409824 0.0118901 0)
(-0.0424628 0.00619867 0)
(-0.0430593 0.00039599 0)
(-0.0427739 -0.005457 0)
(-0.0415811 -0.0112964 0)
(-0.0394316 -0.0170109 0)
(-0.0362674 -0.0223898 0)
(-0.0320506 -0.0270598 0)
(-0.0268104 -0.0304182 0)
(-0.0207064 -0.0315834 0)
(-0.0140943 -0.0294034 0)
(-0.00757304 -0.022568 0)
(-0.00191721 -0.00986036 0)
(-0.0021895 0.0117818 0)
(-0.00861499 0.0266976 0)
(-0.0159296 0.034532 0)
(-0.0232541 0.0369082 0)
(-0.0299509 0.0354693 0)
(-0.0356738 0.0315965 0)
(-0.040295 0.0263039 0)
(-0.0438208 0.0202543 0)
(-0.0463185 0.0138338 0)
(-0.0478642 0.00723846 0)
(-0.0485101 0.000549876 0)
(-0.0482676 -0.00620226 0)
(-0.0471002 -0.0129863 0)
(-0.0449275 -0.0197119 0)
(-0.0416405 -0.0261621 0)
(-0.037137 -0.0319075 0)
(-0.0313805 -0.0362131 0)
(-0.0244884 -0.037965 0)
(-0.0168304 -0.0356725 0)
(-0.00911252 -0.0276126 0)
(-0.00231063 -0.0121656 0)
(-0.00260374 0.0144046 0)
(-0.0102365 0.0323338 0)
(-0.018767 0.0414182 0)
(-0.0271013 0.0438184 0)
(-0.0345096 0.0416816 0)
(-0.0406558 0.0367751 0)
(-0.0454769 0.0303611 0)
(-0.0490621 0.0232323 0)
(-0.0515555 0.01582 0)
(-0.053092 0.00831113 0)
(-0.0537611 0.000748742 0)
(-0.0535875 -0.00689064 0)
(-0.0525237 -0.0146306 0)
(-0.0504516 -0.0224252 0)
(-0.0471973 -0.0300713 0)
(-0.0425684 -0.037094 0)
(-0.0364259 -0.0426131 0)
(-0.0288005 -0.0452299 0)
(-0.0200404 -0.0430091 0)
(-0.0109566 -0.0336582 0)
(-0.00278165 -0.0149817 0)
(-0.00305115 0.0175749 0)
(-0.0120015 0.0389935 0)
(-0.0217671 0.0493268 0)
(-0.0310003 0.0515032 0)
(-0.0389024 0.0483562 0)
(-0.0451973 0.0421475 0)
(-0.0499372 0.0344328 0)
(-0.0533315 0.0261395 0)
(-0.0556247 0.0177278 0)
(-0.0570244 0.00935226 0)
(-0.057664 0.000991363 0)
(-0.057586 -0.00745759 0)
(-0.0567339 -0.0161012 0)
(-0.0549509 -0.0249684 0)
(-0.0519891 -0.0339015 0)
(-0.047543 -0.042405 0)
(-0.0413278 -0.0494554 0)
(-0.0332243 -0.05332 0)
(-0.0234902 -0.0514882 0)
(-0.0130047 -0.0408741 0)
(-0.00330352 -0.0184295 0)
(-0.00345024 0.0213781 0)
(-0.0136135 0.046743 0)
(-0.0243478 0.0581751 0)
(-0.0340449 0.0597256 0)
(-0.0419091 0.0551585 0)
(-0.0478095 0.0473504 0)
(-0.0519769 0.0381821 0)
(-0.0547771 0.0287001 0)
(-0.05657 0.0193611 0)
(-0.0576387 0.010254 0)
(-0.0581609 0.00126296 0)
(-0.0581989 -0.00782086 0)
(-0.0576934 -0.0172158 0)
(-0.0564576 -0.0270605 0)
(-0.0541755 -0.0372865 0)
(-0.0504211 -0.0474242 0)
(-0.0447277 -0.0563381 0)
(-0.0367493 -0.0619368 0)
(-0.0265393 -0.0609964 0)
(-0.0149411 -0.0493355 0)
(-0.00379268 -0.0226163 0)
(-0.00361933 0.0258388 0)
(-0.0144122 0.0554503 0)
(-0.0252818 0.0675635 0)
(-0.0344387 0.0678874 0)
(-0.0412432 0.061418 0)
(-0.0458305 0.0517477 0)
(-0.0486718 0.0410704 0)
(-0.0503037 0.0304996 0)
(-0.0511894 0.0204345 0)
(-0.0516686 0.0108565 0)
(-0.0519486 0.00152774 0)
(-0.0521079 -0.00788761 0)
(-0.0520951 -0.0177411 0)
(-0.0517186 -0.0283128 0)
(-0.0506278 -0.039674 0)
(-0.0483051 -0.0514538 0)
(-0.0441012 -0.0624844 0)
(-0.0373776 -0.0703554 0)
(-0.027829 -0.0710305 0)
(-0.0160495 -0.0588712 0)
(-0.00405869 -0.0275793 0)
(-0.00319368 0.0308322 0)
(-0.0130903 0.0645725 0)
(-0.0222685 0.0765186 0)
(-0.0290079 0.0748118 0)
(-0.0330799 0.0659851 0)
(-0.0350106 0.0543565 0)
(-0.0355264 0.0423326 0)
(-0.0352888 0.0309859 0)
(-0.0348012 0.0205821 0)
(-0.0344037 0.0109538 0)
(-0.0342958 0.00172494 0)
(-0.0345594 -0.00756993 0)
(-0.0351655 -0.0174169 0)
(-0.0359611 -0.0282519 0)
(-0.0366337 -0.04033 0)
(-0.0366652 -0.0534699 0)
(-0.0353042 -0.0666157 0)
(-0.0316289 -0.077196 0)
(-0.0248308 -0.0804033 0)
(-0.0149133 -0.0688072 0)
(-0.00371861 -0.0331843 0)
(-0.00145239 0.0359184 0)
(-0.00717376 0.0728081 0)
(-0.0112741 0.0831442 0)
(-0.0126015 0.0785183 0)
(-0.0116242 0.0671458 0)
(-0.00927009 0.0538599 0)
(-0.00639579 0.0410358 0)
(-0.0036295 0.029538 0)
(-0.00137655 0.0194155 0)
(0.000123603 0.0103289 0)
(0.000740233 0.00177569 0)
(0.000412262 -0.0068093 0)
(-0.000867316 -0.0160133 0)
(-0.0030404 -0.0264053 0)
(-0.00594173 -0.0384349 0)
(-0.00922178 -0.0521925 0)
(-0.0122423 -0.0669294 0)
(-0.0139952 -0.0802395 0)
(-0.0131929 -0.0868829 0)
(-0.00888348 -0.0775689 0)
(-0.0020216 -0.0389375 0)
(0.00315011 0.0400592 0)
(0.0081174 0.0776069 0)
(0.0146038 0.0842818 0)
(0.0226381 0.0761631 0)
(0.0311323 0.0627645 0)
(0.0391382 0.0488312 0)
(0.0460654 0.0363031 0)
(0.0516257 0.0256489 0)
(0.0557188 0.0166535 0)
(0.0583325 0.00883028 0)
(0.0594753 0.00160806 0)
(0.0591366 -0.00560703 0)
(0.0572687 -0.0134255 0)
(0.0537869 -0.0224724 0)
(0.0485962 -0.0333366 0)
(0.0416601 -0.046393 0)
(0.033139 -0.0613779 0)
(0.0236103 -0.0765172 0)
(0.0143119 -0.0869398 0)
(0.00704781 -0.0821667 0)
(0.00262607 -0.0436674 0)
(0.0148433 0.0407596 0)
(0.0427641 0.074112 0)
(0.0672525 0.0752469 0)
(0.0881234 0.0644132 0)
(0.105241 0.0508918 0)
(0.118812 0.0383118 0)
(0.129229 0.0277629 0)
(0.136925 0.0192395 0)
(0.142292 0.0123244 0)
(0.145628 0.00648892 0)
(0.147118 0.00120267 0)
(0.146819 -0.00404902 0)
(0.144654 -0.00978681 0)
(0.140396 -0.016564 0)
(0.133649 -0.0249645 0)
(0.123846 -0.035521 0)
(0.110286 -0.0484511 0)
(0.0922922 -0.0629872 0)
(0.0696096 -0.0758019 0)
(0.0430256 -0.0772757 0)
(0.0145287 -0.0446565 0)
(0.0489756 0.0338109 0)
(0.119893 0.0557782 0)
(0.167606 0.051647 0)
(0.199592 0.0415003 0)
(0.221836 0.0314154 0)
(0.237516 0.0229349 0)
(0.248588 0.0162449 0)
(0.256296 0.0110643 0)
(0.261457 0.00699316 0)
(0.264592 0.00363802 0)
(0.265994 0.000643823 0)
(0.265769 -0.00231527 0)
(0.26384 -0.00556169 0)
(0.259924 -0.00944219 0)
(0.253467 -0.0143451 0)
(0.243531 -0.0206889 0)
(0.228594 -0.0288475 0)
(0.206214 -0.0389029 0)
(0.172617 -0.0498768 0)
(0.121768 -0.0563567 0)
(0.0490388 -0.0372212 0)
(0.182735 0.00445341 0)
(0.29601 0.00747499 0)
(0.348844 0.0104222 0)
(0.374695 0.00979167 0)
(0.389684 0.00784272 0)
(0.399063 0.00584465 0)
(0.405207 0.00416322 0)
(0.409274 0.00283195 0)
(0.411904 0.00177868 0)
(0.413462 0.00090984 0)
(0.414145 0.000135378 0)
(0.414025 -0.000627859 0)
(0.413064 -0.00145948 0)
(0.411102 -0.002438 0)
(0.407798 -0.00363483 0)
(0.402508 -0.0050865 0)
(0.393973 -0.00671599 0)
(0.379496 -0.00815552 0)
(0.353036 -0.00839388 0)
(0.297412 -0.00626215 0)
(0.181011 -0.00709189 0)
)
;

boundaryField
{
    movingWall
    {
        type            fixedValue;
        value           uniform (0.5 0 0);
    }
    fixedWalls
    {
        type            noSlip;
    }
    frontAndBack
    {
        type            empty;
    }
}


// ************************************************************************* //
