/*--------------------------------*- C++ -*----------------------------------*\
| =========                 |                                                 |
| \\      /  F ield         | OpenFOAM: The Open Source CFD Toolbox           |
|  \\    /   O peration     | Version:  4.1                                   |
|   \\  /    A nd           | Web:      www.OpenFOAM.org                      |
|    \\/     M anipulation  |                                                 |
\*---------------------------------------------------------------------------*/
FoamFile
{
    version     2.0;
    format      ascii;
    class       volVectorField;
    location    "571";
    object      U;
}
// * * * * * * * * * * * * * * * * * * * * * * * * * * * * * * * * * * * * * //

dimensions      [0 1 -1 0 0 0 0];

internalField   nonuniform List<vector> 
3264
(
(-2.64218e-06 -4.95373e-07 0)
(-0.000133136 3.05504e-05 0)
(-0.000389771 4.86542e-05 0)
(-0.000677094 5.09917e-05 0)
(-0.00097915 5.27174e-05 0)
(-0.00128533 5.21233e-05 0)
(-0.0015903 5.34252e-05 0)
(-0.00189545 5.40714e-05 0)
(-0.00219619 5.51799e-05 0)
(-0.00249325 5.58127e-05 0)
(-0.00278407 5.63807e-05 0)
(-0.00306889 5.66405e-05 0)
(-0.00334666 5.6756e-05 0)
(-0.00361751 5.66911e-05 0)
(-0.00388114 5.65213e-05 0)
(-0.00413772 5.62622e-05 0)
(-0.00438731 5.59561e-05 0)
(-0.0046301 5.56259e-05 0)
(-0.00486631 5.52993e-05 0)
(-0.00509617 5.49967e-05 0)
(-0.00531995 5.4738e-05 0)
(-0.00553789 5.45393e-05 0)
(-0.00575022 5.44146e-05 0)
(-0.00595716 5.43748e-05 0)
(-0.00615888 5.44274e-05 0)
(-0.00635549 5.45759e-05 0)
(-0.00654702 5.48187e-05 0)
(-0.00673344 5.51482e-05 0)
(-0.00691458 5.555e-05 0)
(-0.00709016 5.60017e-05 0)
(-0.00725973 5.64718e-05 0)
(-0.0074227 5.69196e-05 0)
(-0.00757828 5.72944e-05 0)
(-0.0077255 5.75356e-05 0)
(-0.00786318 5.75738e-05 0)
(-0.00798994 5.73314e-05 0)
(-0.00810421 5.67248e-05 0)
(-0.00820422 5.5667e-05 0)
(-0.00828805 5.40703e-05 0)
(-0.00835361 5.18497e-05 0)
(-0.00839873 4.8927e-05 0)
(-0.00842118 4.52341e-05 0)
(-0.00841867 4.07168e-05 0)
(-0.00838898 3.53378e-05 0)
(-0.00832997 2.90798e-05 0)
(-0.0082396 2.19474e-05 0)
(-0.00811606 1.3968e-05 0)
(-0.00795776 5.1926e-06 0)
(-0.00776341 -4.3047e-06 0)
(-0.00753204 -1.4428e-05 0)
(-0.00726305 -2.50613e-05 0)
(-0.00695624 -3.60715e-05 0)
(-0.00661182 -4.73109e-05 0)
(-0.00623044 -5.86209e-05 0)
(-0.00581316 -6.98358e-05 0)
(-0.00536149 -8.07866e-05 0)
(-0.00487738 -9.1305e-05 0)
(-0.00436314 -0.000101227 0)
(-0.0038215 -0.000110398 0)
(-0.00325551 -0.000118674 0)
(-0.00266852 -0.000125927 0)
(-0.00206417 -0.000132047 0)
(-0.00144628 -0.000136947 0)
(-0.000818858 -0.00014056 0)
(-0.000185996 -0.000142845 0)
(0.000448161 -0.000143788 0)
(0.00107949 -0.000143397 0)
(0.00170393 -0.00014171 0)
(0.00231757 -0.000138787 0)
(0.00291668 -0.000134709 0)
(0.00349776 -0.000129581 0)
(0.00405762 -0.000123523 0)
(0.00459338 -0.000116668 0)
(0.00510254 -0.000109162 0)
(0.00558298 -0.000101153 0)
(0.00603297 -9.27933e-05 0)
(0.00645122 -8.42323e-05 0)
(0.00683684 -7.56128e-05 0)
(0.00718935 -6.70684e-05 0)
(0.00750867 -5.87201e-05 0)
(0.00779506 -5.06741e-05 0)
(0.00804914 -4.30205e-05 0)
(0.00827182 -3.58319e-05 0)
(0.00846427 -2.91633e-05 0)
(0.00862789 -2.30529e-05 0)
(0.00876424 -1.75226e-05 0)
(0.00887506 -1.25796e-05 0)
(0.00896215 -8.21808e-06 0)
(0.00902739 -4.42129e-06 0)
(0.00907268 -1.16356e-06 0)
(0.00909992 1.58758e-06 0)
(0.00911098 3.86946e-06 0)
(0.00910766 5.72242e-06 0)
(0.00909171 7.1882e-06 0)
(0.00906478 8.3086e-06 0)
(0.00902843 9.1244e-06 0)
(0.00898409 9.67449e-06 0)
(0.00893312 9.99532e-06 0)
(0.00887673 1.01205e-05 0)
(0.00881604 1.00805e-05 0)
(0.00875206 9.90291e-06 0)
(0.00868568 9.61208e-06 0)
(0.00861771 9.22956e-06 0)
(0.00854885 8.77418e-06 0)
(0.00847972 8.26234e-06 0)
(0.00841086 7.70816e-06 0)
(0.00834273 7.1238e-06 0)
(0.00827572 6.51966e-06 0)
(0.00821016 5.90458e-06 0)
(0.00814632 5.28604e-06 0)
(0.00808444 4.67034e-06 0)
(0.00802468 4.06276e-06 0)
(0.0079672 3.46764e-06 0)
(0.00791209 2.88857e-06 0)
(0.00785943 2.32843e-06 0)
(0.00780928 1.7895e-06 0)
(0.00776165 1.27352e-06 0)
(0.00771656 7.8181e-07 0)
(0.00767399 3.15245e-07 0)
(0.00763393 -1.25628e-07 0)
(0.00759635 -5.40572e-07 0)
(0.00756119 -9.29611e-07 0)
(0.00752841 -1.29299e-06 0)
(0.00749796 -1.63116e-06 0)
(0.00746978 -1.94472e-06 0)
(0.00744381 -2.23441e-06 0)
(0.00741998 -2.50109e-06 0)
(0.00739824 -2.74569e-06 0)
(0.00737851 -2.96924e-06 0)
(0.00736075 -3.17281e-06 0)
(0.00734488 -3.35751e-06 0)
(0.00733085 -3.52448e-06 0)
(0.00731861 -3.67489e-06 0)
(0.00730809 -3.80991e-06 0)
(0.00729926 -3.9307e-06 0)
(0.00729206 -4.03842e-06 0)
(0.00728644 -4.13422e-06 0)
(0.00728237 -4.21922e-06 0)
(0.0072798 -4.29453e-06 0)
(0.0072787 -4.36122e-06 0)
(0.00727905 -4.42032e-06 0)
(0.0072808 -4.47285e-06 0)
(0.00728393 -4.51976e-06 0)
(0.00728842 -4.56199e-06 0)
(0.00729425 -4.60042e-06 0)
(0.0073014 -4.63588e-06 0)
(0.00730985 -4.66918e-06 0)
(0.00731958 -4.70106e-06 0)
(0.00733059 -4.73222e-06 0)
(0.00734286 -4.76331e-06 0)
(0.00735638 -4.79494e-06 0)
(0.00737114 -4.82766e-06 0)
(0.00738715 -4.86198e-06 0)
(0.00740439 -4.89834e-06 0)
(0.00742285 -4.93716e-06 0)
(0.00744253 -4.97878e-06 0)
(0.00746344 -5.02349e-06 0)
(0.00748555 -5.07155e-06 0)
(0.00750887 -5.12315e-06 0)
(0.00753339 -5.17843e-06 0)
(0.00755911 -5.23747e-06 0)
(0.00758601 -5.30031e-06 0)
(0.00761409 -5.36692e-06 0)
(0.00764334 -5.43722e-06 0)
(0.00767374 -5.51108e-06 0)
(0.00770528 -5.58831e-06 0)
(0.00773795 -5.66866e-06 0)
(0.00777171 -5.75183e-06 0)
(0.00780656 -5.83747e-06 0)
(0.00784246 -5.92517e-06 0)
(0.00787937 -6.01448e-06 0)
(0.00791728 -6.1049e-06 0)
(0.00795613 -6.1959e-06 0)
(0.00799588 -6.2869e-06 0)
(0.00803649 -6.37731e-06 0)
(0.0080779 -6.46651e-06 0)
(0.00812007 -6.55389e-06 0)
(0.00816291 -6.63881e-06 0)
(0.00820638 -6.7207e-06 0)
(0.00825039 -6.79897e-06 0)
(0.00829488 -6.8731e-06 0)
(0.00833976 -6.94264e-06 0)
(0.00838496 -7.0072e-06 0)
(0.00843039 -7.06649e-06 0)
(0.00847596 -7.12038e-06 0)
(0.0085216 -7.16886e-06 0)
(0.0085672 -7.21224e-06 0)
(0.00861269 -7.2509e-06 0)
(0.00865798 -7.28683e-06 0)
(0.00870299 -7.31962e-06 0)
(0.00874765 -7.36209e-06 0)
(0.00879193 -7.39483e-06 0)
(0.0088357 -7.51121e-06 0)
(0.0088793 -7.52443e-06 0)
(0.0089217 -8.01293e-06 0)
(0.00896653 -7.92442e-06 0)
(0.00900458 -9.54898e-06 0)
(0.00906139 -1.06161e-05 0)
(0.00908275 -1.13864e-05 0)
(0.00918236 -3.12674e-05 0)
(-8.33867e-05 0.00013635 0)
(-0.000583138 0.000379243 0)
(-0.00131193 0.000518423 0)
(-0.00208707 0.000562651 0)
(-0.0028675 0.000583798 0)
(-0.00363642 0.000585726 0)
(-0.00438054 0.000585927 0)
(-0.00510278 0.000579542 0)
(-0.00579602 0.000570978 0)
(-0.00646249 0.000559235 0)
(-0.00709958 0.000546116 0)
(-0.00770879 0.000531821 0)
(-0.00828985 0.000517087 0)
(-0.00884397 0.000502166 0)
(-0.00937178 0.000487356 0)
(-0.00987432 0.000472805 0)
(-0.0103524 0.000458635 0)
(-0.010807 0.000444911 0)
(-0.0112387 0.000431671 0)
(-0.0116484 0.000418927 0)
(-0.0120365 0.000406666 0)
(-0.0124035 0.000394852 0)
(-0.0127498 0.000383426 0)
(-0.0130754 0.000372302 0)
(-0.0133803 0.000361368 0)
(-0.0136643 0.000350481 0)
(-0.0139269 0.000339467 0)
(-0.0141674 0.000328118 0)
(-0.0143849 0.000316194 0)
(-0.0145782 0.000303422 0)
(-0.0147458 0.000289501 0)
(-0.0148859 0.000274105 0)
(-0.0149966 0.00025689 0)
(-0.0150756 0.000237505 0)
(-0.0151205 0.000215598 0)
(-0.0151285 0.000190829 0)
(-0.0150969 0.000162883 0)
(-0.0150228 0.000131483 0)
(-0.0149032 9.64e-05 0)
(-0.0147353 5.74662e-05 0)
(-0.0145161 1.45856e-05 0)
(-0.014243 -3.22583e-05 0)
(-0.0139135 -8.29968e-05 0)
(-0.0135254 -0.000137472 0)
(-0.0130768 -0.000195434 0)
(-0.0125661 -0.000256549 0)
(-0.0119924 -0.000320393 0)
(-0.011355 -0.00038647 0)
(-0.0106539 -0.000454209 0)
(-0.00988942 -0.000522984 0)
(-0.00906263 -0.000592117 0)
(-0.00817505 -0.000660895 0)
(-0.00722877 -0.000728581 0)
(-0.00622641 -0.000794426 0)
(-0.00517115 -0.000857683 0)
(-0.00406666 -0.00091762 0)
(-0.00291709 -0.000973533 0)
(-0.00172704 -0.00102475 0)
(-0.000501512 -0.00107067 0)
(0.00075413 -0.00111072 0)
(0.00203422 -0.00114443 0)
(0.00333282 -0.00117139 0)
(0.00464383 -0.00119128 0)
(0.005961 -0.00120387 0)
(0.00727802 -0.00120906 0)
(0.00858857 -0.00120679 0)
(0.00988641 -0.00119717 0)
(0.0111654 -0.00118035 0)
(0.0124198 -0.00115662 0)
(0.0136437 -0.00112634 0)
(0.014832 -0.00108998 0)
(0.0159798 -0.00104806 0)
(0.0170824 -0.00100119 0)
(0.018136 -0.000950015 0)
(0.0191371 -0.00089523 0)
(0.0200825 -0.000837556 0)
(0.0209701 -0.000777724 0)
(0.0217978 -0.000716461 0)
(0.0225645 -0.00065448 0)
(0.0232694 -0.00059246 0)
(0.0239123 -0.00053104 0)
(0.0244935 -0.000470809 0)
(0.0250139 -0.000412294 0)
(0.0254746 -0.000355957 0)
(0.0258774 -0.000302189 0)
(0.0262242 -0.000251314 0)
(0.0265173 -0.000203579 0)
(0.0267594 -0.000159166 0)
(0.0269531 -0.000118191 0)
(0.0271014 -8.07071e-05 0)
(0.0272073 -4.67147e-05 0)
(0.027274 -1.61644e-05 0)
(0.0273046 1.10341e-05 0)
(0.0273023 3.5006e-05 0)
(0.0272701 5.5904e-05 0)
(0.0272111 7.39021e-05 0)
(0.0271283 8.91889e-05 0)
(0.0270243 0.000101963 0)
(0.0269019 0.000112427 0)
(0.0267637 0.000120783 0)
(0.026612 0.000127233 0)
(0.0264491 0.00013197 0)
(0.0262769 0.00013518 0)
(0.0260974 0.000137039 0)
(0.0259123 0.000137713 0)
(0.0257231 0.000137354 0)
(0.0255313 0.000136105 0)
(0.0253381 0.000134095 0)
(0.0251446 0.000131442 0)
(0.0249519 0.000128251 0)
(0.0247607 0.000124619 0)
(0.0245719 0.000120629 0)
(0.024386 0.000116358 0)
(0.0242037 0.00011187 0)
(0.0240254 0.000107224 0)
(0.0238515 0.000102469 0)
(0.0236823 9.76496e-05 0)
(0.0235181 9.28012e-05 0)
(0.023359 8.79552e-05 0)
(0.0232053 8.31376e-05 0)
(0.0230571 7.83698e-05 0)
(0.0229143 7.36689e-05 0)
(0.0227772 6.90488e-05 0)
(0.0226457 6.45201e-05 0)
(0.0225198 6.00904e-05 0)
(0.0223995 5.57653e-05 0)
(0.0222848 5.1548e-05 0)
(0.0221757 4.74401e-05 0)
(0.022072 4.34416e-05 0)
(0.0219738 3.95514e-05 0)
(0.021881 3.5767e-05 0)
(0.0217935 3.20855e-05 0)
(0.0217113 2.85029e-05 0)
(0.0216343 2.50149e-05 0)
(0.0215625 2.16167e-05 0)
(0.0214958 1.83032e-05 0)
(0.0214341 1.50693e-05 0)
(0.0213774 1.19095e-05 0)
(0.0213257 8.81857e-06 0)
(0.0212788 5.79112e-06 0)
(0.0212368 2.82197e-06 0)
(0.0211996 -9.39457e-08 0)
(0.0211672 -2.96149e-06 0)
(0.0211396 -5.78529e-06 0)
(0.0211166 -8.56975e-06 0)
(0.0210983 -1.1319e-05 0)
(0.0210846 -1.40367e-05 0)
(0.0210756 -1.67265e-05 0)
(0.0210711 -1.93915e-05 0)
(0.0210712 -2.20345e-05 0)
(0.0210758 -2.46578e-05 0)
(0.0210849 -2.72636e-05 0)
(0.0210985 -2.98535e-05 0)
(0.0211165 -3.24287e-05 0)
(0.0211389 -3.499e-05 0)
(0.0211658 -3.75378e-05 0)
(0.0211969 -4.0072e-05 0)
(0.0212324 -4.25921e-05 0)
(0.0212722 -4.50969e-05 0)
(0.0213162 -4.75849e-05 0)
(0.0213643 -5.0054e-05 0)
(0.0214166 -5.25015e-05 0)
(0.021473 -5.49244e-05 0)
(0.0215334 -5.73187e-05 0)
(0.0215978 -5.96803e-05 0)
(0.021666 -6.20041e-05 0)
(0.021738 -6.42847e-05 0)
(0.0218137 -6.6516e-05 0)
(0.021893 -6.86915e-05 0)
(0.0219757 -7.0804e-05 0)
(0.0220619 -7.28458e-05 0)
(0.0221513 -7.48089e-05 0)
(0.0222437 -7.66849e-05 0)
(0.0223391 -7.84648e-05 0)
(0.0224373 -8.01397e-05 0)
(0.0225381 -8.17004e-05 0)
(0.0226413 -8.31377e-05 0)
(0.0227468 -8.44427e-05 0)
(0.0228542 -8.56065e-05 0)
(0.0229634 -8.66208e-05 0)
(0.0230742 -8.74779e-05 0)
(0.0231863 -8.81708e-05 0)
(0.0232995 -8.86936e-05 0)
(0.0234134 -8.90416e-05 0)
(0.023528 -8.92116e-05 0)
(0.0236428 -8.92021e-05 0)
(0.0237576 -8.90133e-05 0)
(0.0238721 -8.86486e-05 0)
(0.0239862 -8.81134e-05 0)
(0.0240994 -8.7418e-05 0)
(0.0242116 -8.65851e-05 0)
(0.0243225 -8.56086e-05 0)
(0.024432 -8.46666e-05 0)
(0.0245396 -8.33767e-05 0)
(0.0246457 -8.3224e-05 0)
(0.0247497 -8.09573e-05 0)
(0.0248507 -8.45309e-05 0)
(0.0249566 -8.23038e-05 0)
(0.0250388 -8.54138e-05 0)
(0.0251799 -0.000119328 0)
(-0.000178945 0.000645235 0)
(-0.00104355 0.00125455 0)
(-0.00216894 0.00153375 0)
(-0.00330697 0.00157553 0)
(-0.00439627 0.00157115 0)
(-0.00542624 0.00152843 0)
(-0.00638123 0.0014855 0)
(-0.00727234 0.00143394 0)
(-0.00809621 0.00138162 0)
(-0.008861 0.00132689 0)
(-0.0095681 0.0012723 0)
(-0.0102227 0.00121805 0)
(-0.0108271 0.00116498 0)
(-0.0113849 0.00111329 0)
(-0.0118983 0.0010632 0)
(-0.0123695 0.00101476 0)
(-0.0128004 0.000967929 0)
(-0.0131926 0.000922618 0)
(-0.0135471 0.000878689 0)
(-0.013865 0.000835964 0)
(-0.0141469 0.000794233 0)
(-0.0143933 0.000753245 0)
(-0.0146044 0.000712715 0)
(-0.01478 0.00067232 0)
(-0.0149199 0.000631694 0)
(-0.0150234 0.000590429 0)
(-0.0150896 0.000548079 0)
(-0.0151176 0.000504158 0)
(-0.015106 0.000458147 0)
(-0.0150533 0.000409502 0)
(-0.0149578 0.000357664 0)
(-0.0148175 0.00030207 0)
(-0.0146304 0.00024217 0)
(-0.0143944 0.000177439 0)
(-0.0141072 0.0001074 0)
(-0.0137665 3.16371e-05 0)
(-0.0133702 -5.01867e-05 0)
(-0.0129161 -0.000138312 0)
(-0.0124021 -0.00023287 0)
(-0.0118264 -0.00033387 0)
(-0.0111874 -0.000441191 0)
(-0.0104836 -0.000554579 0)
(-0.00971405 -0.00067364 0)
(-0.00887804 -0.000797843 0)
(-0.00797526 -0.000926529 0)
(-0.00700582 -0.00105891 0)
(-0.00597028 -0.0011941 0)
(-0.00486963 -0.00133108 0)
(-0.00370537 -0.00146879 0)
(-0.00247944 -0.00160606 0)
(-0.00119428 -0.00174168 0)
(0.000147219 -0.00187442 0)
(0.00154169 -0.00200302 0)
(0.00298532 -0.00212621 0)
(0.00447387 -0.00224276 0)
(0.00600271 -0.00235147 0)
(0.00756681 -0.0024512 0)
(0.00916083 -0.00254087 0)
(0.0107791 -0.00261951 0)
(0.0124157 -0.00268624 0)
(0.0140646 -0.0027403 0)
(0.0157194 -0.00278108 0)
(0.0173738 -0.0028081 0)
(0.0190213 -0.00282105 0)
(0.0206556 -0.00281976 0)
(0.0222702 -0.00280424 0)
(0.0238591 -0.00277468 0)
(0.0254163 -0.00273142 0)
(0.0269359 -0.00267498 0)
(0.0284126 -0.00260602 0)
(0.0298414 -0.00252536 0)
(0.0312176 -0.00243395 0)
(0.0325371 -0.00233285 0)
(0.0337962 -0.00222321 0)
(0.0349917 -0.00210626 0)
(0.036121 -0.00198328 0)
(0.037182 -0.00185556 0)
(0.0381733 -0.00172443 0)
(0.0390937 -0.00159116 0)
(0.0399428 -0.001457 0)
(0.0407206 -0.00132316 0)
(0.0414275 -0.00119073 0)
(0.0420645 -0.00106075 0)
(0.0426329 -0.000934144 0)
(0.0431342 -0.000811725 0)
(0.0435706 -0.000694202 0)
(0.0439442 -0.000582165 0)
(0.0442576 -0.000476092 0)
(0.0445135 -0.000376349 0)
(0.0447147 -0.000283196 0)
(0.0448642 -0.000196795 0)
(0.0449652 -0.000117214 0)
(0.0450207 -4.44397e-05 0)
(0.045034 2.16159e-05 0)
(0.0450081 8.1105e-05 0)
(0.0449463 0.000134234 0)
(0.0448516 0.000181256 0)
(0.0447271 0.000222458 0)
(0.0445756 0.000258157 0)
(0.0444 0.000288688 0)
(0.0442031 0.0003144 0)
(0.0439873 0.000335649 0)
(0.0437553 0.000352789 0)
(0.0435092 0.000366173 0)
(0.0432513 0.000376145 0)
(0.0429835 0.000383035 0)
(0.0427078 0.000387164 0)
(0.042426 0.000388831 0)
(0.0421395 0.000388322 0)
(0.0418499 0.000385902 0)
(0.0415585 0.000381816 0)
(0.0412665 0.000376292 0)
(0.040975 0.000369536 0)
(0.0406849 0.000361737 0)
(0.0403971 0.000353065 0)
(0.0401123 0.000343672 0)
(0.0398313 0.000333695 0)
(0.0395546 0.000323252 0)
(0.0392828 0.000312449 0)
(0.0390162 0.000301378 0)
(0.0387553 0.000290117 0)
(0.0385003 0.000278735 0)
(0.0382516 0.000267289 0)
(0.0380093 0.000255825 0)
(0.0377737 0.000244385 0)
(0.0375449 0.000232999 0)
(0.0373231 0.000221693 0)
(0.0371084 0.000210486 0)
(0.0369008 0.000199393 0)
(0.0367004 0.000188423 0)
(0.0365073 0.000177583 0)
(0.0363216 0.000166877 0)
(0.0361432 0.000156304 0)
(0.0359722 0.000145864 0)
(0.0358087 0.000135553 0)
(0.0356526 0.000125367 0)
(0.035504 0.0001153 0)
(0.0353629 0.000105347 0)
(0.0352293 9.55004e-05 0)
(0.0351032 8.57546e-05 0)
(0.0349847 7.61026e-05 0)
(0.0348738 6.65381e-05 0)
(0.0347704 5.70548e-05 0)
(0.0346746 4.76471e-05 0)
(0.0345863 3.83097e-05 0)
(0.0345057 2.90379e-05 0)
(0.0344327 1.98277e-05 0)
(0.0343673 1.06758e-05 0)
(0.0343095 1.57939e-06 0)
(0.0342593 -7.46328e-06 0)
(0.0342167 -1.64534e-05 0)
(0.0341817 -2.53911e-05 0)
(0.0341542 -3.42761e-05 0)
(0.0341343 -4.31068e-05 0)
(0.0341219 -5.1881e-05 0)
(0.034117 -6.05954e-05 0)
(0.0341195 -6.92458e-05 0)
(0.0341294 -7.78271e-05 0)
(0.0341466 -8.63331e-05 0)
(0.034171 -9.47565e-05 0)
(0.0342027 -0.000103089 0)
(0.0342414 -0.000111321 0)
(0.0342871 -0.000119442 0)
(0.0343398 -0.000127439 0)
(0.0343992 -0.000135301 0)
(0.0344652 -0.000143012 0)
(0.0345378 -0.000150557 0)
(0.0346167 -0.000157919 0)
(0.0347019 -0.00016508 0)
(0.034793 -0.000172021 0)
(0.03489 -0.000178722 0)
(0.0349925 -0.000185161 0)
(0.0351005 -0.000191317 0)
(0.0352136 -0.000197165 0)
(0.0353317 -0.000202684 0)
(0.0354544 -0.000207848 0)
(0.0355814 -0.000212635 0)
(0.0357125 -0.000217021 0)
(0.0358474 -0.000220982 0)
(0.0359857 -0.000224496 0)
(0.0361271 -0.000227543 0)
(0.0362712 -0.000230103 0)
(0.0364177 -0.000232159 0)
(0.0365662 -0.000233697 0)
(0.0367163 -0.000234705 0)
(0.0368676 -0.000235177 0)
(0.0370198 -0.000235107 0)
(0.0371724 -0.000234499 0)
(0.037325 -0.000233358 0)
(0.0374773 -0.000231703 0)
(0.0376288 -0.000229546 0)
(0.0377791 -0.000226942 0)
(0.037928 -0.000223931 0)
(0.0380749 -0.000220528 0)
(0.0382197 -0.000217355 0)
(0.0383614 -0.000212792 0)
(0.0385012 -0.000212566 0)
(0.0386363 -0.000205804 0)
(0.0387632 -0.000208888 0)
(0.0389186 -0.000228041 0)
(-0.000305715 0.00126199 0)
(-0.00151705 0.0023159 0)
(-0.0028715 0.00272445 0)
(-0.00413915 0.00273488 0)
(-0.00523865 0.00266334 0)
(-0.00621914 0.00253465 0)
(-0.00706677 0.00240634 0)
(-0.00781512 0.002272 0)
(-0.00846566 0.0021426 0)
(-0.00903508 0.00201667 0)
(-0.00952855 0.00189651 0)
(-0.00995497 0.00178172 0)
(-0.0103191 0.0016724 0)
(-0.0106261 0.00156809 0)
(-0.0108794 0.00146839 0)
(-0.0110822 0.00137279 0)
(-0.0112368 0.00128077 0)
(-0.0113451 0.00119182 0)
(-0.0114085 0.00110542 0)
(-0.0114279 0.00102106 0)
(-0.0114039 0.000938195 0)
(-0.011337 0.000856292 0)
(-0.0112271 0.000774791 0)
(-0.0110739 0.000693112 0)
(-0.0108771 0.000610647 0)
(-0.0106359 0.000526765 0)
(-0.0103495 0.000440812 0)
(-0.0100167 0.000352115 0)
(-0.00963643 0.000259988 0)
(-0.00920729 0.000163745 0)
(-0.0087279 6.27115e-05 0)
(-0.00819679 -4.37594e-05 0)
(-0.00761246 -0.000156272 0)
(-0.00697344 -0.000275368 0)
(-0.00627829 -0.000401509 0)
(-0.00552568 -0.000535056 0)
(-0.00471437 -0.000676255 0)
(-0.00384331 -0.000825218 0)
(-0.00291163 -0.000981913 0)
(-0.0019187 -0.00114615 0)
(-0.000864141 -0.00131758 0)
(0.000252128 -0.00149568 0)
(0.00142988 -0.00167978 0)
(0.00266855 -0.00186901 0)
(0.00396722 -0.00206239 0)
(0.00532459 -0.00225877 0)
(0.006739 -0.00245687 0)
(0.00820838 -0.0026553 0)
(0.00973028 -0.00285258 0)
(0.0113018 -0.00304713 0)
(0.0129198 -0.00323732 0)
(0.0145806 -0.0034215 0)
(0.0162801 -0.00359799 0)
(0.018014 -0.00376512 0)
(0.0197775 -0.00392124 0)
(0.0215657 -0.00406479 0)
(0.0233731 -0.00419425 0)
(0.0251941 -0.00430822 0)
(0.027023 -0.00440543 0)
(0.0288536 -0.00448474 0)
(0.0306799 -0.00454518 0)
(0.0324957 -0.00458598 0)
(0.0342945 -0.00460655 0)
(0.0360703 -0.00460653 0)
(0.037817 -0.00458578 0)
(0.0395284 -0.0045444 0)
(0.041199 -0.00448273 0)
(0.0428232 -0.00440132 0)
(0.0443959 -0.00430098 0)
(0.0459125 -0.00418274 0)
(0.0473686 -0.0040478 0)
(0.0487605 -0.00389758 0)
(0.0500849 -0.00373363 0)
(0.0513391 -0.00355763 0)
(0.0525209 -0.00337138 0)
(0.0536288 -0.00317671 0)
(0.0546616 -0.0029755 0)
(0.055619 -0.00276963 0)
(0.0565007 -0.00256093 0)
(0.0573074 -0.00235117 0)
(0.0580399 -0.00214205 0)
(0.0586996 -0.00193512 0)
(0.0592881 -0.00173185 0)
(0.0598073 -0.00153351 0)
(0.0602596 -0.00134128 0)
(0.0606474 -0.00115613 0)
(0.0609734 -0.000978906 0)
(0.0612402 -0.000810282 0)
(0.0614508 -0.000650787 0)
(0.0616082 -0.000500806 0)
(0.0617154 -0.000360589 0)
(0.0617753 -0.000230267 0)
(0.0617909 -0.000109856 0)
(0.0617653 7.24564e-07 0)
(0.0617013 0.000101642 0)
(0.0616018 0.000193139 0)
(0.0614695 0.000275518 0)
(0.0613073 0.000349135 0)
(0.0611177 0.000414386 0)
(0.0609031 0.000471696 0)
(0.0606662 0.000521516 0)
(0.060409 0.000564307 0)
(0.0601339 0.00060054 0)
(0.0598429 0.000630685 0)
(0.0595381 0.000655208 0)
(0.0592212 0.000674567 0)
(0.058894 0.000689207 0)
(0.0585582 0.000699555 0)
(0.0582154 0.000706023 0)
(0.0578668 0.000709 0)
(0.0575139 0.000708854 0)
(0.0571579 0.000705929 0)
(0.0567999 0.000700549 0)
(0.056441 0.00069301 0)
(0.056082 0.000683587 0)
(0.0557239 0.000672531 0)
(0.0553675 0.00066007 0)
(0.0550134 0.000646412 0)
(0.0546623 0.000631742 0)
(0.0543148 0.000616225 0)
(0.0539714 0.000600007 0)
(0.0536325 0.000583218 0)
(0.0532987 0.000565969 0)
(0.0529702 0.000548359 0)
(0.0526474 0.000530469 0)
(0.0523306 0.00051237 0)
(0.0520201 0.000494121 0)
(0.0517162 0.00047577 0)
(0.0514189 0.000457357 0)
(0.0511286 0.000438912 0)
(0.0508455 0.000420459 0)
(0.0505697 0.000402018 0)
(0.0503013 0.000383599 0)
(0.0500406 0.000365213 0)
(0.0497876 0.000346865 0)
(0.0495426 0.000328556 0)
(0.0493055 0.000310286 0)
(0.0490767 0.000292056 0)
(0.0488562 0.000273862 0)
(0.0486441 0.000255701 0)
(0.0484405 0.00023757 0)
(0.0482455 0.000219467 0)
(0.0480593 0.000201388 0)
(0.047882 0.000183331 0)
(0.0477137 0.000165296 0)
(0.0475544 0.000147282 0)
(0.0474043 0.00012929 0)
(0.0472634 0.000111322 0)
(0.0471318 9.33809e-05 0)
(0.0470096 7.54721e-05 0)
(0.0468968 5.76012e-05 0)
(0.0467936 3.97753e-05 0)
(0.0466998 2.20032e-05 0)
(0.0466157 4.29469e-06 0)
(0.0465411 -1.33388e-05 0)
(0.0464761 -3.08844e-05 0)
(0.0464207 -4.83281e-05 0)
(0.0463749 -6.56543e-05 0)
(0.0463386 -8.28459e-05 0)
(0.0463117 -9.98843e-05 0)
(0.0462943 -0.00011675 0)
(0.0462863 -0.00013342 0)
(0.0462875 -0.000149873 0)
(0.0462978 -0.000166084 0)
(0.0463172 -0.000182025 0)
(0.0463454 -0.00019767 0)
(0.0463824 -0.000212988 0)
(0.0464279 -0.000227949 0)
(0.0464817 -0.000242519 0)
(0.0465437 -0.000256665 0)
(0.0466136 -0.000270351 0)
(0.0466912 -0.00028354 0)
(0.0467762 -0.000296194 0)
(0.0468683 -0.000308273 0)
(0.0469673 -0.000319739 0)
(0.0470728 -0.000330552 0)
(0.0471845 -0.000340671 0)
(0.0473021 -0.000350057 0)
(0.0474251 -0.000358671 0)
(0.0475533 -0.000366477 0)
(0.0476862 -0.000373439 0)
(0.0478234 -0.000379524 0)
(0.0479645 -0.000384703 0)
(0.0481091 -0.000388951 0)
(0.0482568 -0.000392246 0)
(0.048407 -0.000394572 0)
(0.0485593 -0.000395921 0)
(0.0487134 -0.000396289 0)
(0.0488687 -0.00039568 0)
(0.0490248 -0.000394107 0)
(0.0491812 -0.000391597 0)
(0.0493374 -0.000388176 0)
(0.0494931 -0.000383908 0)
(0.0496477 -0.000378836 0)
(0.0498007 -0.000373164 0)
(0.0499516 -0.000366596 0)
(0.0501 -0.000361261 0)
(0.0502436 -0.000351555 0)
(0.0503836 -0.000351349 0)
(0.0505341 -0.000348922 0)
(-0.000405143 0.00247001 0)
(-0.00171936 0.00379706 0)
(-0.0029876 0.00414216 0)
(-0.0040505 0.00389109 0)
(-0.00482715 0.00361826 0)
(-0.0054284 0.00331608 0)
(-0.00585111 0.00305248 0)
(-0.00615477 0.00280636 0)
(-0.00634853 0.00258276 0)
(-0.00645842 0.00237541 0)
(-0.0064928 0.00218313 0)
(-0.00646348 0.00200341 0)
(-0.0063761 0.00183459 0)
(-0.00623651 0.00167507 0)
(-0.0060482 0.00152345 0)
(-0.00581424 0.00137849 0)
(-0.00553665 0.00123905 0)
(-0.00521701 0.00110413 0)
(-0.0048563 0.000972768 0)
(-0.00445518 0.000844085 0)
(-0.00401394 0.000717233 0)
(-0.00353258 0.000591394 0)
(-0.00301084 0.000465765 0)
(-0.0024483 0.000339554 0)
(-0.00184429 0.000211968 0)
(-0.00119806 8.22198e-05 0)
(-0.000508691 -5.04779e-05 0)
(0.000224804 -0.000186903 0)
(0.00100348 -0.00032782 0)
(0.00182843 -0.000473964 0)
(0.00270073 -0.000626035 0)
(0.00362146 -0.000784676 0)
(0.00459162 -0.000950461 0)
(0.00561214 -0.00112387 0)
(0.00668382 -0.00130529 0)
(0.00780733 -0.00149495 0)
(0.00898316 -0.00169299 0)
(0.0102116 -0.00189933 0)
(0.0114928 -0.00211378 0)
(0.0128265 -0.00233595 0)
(0.0142123 -0.00256524 0)
(0.0156495 -0.00280092 0)
(0.0171371 -0.00304203 0)
(0.0186739 -0.00328744 0)
(0.0202581 -0.00353587 0)
(0.0218878 -0.00378587 0)
(0.0235607 -0.00403583 0)
(0.0252742 -0.00428403 0)
(0.0270252 -0.00452864 0)
(0.0288104 -0.00476774 0)
(0.030626 -0.00499933 0)
(0.0324681 -0.00522139 0)
(0.0343323 -0.00543188 0)
(0.0362138 -0.00562877 0)
(0.0381077 -0.00581008 0)
(0.0400086 -0.00597387 0)
(0.0419112 -0.00611834 0)
(0.0438095 -0.00624179 0)
(0.0456979 -0.00634268 0)
(0.0475702 -0.00641968 0)
(0.0494203 -0.00647164 0)
(0.0512423 -0.00649767 0)
(0.0530301 -0.00649713 0)
(0.0547778 -0.00646968 0)
(0.0564797 -0.00641526 0)
(0.0581305 -0.0063341 0)
(0.059725 -0.00622677 0)
(0.0612587 -0.00609412 0)
(0.0627272 -0.00593733 0)
(0.0641269 -0.00575782 0)
(0.0654546 -0.0055573 0)
(0.0667078 -0.0053377 0)
(0.0678845 -0.00510114 0)
(0.0689833 -0.00484989 0)
(0.0700034 -0.00458633 0)
(0.0709447 -0.00431291 0)
(0.0718076 -0.0040321 0)
(0.0725928 -0.00374635 0)
(0.0733017 -0.00345802 0)
(0.0739361 -0.00316941 0)
(0.0744981 -0.00288265 0)
(0.0749901 -0.00259973 0)
(0.0754147 -0.00232245 0)
(0.0757748 -0.00205241 0)
(0.0760733 -0.00179103 0)
(0.0763134 -0.00153951 0)
(0.0764983 -0.00129882 0)
(0.0766309 -0.00106978 0)
(0.0767146 -0.000852975 0)
(0.0767523 -0.000648843 0)
(0.0767472 -0.00045764 0)
(0.0767022 -0.000279479 0)
(0.0766201 -0.000114338 0)
(0.0765038 3.79236e-05 0)
(0.0763558 0.000177546 0)
(0.0761787 0.000304856 0)
(0.0759749 0.000420255 0)
(0.0757468 0.000524199 0)
(0.0754965 0.000617191 0)
(0.075226 0.00069977 0)
(0.0749374 0.000772497 0)
(0.0746325 0.000835948 0)
(0.0743131 0.000890708 0)
(0.0739807 0.000937361 0)
(0.0736369 0.000976484 0)
(0.0732832 0.00100865 0)
(0.0729209 0.0010344 0)
(0.0725513 0.00105427 0)
(0.0721755 0.00106878 0)
(0.0717947 0.00107841 0)
(0.0714099 0.00108363 0)
(0.071022 0.00108487 0)
(0.070632 0.00108255 0)
(0.0702406 0.00107704 0)
(0.0698486 0.00106871 0)
(0.0694567 0.00105786 0)
(0.0690655 0.00104482 0)
(0.0686756 0.00102985 0)
(0.0682875 0.00101319 0)
(0.0679019 0.000995078 0)
(0.067519 0.000975709 0)
(0.0671394 0.00095526 0)
(0.0667633 0.000933891 0)
(0.0663912 0.000911739 0)
(0.0660234 0.000888924 0)
(0.0656602 0.000865548 0)
(0.0653019 0.0008417 0)
(0.0649487 0.000817454 0)
(0.0646009 0.000792871 0)
(0.0642587 0.000768001 0)
(0.0639223 0.000742884 0)
(0.063592 0.000717553 0)
(0.063268 0.00069203 0)
(0.0629504 0.000666336 0)
(0.0626394 0.000640481 0)
(0.0623354 0.000614475 0)
(0.0620383 0.000588324 0)
(0.0617485 0.00056203 0)
(0.0614661 0.000535595 0)
(0.0611914 0.00050902 0)
(0.0609244 0.000482304 0)
(0.0606654 0.000455449 0)
(0.0604146 0.000428455 0)
(0.0601722 0.000401325 0)
(0.0599383 0.000374063 0)
(0.0597131 0.000346674 0)
(0.0594969 0.000319165 0)
(0.0592896 0.000291547 0)
(0.0590916 0.00026383 0)
(0.058903 0.000236028 0)
(0.0587239 0.000208159 0)
(0.0585544 0.000180239 0)
(0.0583947 0.000152291 0)
(0.0582448 0.000124336 0)
(0.058105 9.64005e-05 0)
(0.0579752 6.85116e-05 0)
(0.0578555 4.06988e-05 0)
(0.057746 1.29937e-05 0)
(0.0576467 -1.45701e-05 0)
(0.0575576 -4.19568e-05 0)
(0.0574788 -6.91289e-05 0)
(0.0574101 -9.60468e-05 0)
(0.0573515 -0.000122669 0)
(0.0573031 -0.000148952 0)
(0.0572646 -0.000174851 0)
(0.0572361 -0.000200319 0)
(0.0572173 -0.000225307 0)
(0.0572081 -0.000249764 0)
(0.0572084 -0.000273639 0)
(0.0572179 -0.000296878 0)
(0.0572365 -0.000319427 0)
(0.057264 -0.000341228 0)
(0.0573 -0.000362226 0)
(0.0573443 -0.000382362 0)
(0.0573966 -0.000401578 0)
(0.0574567 -0.000419816 0)
(0.0575241 -0.00043702 0)
(0.0575985 -0.000453131 0)
(0.0576797 -0.000468096 0)
(0.0577672 -0.00048186 0)
(0.0578605 -0.000494376 0)
(0.0579594 -0.000505595 0)
(0.0580634 -0.000515475 0)
(0.058172 -0.000523982 0)
(0.0582849 -0.000531082 0)
(0.0584016 -0.000536754 0)
(0.0585216 -0.000540981 0)
(0.0586445 -0.000543755 0)
(0.0587699 -0.000545078 0)
(0.0588973 -0.000544961 0)
(0.0590261 -0.000543426 0)
(0.0591561 -0.000540498 0)
(0.0592868 -0.000536231 0)
(0.0594176 -0.000530631 0)
(0.059548 -0.000523841 0)
(0.0596776 -0.000515722 0)
(0.0598056 -0.000506909 0)
(0.0599308 -0.000494897 0)
(0.0600539 -0.000489265 0)
(0.0601787 -0.000466219 0)
(-0.000693748 0.00309445 0)
(-0.00209198 0.00472294 0)
(-0.00255459 0.00495211 0)
(-0.00279219 0.00450508 0)
(-0.00262648 0.00403267 0)
(-0.00237666 0.00356592 0)
(-0.00198076 0.00316181 0)
(-0.00152311 0.00280358 0)
(-0.000994799 0.00248679 0)
(-0.000421189 0.00220279 0)
(0.000195996 0.00194499 0)
(0.00084769 0.00170854 0)
(0.00153157 0.00148913 0)
(0.00224406 0.00128366 0)
(0.00298378 0.0010894 0)
(0.00374938 0.000904236 0)
(0.00454035 0.000726302 0)
(0.00535644 0.000554044 0)
(0.00619776 0.000386071 0)
(0.00706465 0.000221147 0)
(0.00795765 5.81383e-05 0)
(0.00887749 -0.000104009 0)
(0.00982501 -0.000266291 0)
(0.0108012 -0.000429656 0)
(0.011807 -0.000595018 0)
(0.0128435 -0.000763259 0)
(0.013912 -0.00093523 0)
(0.0150134 -0.00111175 0)
(0.016149 -0.00129358 0)
(0.0173197 -0.00148146 0)
(0.0185267 -0.00167606 0)
(0.0197707 -0.00187795 0)
(0.0210527 -0.00208763 0)
(0.0223733 -0.0023055 0)
(0.023733 -0.00253181 0)
(0.0251321 -0.00276669 0)
(0.0265708 -0.0030101 0)
(0.028049 -0.00326184 0)
(0.0295663 -0.00352153 0)
(0.0311222 -0.00378858 0)
(0.0327158 -0.00406221 0)
(0.034346 -0.00434147 0)
(0.0360113 -0.00462516 0)
(0.03771 -0.00491193 0)
(0.03944 -0.00520023 0)
(0.041199 -0.00548833 0)
(0.0429842 -0.00577434 0)
(0.0447926 -0.00605624 0)
(0.0466208 -0.00633188 0)
(0.0484651 -0.00659901 0)
(0.0503214 -0.0068553 0)
(0.0521853 -0.00709838 0)
(0.0540522 -0.00732589 0)
(0.0559171 -0.00753543 0)
(0.0577747 -0.00772471 0)
(0.0596197 -0.00789149 0)
(0.0614464 -0.00803366 0)
(0.0632489 -0.00814927 0)
(0.0650215 -0.00823659 0)
(0.0667583 -0.0082941 0)
(0.0684535 -0.00832055 0)
(0.0701013 -0.00831503 0)
(0.0716963 -0.00827691 0)
(0.0732332 -0.00820597 0)
(0.0747073 -0.00810233 0)
(0.0761142 -0.0079665 0)
(0.0774499 -0.00779941 0)
(0.0787112 -0.00760232 0)
(0.0798955 -0.00737691 0)
(0.0810006 -0.00712516 0)
(0.0820254 -0.00684938 0)
(0.0829691 -0.00655212 0)
(0.0838319 -0.00623616 0)
(0.0846143 -0.00590443 0)
(0.0853178 -0.00555996 0)
(0.0859441 -0.00520581 0)
(0.0864956 -0.00484503 0)
(0.086975 -0.0044806 0)
(0.0873853 -0.00411537 0)
(0.0877298 -0.00375204 0)
(0.0880121 -0.00339308 0)
(0.0882358 -0.00304077 0)
(0.0884044 -0.00269712 0)
(0.0885217 -0.00236391 0)
(0.0885911 -0.00204265 0)
(0.0886162 -0.00173458 0)
(0.0886003 -0.0014407 0)
(0.0885466 -0.00116179 0)
(0.0884582 -0.000898384 0)
(0.0883379 -0.000650833 0)
(0.0881885 -0.000419293 0)
(0.0880124 -0.000203762 0)
(0.0878119 -4.08989e-06 0)