/*--------------------------------*- C++ -*----------------------------------*\
| =========                 |                                                 |
| \\      /  F ield         | OpenFOAM: The Open Source CFD Toolbox           |
|  \\    /   O peration     | Version:  4.1                                   |
|   \\  /    A nd           | Web:      www.OpenFOAM.org                      |
|    \\/     M anipulation  |                                                 |
\*---------------------------------------------------------------------------*/
FoamFile
{
    version     2.0;
    format      ascii;
    class       volVectorField;
    location    "0.0216";
    object      U;
}
// * * * * * * * * * * * * * * * * * * * * * * * * * * * * * * * * * * * * * //

dimensions      [0 1 -1 0 0 0 0];

internalField   nonuniform List<vector> 
441
(
(-0.000107925 9.17617e-05 0)
(-0.000518647 0.000289468 0)
(-0.00111334 0.00047385 0)
(-0.00183441 0.000591146 0)
(-0.0026104 0.000636122 0)
(-0.0033737 0.000617888 0)
(-0.00406809 0.000549426 0)
(-0.00465038 0.000443576 0)
(-0.00508942 0.000311582 0)
(-0.0053643 0.000162884 0)
(-0.00546261 5.56569e-06 0)
(-0.00537942 -0.000152906 0)
(-0.00511707 -0.000304831 0)
(-0.00468591 -0.000441462 0)
(-0.00410574 -0.000552368 0)
(-0.00340783 -0.00062517 0)
(-0.00263677 -0.000646 0)
(-0.00185116 -0.00060125 0)
(-0.00112127 -0.000481848 0)
(-0.000520704 -0.000293869 0)
(-0.000107846 -9.26144e-05 0)
(-0.00034493 0.000481609 0)
(-0.00151961 0.00136219 0)
(-0.00310703 0.00207227 0)
(-0.00496401 0.0025048 0)
(-0.00692477 0.00265372 0)
(-0.00883332 0.00255566 0)
(-0.010559 0.00226099 0)
(-0.0120005 0.00181971 0)
(-0.0130847 0.00127583 0)
(-0.013762 0.000666358 0)
(-0.0140033 2.30093e-05 0)
(-0.013797 -0.000624923 0)
(-0.0131489 -0.00124723 0)
(-0.0120836 -0.00180956 0)
(-0.0106479 -0.002271 0)
(-0.0089152 -0.00258307 0)
(-0.00698971 -0.00269169 0)
(-0.00500715 -0.00254405 0)
(-0.00312938 -0.00210365 0)
(-0.00152712 -0.0013798 0)
(-0.000345631 -0.000485474 0)
(-0.000588375 0.00109032 0)
(-0.00245367 0.0029211 0)
(-0.00487465 0.00429502 0)
(-0.00764108 0.00509858 0)
(-0.0105224 0.00534736 0)
(-0.0133041 0.00511902 0)
(-0.0158064 0.004512 0)
(-0.0178902 0.00362282 0)
(-0.0194542 0.00253616 0)
(-0.0204305 0.0013233 0)
(-0.0207786 4.52171e-05 0)
(-0.0204825 -0.00124181 0)
(-0.0195501 -0.00247972 0)
(-0.0180149 -0.00360249 0)
(-0.0159413 -0.0045313 0)
(-0.01343 -0.00517276 0)
(-0.0106244 -0.00542241 0)
(-0.00771115 -0.00517682 0)
(-0.00491317 -0.00435832 0)
(-0.0024684 -0.00295737 0)
(-0.000590608 -0.00109881 0)
(-0.000808098 0.00190158 0)
(-0.00329111 0.00492942 0)
(-0.00644159 0.00709359 0)
(-0.00998654 0.00831307 0)
(-0.0136391 0.00864973 0)
(-0.0171386 0.00823842 0)
(-0.0202698 0.00723738 0)
(-0.0228677 0.00579849 0)
(-0.0248135 0.00405392 0)
(-0.0260278 0.00211424 0)
(-0.0264635 7.35581e-05 0)
(-0.0261016 -0.00198153 0)
(-0.0249501 -0.00396166 0)
(-0.0230467 -0.00576478 0)
(-0.0204654 -0.00726835 0)
(-0.0173242 -0.00832624 0)
(-0.0137927 -0.00877357 0)
(-0.0100954 -0.00844356 0)
(-0.00650441 -0.00720064 0)
(-0.00331734 -0.00499201 0)
(-0.000812902 -0.00191695 0)
(-0.00101204 0.00290206 0)
(-0.0040743 0.00736391 0)
(-0.00790769 0.0104436 0)
(-0.0121751 0.0121209 0)
(-0.016533 0.0125287 0)
(-0.0206783 0.0118781 0)
(-0.0243664 0.0104014 0)
(-0.0274137 0.00831567 0)
(-0.029691 0.0058071 0)
(-0.0311132 0.00302943 0)
(-0.0316299 0.000112058 0)
(-0.0312198 -0.0028268 0)
(-0.0298892 -0.00566497 0)
(-0.0276757 -0.00826161 0)
(-0.0246562 -0.0104456 0)
(-0.0209581 -0.0120101 0)
(-0.0167699 -0.0127181 0)
(-0.0123482 -0.0123236 0)
(-0.00801227 -0.010613 0)
(-0.00412117 -0.00746544 0)
(-0.00102163 -0.00292845 0)
(-0.00121699 0.00409192 0)
(-0.00486798 0.0102296 0)
(-0.00939543 0.0143548 0)
(-0.0143917 0.0165309 0)
(-0.0194521 0.0169877 0)
(-0.0242298 0.016035 0)
(-0.0284539 0.0139961 0)
(-0.0319278 0.0111652 0)
(-0.0345175 0.00778927 0)
(-0.0361374 0.00406825 0)
(-0.036737 0.000167247 0)
(-0.0362933 -0.00376466 0)
(-0.034809 -0.00757301 0)
(-0.0323165 -0.0110771 0)
(-0.0288894 -0.0140527 0)
(-0.0246573 -0.0162236 0)
(-0.0198223 -0.0172664 0)
(-0.0146704 -0.0168359 0)
(-0.00957057 -0.0146157 0)
(-0.0049509 -0.0103911 0)
(-0.00123513 -0.00413699 0)
(-0.00144034 0.00548829 0)
(-0.00573795 0.0135652 0)
(-0.011023 0.0188746 0)
(-0.0168049 0.021588 0)
(-0.0226091 0.0220616 0)
(-0.0280431 0.0207316 0)
(-0.032812 0.0180335 0)
(-0.0367118 0.0143526 0)
(-0.0396107 0.0100041 0)
(-0.0414281 0.00523616 0)
(-0.0421174 0.000247996 0)
(-0.0416548 -0.00478367 0)
(-0.0400365 -0.00967515 0)
(-0.0372848 -0.0142066 0)
(-0.033462 -0.0180974 0)
(-0.0286917 -0.0209917 0)
(-0.0231825 -0.0224621 0)
(-0.0172479 -0.0220388 0)
(-0.0113107 -0.0192715 0)
(-0.00587983 -0.0138205 0)
(-0.00147272 -0.00556526 0)
(-0.00169721 0.00712488 0)
(-0.00674131 0.0174413 0)
(-0.012889 0.0240836 0)
(-0.0195474 0.0273646 0)
(-0.0261611 0.0278053 0)
(-0.0322897 0.0260031 0)
(-0.0376189 0.0225325 0)
(-0.0419459 0.0178868 0)
(-0.0451502 0.0124569 0)
(-0.0471646 0.00653998 0)
(-0.0479512 0.00036522 0)
(-0.0474868 -0.00586966 0)
(-0.0457587 -0.0119582 0)
(-0.0427717 -0.017645 0)
(-0.0385671 -0.022591 0)
(-0.0332508 -0.02635 0)
(-0.0270274 -0.0283691 0)
(-0.0202325 -0.0280213 0)
(-0.0133462 -0.0246811 0)
(-0.00697393 -0.0178415 0)
(-0.0017518 -0.00725507 0)
(-0.00199866 0.0090501 0)
(-0.00791956 0.0219539 0)
(-0.0150595 0.030085 0)
(-0.022697 0.0339459 0)
(-0.0301834 0.0342751 0)
(-0.037031 0.0318775 0)
(-0.042916 0.0275001 0)
(-0.0476498 0.0217637 0)
(-0.051137 0.0151428 0)
(-0.0533349 0.00798145 0)
(-0.0542218 0.000531056 0)
(-0.0537774 -0.00700062 0)
(-0.0519771 -0.0143954 0)
(-0.0488003 -0.0213703 0)
(-0.0442536 -0.0275285 0)
(-0.0384084 -0.0323236 0)
(-0.0314487 -0.0350517 0)
(-0.0237198 -0.0348865 0)
(-0.0157589 -0.0309721 0)
(-0.00828457 -0.0225732 0)
(-0.00208607 -0.0092658 0)
(-0.00234923 0.0113236 0)
(-0.00928922 0.0272142 0)
(-0.0175493 0.0369865 0)
(-0.0262467 0.0414052 0)
(-0.034629 0.0415014 0)
(-0.0421688 0.038348 0)
(-0.0485501 0.0329061 0)
(-0.0536195 0.0259461 0)
(-0.0573259 0.0180316 0)
(-0.0596661 0.00954835 0)
(-0.0606443 0.000757023 0)
(-0.0602472 -0.00814117 0)
(-0.0584359 -0.0169334 0)
(-0.0551547 -0.0253232 0)
(-0.0503592 -0.0328621 0)
(-0.0440634 -0.038896 0)
(-0.0364041 -0.0425424 0)
(-0.0277136 -0.0427238 0)
(-0.0185763 -0.0382783 0)
(-0.00983786 -0.0281541 0)
(-0.0024828 -0.0116714 0)
(-0.00274275 0.0140111 0)
(-0.0108258 0.0333311 0)
(-0.0202899 0.0448708 0)
(-0.0300558 0.0497673 0)
(-0.0392638 0.0494483 0)
(-0.0473667 0.0453344 0)
(-0.054086 0.0386498 0)
(-0.0593335 0.030336 0)
(-0.0631275 0.0210485 0)
(-0.0655232 0.011203 0)
(-0.0665626 0.0010506 0)
(-0.0662449 -0.00923733 0)
(-0.0645157 -0.0194777 0)
(-0.0612755 -0.0293825 0)
(-0.0564104 -0.0384662 0)
(-0.049848 -0.0459661 0)
(-0.0416407 -0.0507954 0)
(-0.0320683 -0.0515644 0)
(-0.0217347 -0.0467053 0)
(-0.011616 -0.0347226 0)
(-0.00293814 -0.0145545 0)
(-0.00315527 0.0171747 0)
(-0.0124372 0.0403829 0)
(-0.0230798 0.053751 0)
(-0.0337753 0.0589534 0)
(-0.0435709 0.0579579 0)
(-0.0519396 0.0526324 0)
(-0.0586862 0.0445172 0)
(-0.0638276 0.0347432 0)
(-0.0674814 0.0240513 0)
(-0.0697813 0.0128686 0)
(-0.0708196 0.00140992 0)
(-0.0706151 -0.0102128 0)
(-0.0690993 -0.0218779 0)
(-0.0661232 -0.0333374 0)
(-0.0614867 -0.0440955 0)
(-0.0549997 -0.0532927 0)
(-0.0465814 -0.0596211 0)
(-0.0363987 -0.0613145 0)
(-0.0250187 -0.0562748 0)
(-0.013526 -0.0423823 0)
(-0.00342908 -0.0179964 0)
(-0.00353352 0.0208584 0)
(-0.013922 0.0483729 0)
(-0.0255074 0.0635025 0)
(-0.0367392 0.0687029 0)
(-0.0466187 0.0666751 0)
(-0.0547092 0.0598499 0)
(-0.0609634 0.0501334 0)
(-0.0655505 0.0388504 0)
(-0.0687167 0.0268079 0)
(-0.0706903 0.0144147 0)
(-0.0716239 0.00181679 0)
(-0.0715625 -0.0109681 0)
(-0.0704291 -0.0239173 0)
(-0.068027 -0.0368632 0)
(-0.0640623 -0.049341 0)
(-0.0582006 -0.0604279 0)
(-0.0501743 -0.0685996 0)
(-0.0399535 -0.0716605 0)
(-0.0279712 -0.0668389 0)
(-0.0153513 -0.051146 0)
(-0.00390058 -0.0220583 0)
(-0.00377616 0.0250639 0)
(-0.0149019 0.057162 0)
(-0.0268353 0.0737647 0)
(-0.0378124 0.0784693 0)
(-0.0468918 0.0749567 0)
(-0.0538364 0.0663402 0)
(-0.0588267 0.0549183 0)
(-0.0622287 0.0421876 0)
(-0.0644349 0.0289811 0)
(-0.065772 0.0156484 0)
(-0.0664529 0.00222962 0)
(-0.0665527 -0.0113863 0)
(-0.0659967 -0.0253128 0)
(-0.0645554 -0.0395085 0)
(-0.0618525 -0.0535966 0)
(-0.0574029 -0.0666528 0)
(-0.0507079 -0.076982 0)
(-0.0414438 -0.081945 0)
(-0.0297613 -0.0779581 0)
(-0.0166754 -0.0608497 0)
(-0.00424492 -0.0267527 0)
(-0.00370028 0.0297133 0)
(-0.0147074 0.066368 0)
(-0.0258178 0.0838057 0)
(-0.0351743 0.0872917 0)
(-0.0420801 0.0817782 0)
(-0.0466437 0.0711481 0)
(-0.04935 0.0580656 0)
(-0.0507817 0.0441304 0)
(-0.0514653 0.0301348 0)
(-0.0518031 0.0163179 0)
(-0.0520508 0.00257927 0)
(-0.0523104 -0.011346 0)
(-0.0525243 -0.0257347 0)
(-0.0524633 -0.0407133 0)
(-0.0517117 -0.0560591 0)
(-0.0496693 -0.0709415 0)
(-0.0456034 -0.0836022 0)
(-0.0388147 -0.0910253 0)
(-0.0289838 -0.0887368 0)
(-0.0167557 -0.0710249 0)
(-0.00426615 -0.0319967 0)
(-0.00297343 0.0345873 0)
(-0.0121538 0.0752139 0)
(-0.0203833 0.0923421 0)
(-0.0259946 0.0936582 0)
(-0.028817 0.0856681 0)
(-0.0294495 0.0730085 0)
(-0.0287065 0.0585794 0)
(-0.0273433 0.0439512 0)
(-0.0259523 0.0297798 0)
(-0.024948 0.0161407 0)
(-0.0245852 0.00277309 0)
(-0.0249775 -0.0107456 0)
(-0.0261016 -0.0248577 0)
(-0.0277797 -0.0398782 0)
(-0.0296408 -0.0557984 0)
(-0.0310714 -0.0720005 0)
(-0.0311916 -0.0868466 0)
(-0.0289297 -0.0971479 0)
(-0.02333 -0.0976232 0)
(-0.0142881 -0.0807125 0)
(-0.00361006 -0.0375382 0)
(-0.000947234 0.0392015 0)
(-0.00504976 0.0822745 0)
(-0.00702856 0.0973073 0)
(-0.00591133 0.0954021 0)
(-0.00234693 0.0847374 0)
(0.00255704 0.0704579 0)
(0.00777944 0.055417 0)
(0.0125543 0.0409534 0)
(0.0163702 0.0274786 0)
(0.0189108 0.0148692 0)
(0.0199923 0.00271325 0)
(0.019519 -0.00953572 0)
(0.0174672 -0.0224481 0)
(0.0139021 -0.0365056 0)
(0.00903167 -0.0519383 0)
(0.00330002 -0.0684513 0)
(-0.00249444 -0.0847691 0)
(-0.00711482 -0.0979134 0)
(-0.00899538 -0.102193 0)
(-0.00690756 -0.0881774 0)
(-0.00159662 -0.042815 0)
(0.00382465 0.0425671 0)
(0.0109924 0.0850839 0)
(0.0204063 0.0956316 0)
(0.0318243 0.0897661 0)
(0.043876 0.0769383 0)
(0.0553395 0.0621618 0)
(0.0653936 0.0477955 0)
(0.0735793 0.0347182 0)
(0.0796837 0.0230218 0)
(0.0836265 0.0123958 0)
(0.0853742 0.00233454 0)
(0.0848862 -0.00775374 0)
(0.0820915 -0.0184809 0)
(0.076896 -0.0304154 0)
(0.069227 -0.0439781 0)
(0.0591305 -0.0592362 0)
(0.0469385 -0.0754957 0)
(0.033507 -0.0905119 0)
(0.0204486 -0.0990448 0)
(0.00997921 -0.0905128 0)
(0.00326565 -0.0466866 0)
(0.0154866 0.0423475 0)
(0.0456061 0.0791187 0)
(0.073129 0.0830349 0)
(0.0975838 0.0738403 0)
(0.118501 0.0607351 0)
(0.135759 0.0475482 0)
(0.149482 0.0356865 0)
(0.159922 0.0254515 0)
(0.167366 0.0166517 0)
(0.172062 0.00888366 0)
(0.174171 0.00165884 0)
(0.173731 -0.00554307 0)
(0.170644 -0.0132516 0)
(0.164662 -0.0219872 0)
(0.155394 -0.0322205 0)
(0.142335 -0.0442692 0)
(0.124944 -0.0580469 0)
(0.102827 -0.0724556 0)
(0.0761317 -0.0839186 0)
(0.0461106 -0.0827814 0)
(0.0151827 -0.0465937 0)
(0.0493799 0.0345572 0)
(0.121843 0.0583381 0)
(0.171852 0.0557689 0)
(0.206673 0.0465565 0)
(0.231983 0.0367128 0)
(0.250651 0.027897 0)
(0.26439 0.0204811 0)
(0.274288 0.0143613 0)
(0.281086 0.00926598 0)
(0.285278 0.00487112 0)
(0.287154 0.000843034 0)
(0.286812 -0.00314959 0)
(0.284161 -0.00743635 0)
(0.278899 -0.0123476 0)
(0.270469 -0.0182103 0)
(0.257969 -0.0253244 0)
(0.24 -0.0338969 0)
(0.214344 -0.04383 0)
(0.177565 -0.0540198 0)
(0.124024 -0.0590694 0)
(0.0494725 -0.0381156 0)
(0.182842 0.00462173 0)
(0.296617 0.00809846 0)
(0.350313 0.0114647 0)
(0.377316 0.0110855 0)
(0.393593 0.00920149 0)
(0.40424 0.00711513 0)
(0.41151 0.0052431 0)
(0.416492 0.00366643 0)
(0.419795 0.0023468 0)
(0.421778 0.00120875 0)
(0.42264 0.000167761 0)
(0.422456 -0.000860564 0)
(0.421185 -0.00195719 0)
(0.418659 -0.00319554 0)
(0.414535 -0.00462998 0)
(0.408185 -0.00626549 0)
(0.398401 -0.00798149 0)
(0.382583 -0.00936505 0)
(0.354837 -0.00937665 0)
(0.298161 -0.00686313 0)
(0.181118 -0.00725855 0)
)
;

boundaryField
{
    movingWall
    {
        type            fixedValue;
        value           uniform (0.5 0 0);
    }
    fixedWalls
    {
        type            noSlip;
    }
    frontAndBack
    {
        type            empty;
    }
}


// ************************************************************************* //
