/*--------------------------------*- C++ -*----------------------------------*\
| =========                 |                                                 |
| \\      /  F ield         | OpenFOAM: The Open Source CFD Toolbox           |
|  \\    /   O peration     | Version:  4.1                                   |
|   \\  /    A nd           | Web:      www.OpenFOAM.org                      |
|    \\/     M anipulation  |                                                 |
\*---------------------------------------------------------------------------*/
FoamFile
{
    version     2.0;
    format      ascii;
    class       volVectorField;
    location    "3030";
    object      U;
}
// * * * * * * * * * * * * * * * * * * * * * * * * * * * * * * * * * * * * * //

dimensions      [0 1 -1 0 0 0 0];

internalField   nonuniform List<vector> 
1275
(
(0.0903172 -0.000718073 0)
(0.090222 -0.00072314 0)
(0.0900919 -0.000716527 0)
(0.0900171 -0.000723699 0)
(0.0898608 -0.000712984 0)
(0.0842559 -0.00108217 0)
(0.083889 -0.000708995 0)
(0.0836037 -0.000362065 0)
(0.0833926 -3.29423e-05 0)
(0.083253 0.000275787 0)
(0.0831785 0.000568082 0)
(0.0831656 0.000843702 0)
(0.083209 0.00110505 0)
(0.0833046 0.00135259 0)
(0.0834479 0.001588 0)
(0.0836351 0.00181194 0)
(0.083862 0.00202568 0)
(0.0841252 0.00222987 0)
(0.084421 0.0024255 0)
(0.0847463 0.00261317 0)
(0.0850978 0.00279364 0)
(0.0854728 0.00296742 0)
(0.0858685 0.00313511 0)
(0.0862822 0.0032971 0)
(0.0867117 0.00345385 0)
(0.0871546 0.00360564 0)
(0.0876087 0.0037528 0)
(0.0880721 0.00389553 0)
(0.0885429 0.00403401 0)
(0.0890191 0.00416836 0)
(0.0894991 0.00429865 0)
(0.0899812 0.00442491 0)
(0.0904639 0.00454713 0)
(0.0909456 0.00466524 0)
(0.0914249 0.00477914 0)
(0.0919003 0.0048887 0)
(0.0923707 0.00499375 0)
(0.0928346 0.00509408 0)
(0.0932909 0.00518947 0)
(0.0937384 0.00527966 0)
(0.094176 0.00536439 0)
(0.0946026 0.00544336 0)
(0.0950171 0.00551628 0)
(0.0954187 0.00558284 0)
(0.0958064 0.00564272 0)
(0.0961794 0.00569563 0)
(0.0965369 0.00574125 0)
(0.0968782 0.00577931 0)
(0.0972026 0.00580952 0)
(0.0975097 0.00583164 0)
(0.097799 0.00584544 0)
(0.0980699 0.00585073 0)
(0.0983223 0.00584734 0)
(0.0985558 0.00583514 0)
(0.0987702 0.00581405 0)
(0.0989656 0.00578404 0)
(0.099142 0.00574509 0)
(0.0992993 0.00569726 0)
(0.0994377 0.00564064 0)
(0.0995576 0.00557537 0)
(0.0996591 0.00550165 0)
(0.0997428 0.00541971 0)
(0.0998089 0.00532982 0)
(0.0998581 0.0052323 0)
(0.0998908 0.00512752 0)
(0.0999077 0.00501587 0)
(0.0999094 0.00489778 0)
(0.0998966 0.00477369 0)
(0.09987 0.0046441 0)
(0.0998303 0.0045095 0)
(0.0997782 0.0043704 0)
(0.0997145 0.00422734 0)
(0.09964 0.00408085 0)
(0.0995554 0.00393147 0)
(0.0994614 0.00377973 0)
(0.0993589 0.00362616 0)
(0.0992484 0.00347129 0)
(0.0991307 0.00331562 0)
(0.0990065 0.00315965 0)
(0.0988763 0.00300387 0)
(0.0987409 0.00284871 0)
(0.0986008 0.00269463 0)
(0.0984565 0.00254203 0)
(0.0983086 0.00239129 0)
(0.0981576 0.00224279 0)
(0.0980038 0.00209684 0)
(0.0978477 0.00195375 0)
(0.0976897 0.00181381 0)
(0.0975301 0.00167727 0)
(0.0973692 0.00154434 0)
(0.0972074 0.00141523 0)
(0.0970449 0.0012901 0)
(0.0968818 0.0011691 0)
(0.0967184 0.00105235 0)
(0.096555 0.000939949 0)
(0.0963915 0.000831972 0)
(0.0962282 0.000728472 0)
(0.0960652 0.000629482 0)
(0.0959025 0.000535017 0)
(0.0957403 0.000445074 0)
(0.0955787 0.000359632 0)
(0.0954176 0.000278658 0)
(0.0952572 0.000202099 0)
(0.0950974 0.000129899 0)
(0.0949383 6.19745e-05 0)
(0.0947799 -1.74538e-06 0)
(0.0946223 -6.1378e-05 0)
(0.0944655 -0.000116992 0)
(0.0943094 -0.000168751 0)
(0.0941541 -0.000216696 0)
(0.0939995 -0.000261063 0)
(0.0938458 -0.000301818 0)
(0.0936927 -0.000339331 0)
(0.0935408 -0.000373399 0)
(0.093389 -0.000404645 0)
(0.093239 -0.000432526 0)
(0.0930882 -0.000458151 0)
(0.0929408 -0.000480314 0)
(0.0927901 -0.000501029 0)
(0.0926466 -0.000517876 0)
(0.0924939 -0.000534478 0)
(0.0923576 -0.000546313 0)
(0.0921977 -0.000559675 0)
(0.0920771 -0.000566736 0)
(0.091897 -0.000577679 0)
(0.0918122 -0.000580404 0)
(0.0915814 -0.000588955 0)
(0.0914848 -0.000588401 0)
(0.0913691 -0.000595357 0)
(0.0911993 -0.000590672 0)
(0.091107 -0.000596452 0)
(0.0909031 -0.000589669 0)
(0.0626714 -0.000681922 0)
(0.0623987 -0.000402815 0)
(0.0622148 -0.000142082 0)
(0.0621173 0.00010508 0)
(0.0620986 0.000337884 0)
(0.0621532 0.000559317 0)
(0.0622754 0.000769432 0)
(0.0624598 0.000970214 0)
(0.0627014 0.00116203 0)
(0.0629956 0.00134626 0)
(0.0633379 0.00152337 0)
(0.0637243 0.00169433 0)
(0.0641509 0.00185961 0)
(0.0646141 0.00201992 0)
(0.0651108 0.00217566 0)
(0.0656378 0.00232737 0)
(0.0661923 0.00247537 0)
(0.0667716 0.00262005 0)
(0.0673732 0.00276165 0)
(0.0679949 0.00290045 0)
(0.0686344 0.00303663 0)
(0.0692897 0.00317034 0)
(0.0699588 0.00330169 0)
(0.07064 0.00343075 0)
(0.0713314 0.00355754 0)
(0.0720314 0.00368207 0)
(0.0727384 0.00380426 0)
(0.0734507 0.00392405 0)
(0.074167 0.00404131 0)
(0.0748858 0.00415588 0)
(0.0756055 0.00426758 0)
(0.0763249 0.00437619 0)
(0.0770426 0.00448146 0)
(0.0777572 0.00458312 0)
(0.0784674 0.00468088 0)
(0.079172 0.00477441 0)
(0.0798697 0.00486339 0)
(0.0805592 0.00494746 0)
(0.0812395 0.00502628 0)
(0.0819092 0.00509948 0)
(0.0825674 0.00516669 0)
(0.0832129 0.00522756 0)
(0.0838447 0.00528174 0)
(0.0844617 0.00532888 0)
(0.0850632 0.00536868 0)
(0.0856481 0.00540082 0)
(0.0862156 0.00542504 0)
(0.0867651 0.00544109 0)
(0.0872959 0.00544878 0)
(0.0878072 0.00544793 0)
(0.0882986 0.00543842 0)
(0.0887697 0.00542017 0)
(0.0892201 0.00539315 0)
(0.0896494 0.00535736 0)
(0.0900574 0.00531286 0)
(0.090444 0.00525978 0)
(0.0908092 0.00519828 0)
(0.091153 0.00512854 0)
(0.0914754 0.00505085 0)
(0.0917765 0.00496548 0)
(0.0920568 0.00487277 0)
(0.0923163 0.00477312 0)
(0.0925555 0.00466691 0)
(0.0927748 0.0045546 0)
(0.0929745 0.00443666 0)
(0.0931553 0.00431356 0)
(0.0933176 0.00418582 0)
(0.093462 0.00405396 0)
(0.093589 0.0039185 0)
(0.0936993 0.00377998 0)
(0.0937935 0.00363892 0)
(0.0938722 0.00349586 0)
(0.0939361 0.00335131 0)
(0.0939858 0.00320578 0)
(0.0940219 0.00305977 0)
(0.0940451 0.00291375 0)
(0.094056 0.00276818 0)
(0.0940552 0.0026235 0)
(0.0940433 0.00248011 0)
(0.0940209 0.0023384 0)
(0.0939886 0.00219873 0)
(0.0939469 0.00206144 0)
(0.0938964 0.00192683 0)
(0.0938375 0.00179517 0)
(0.0937708 0.00166673 0)
(0.0936968 0.00154171 0)
(0.0936158 0.00142032 0)
(0.0935284 0.00130274 0)
(0.0934349 0.00118909 0)
(0.0933357 0.0010795 0)
(0.0932312 0.000974071 0)
(0.0931218 0.000872871 0)
(0.0930078 0.000775951 0)
(0.0928896 0.000683345 0)
(0.0927673 0.000595064 0)
(0.0926414 0.000511103 0)
(0.0925121 0.000431439 0)
(0.0923797 0.000356035 0)
(0.0922444 0.000284841 0)
(0.0921065 0.00021779 0)
(0.0919663 0.000154809 0)
(0.0918238 9.58078e-05 0)
(0.0916794 4.06964e-05 0)
(0.0915332 -1.06417e-05 0)
(0.0913854 -5.82976e-05 0)
(0.0912364 -0.000102424 0)
(0.091086 -0.00014309 0)
(0.0909347 -0.000180511 0)
(0.0907823 -0.000214684 0)
(0.0906295 -0.000245955 0)
(0.0904757 -0.000274139 0)
(0.0903221 -0.000299867 0)
(0.0901671 -0.000322538 0)
(0.0900135 -0.00034341 0)
(0.0898576 -0.000360943 0)
(0.0897049 -0.00037781 0)
(0.0895479 -0.000390339 0)
(0.0893973 -0.00040439 0)
(0.0892386 -0.000411565 0)
(0.0890915 -0.000424554 0)
(0.0889306 -0.00042557 0)
(0.0887875 -0.000438648 0)
(0.088623 -0.000436891 0)
(0.0884926 -0.000444144 0)
(0.0883109 -0.000442681 0)
(0.0882116 -0.000446947 0)
(0.0879896 -0.00044474 0)
(0.041146 -0.000432046 0)
(0.0410476 -0.000251396 0)
(0.0410302 -8.00079e-05 0)
(0.0410884 8.39835e-05 0)
(0.0412157 0.000240652 0)
(0.0414071 0.000391956 0)
(0.0416573 0.00053782 0)
(0.0419621 0.000679623 0)
(0.042317 0.000817415 0)
(0.0427185 0.000952122 0)
(0.0431629 0.00108387 0)
(0.0436471 0.00121329 0)
(0.0441682 0.00134054 0)
(0.0447233 0.00146604 0)
(0.0453101 0.00158995 0)
(0.0459262 0.00171256 0)
(0.0465694 0.00183399 0)
(0.0472378 0.00195446 0)
(0.0479295 0.00207404 0)
(0.0486427 0.00219287 0)
(0.0493758 0.00231098 0)
(0.0501272 0.00242845 0)
(0.0508953 0.00254526 0)
(0.0516788 0.00266143 0)
(0.0524763 0.00277689 0)
(0.0532865 0.00289159 0)
(0.0541079 0.00300543 0)
(0.0549394 0.00311828 0)
(0.0557796 0.00322999 0)
(0.0566273 0.00334039 0)
(0.0574812 0.00344925 0)
(0.0583401 0.00355636 0)
(0.0592028 0.00366145 0)
(0.060068 0.00376424 0)
(0.0609343 0.00386442 0)
(0.0618006 0.00396167 0)
(0.0626657 0.00405563 0)
(0.0635281 0.00414596 0)
(0.0643867 0.00423228 0)
(0.0652401 0.00431421 0)
(0.0660872 0.00439137 0)
(0.0669266 0.00446337 0)
(0.0677572 0.00452982 0)
(0.0685777 0.00459035 0)
(0.0693869 0.00464461 0)
(0.0701836 0.00469224 0)
(0.0709668 0.00473292 0)
(0.0717353 0.00476635 0)
(0.072488 0.00479228 0)
(0.0732241 0.00481045 0)
(0.0739426 0.00482069 0)
(0.0746425 0.00482283 0)
(0.0753232 0.00481677 0)
(0.0759838 0.00480244 0)
(0.0766237 0.00477982 0)
(0.0772424 0.00474895 0)
(0.0778392 0.0047099 0)
(0.0784139 0.00466281 0)
(0.0789659 0.00460784 0)
(0.0794952 0.00454523 0)
(0.0800013 0.00447524 0)
(0.0804844 0.00439817 0)
(0.0809441 0.00431437 0)
(0.0813807 0.00422422 0)
(0.0817942 0.00412812 0)
(0.0821848 0.00402652 0)
(0.0825526 0.00391988 0)
(0.082898 0.00380866 0)
(0.0832212 0.00369336 0)
(0.0835226 0.00357448 0)
(0.0838027 0.00345252 0)
(0.0840618 0.00332799 0)
(0.0843006 0.00320138 0)
(0.0845194 0.0030732 0)
(0.0847188 0.00294393 0)
(0.0848994 0.00281403 0)
(0.0850618 0.00268395 0)
(0.0852065 0.00255415 0)
(0.0853341 0.00242502 0)
(0.0854454 0.00229696 0)
(0.0855407 0.00217034 0)
(0.0856209 0.0020455 0)
(0.0856864 0.00192276 0)
(0.0857379 0.0018024 0)
(0.085776 0.0016847 0)
(0.0858012 0.00156988 0)
(0.0858143 0.00145816 0)
(0.0858157 0.00134973 0)
(0.0858061 0.00124474 0)
(0.0857859 0.00114332 0)
(0.0857557 0.0010456 0)
(0.0857161 0.000951648 0)
(0.0856676 0.000861545 0)
(0.0856107 0.000775331 0)
(0.0855458 0.000693036 0)
(0.0854735 0.000614667 0)
(0.0853943 0.000540217 0)
(0.0853085 0.000469661 0)
(0.0852166 0.000402963 0)
(0.0851191 0.000340069 0)
(0.0850164 0.000280921 0)
(0.0849088 0.000225437 0)
(0.0847967 0.000173545 0)
(0.0846805 0.000125133 0)
(0.0845606 8.01299e-05 0)
(0.0844372 3.8387e-05 0)
(0.0843108 -1.47882e-07 0)
(0.0841816 -3.56778e-05 0)
(0.08405 -6.8206e-05 0)
(0.083916 -9.8018e-05 0)
(0.0837803 -0.000125027 0)
(0.0836428 -0.000149642 0)
(0.083504 -0.000171637 0)
(0.0833639 -0.000191584 0)
(0.0832229 -0.00020909 0)
(0.0830812 -0.000224879 0)
(0.0829384 -0.000238455 0)
(0.0827966 -0.000250546 0)
(0.0826519 -0.000260788 0)
(0.0825121 -0.0002696 0)
(0.0823635 -0.000277006 0)
(0.0822305 -0.000283172 0)
(0.0820731 -0.000287531 0)
(0.0819534 -0.000292587 0)
(0.0817801 -0.00029526 0)
(0.0816887 -0.000297391 0)
(0.081478 -0.000300034 0)
(0.0233698 -0.000394826 0)
(0.0233961 -0.000286951 0)
(0.0234799 -0.000182551 0)
(0.0236194 -8.03522e-05 0)
(0.0238093 1.93844e-05 0)
(0.0240475 0.000117735 0)
(0.0243303 0.000214512 0)
(0.0246554 0.000310487 0)
(0.02502 0.000405576 0)
(0.025422 0.000500306 0)
(0.0258593 0.000594663 0)
(0.0263301 0.000689001 0)
(0.0268325 0.000783338 0)
(0.0273648 0.000877915 0)
(0.0279257 0.00097276 0)
(0.0285137 0.00106803 0)
(0.0291275 0.00116376 0)
(0.0297658 0.00126003 0)
(0.0304275 0.00135687 0)
(0.0311115 0.00145432 0)
(0.0318166 0.00155237 0)
(0.032542 0.00165103 0)
(0.0332866 0.00175027 0)
(0.0340494 0.00185004 0)
(0.0348295 0.00195027 0)
(0.035626 0.00205089 0)
(0.0364379 0.00215179 0)
(0.0372642 0.00225284 0)
(0.038104 0.00235388 0)
(0.0389564 0.00245476 0)
(0.0398203 0.00255526 0)
(0.0406948 0.00265518 0)
(0.0415787 0.00275426 0)
(0.0424711 0.00285225 0)
(0.0433707 0.00294885 0)
(0.0442766 0.00304376 0)
(0.0451875 0.00313664 0)
(0.0461023 0.00322717 0)
(0.0470196 0.00331497 0)
(0.0479384 0.00339968 0)
(0.0488572 0.00348092 0)
(0.0497749 0.00355831 0)
(0.0506901 0.00363147 0)
(0.0516015 0.0037 0)
(0.0525078 0.00376353 0)
(0.0534077 0.00382171 0)
(0.0542999 0.00387418 0)
(0.055183 0.00392061 0)
(0.0560558 0.0039607 0)
(0.056917 0.00399418 0)
(0.0577655 0.00402079 0)
(0.0586001 0.00404033 0)
(0.0594195 0.00405263 0)
(0.0602228 0.00405756 0)
(0.0610089 0.00405503 0)
(0.0617768 0.00404501 0)
(0.0625257 0.00402749 0)
(0.0632547 0.00400254 0)
(0.063963 0.00397025 0)
(0.0646501 0.00393075 0)
(0.0653152 0.00388425 0)
(0.0659579 0.00383095 0)
(0.0665777 0.00377114 0)
(0.0671743 0.00370511 0)
(0.0677473 0.00363319 0)
(0.0682965 0.00355576 0)
(0.0688219 0.0034732 0)
(0.0693233 0.00338593 0)
(0.0698008 0.00329437 0)
(0.0702543 0.00319896 0)
(0.0706842 0.00310016 0)
(0.0710905 0.00299842 0)
(0.0714735 0.0028942 0)
(0.0718336 0.00278795 0)
(0.072171 0.00268012 0)
(0.0724863 0.00257115 0)
(0.0727797 0.00246146 0)
(0.0730519 0.00235147 0)
(0.0733032 0.00224156 0)
(0.0735343 0.00213213 0)
(0.0737457 0.00202351 0)
(0.073938 0.00191605 0)
(0.0741118 0.00181005 0)
(0.0742677 0.0017058 0)
(0.0744063 0.00160356 0)
(0.0745283 0.00150356 0)
(0.0746343 0.00140603 0)
(0.074725 0.00131115 0)
(0.0748009 0.00121908 0)
(0.0748629 0.00112998 0)
(0.0749114 0.00104395 0)
(0.0749471 0.00096109 0)
(0.0749707 0.000881489 0)
(0.0749827 0.0008052 0)
(0.0749839 0.000732262 0)
(0.0749747 0.000662698 0)
(0.0749558 0.000596513 0)
(0.0749278 0.000533699 0)
(0.0748912 0.000474232 0)
(0.0748466 0.000418076 0)
(0.0747945 0.000365185 0)
(0.0747355 0.000315496 0)
(0.0746699 0.00026895 0)
(0.0745984 0.000225455 0)
(0.0745214 0.000184954 0)
(0.0744394 0.000147313 0)
(0.0743527 0.000112502 0)
(0.0742618 8.03212e-05 0)
(0.0741671 5.08141e-05 0)
(0.074069 2.36508e-05 0)
(0.0739678 -9.54874e-07 0)
(0.0738639 -2.35876e-05 0)
(0.0737575 -4.36832e-05 0)
(0.0736493 -6.23257e-05 0)
(0.0735388 -7.82633e-05 0)
(0.0734277 -9.35231e-05 0)
(0.0733139 -0.000105593 0)
(0.0732013 -0.000118137 0)
(0.0730844 -0.000126621 0)
(0.0729723 -0.000137013 0)
(0.0728515 -0.000142571 0)
(0.0727435 -0.000150566 0)
(0.0726154 -0.000155328 0)
(0.0725185 -0.000159201 0)
(0.0723754 -0.000165017 0)
(0.0723015 -0.000165097 0)
(0.0721288 -0.000172224 0)
(0.010374 -0.000419984 0)
(0.0104112 -0.000361766 0)
(0.0104879 -0.000303669 0)
(0.0106028 -0.000245791 0)
(0.0107537 -0.000187805 0)
(0.0109394 -0.00012925 0)
(0.011158 -7.0186e-05 0)
(0.0114085 -1.01733e-05 0)
(0.0116895 5.06871e-05 0)
(0.0120001 0.000112706 0)
(0.0123393 0.000175808 0)
(0.0127061 0.000240195 0)
(0.0130997 0.000305819 0)
(0.0135194 0.000372805 0)
(0.0139644 0.000441122 0)
(0.014434 0.000510844 0)
(0.0149278 0.000581946 0)
(0.0154449 0.000654467 0)
(0.015985 0.00072838 0)
(0.0165474 0.000803696 0)
(0.0171317 0.000880379 0)
(0.0177372 0.000958416 0)
(0.0183636 0.00103776 0)
(0.0190101 0.00111836 0)
(0.0196764 0.00120015 0)
(0.0203619 0.00128306 0)
(0.021066 0.001367 0)
(0.0217881 0.00145185 0)
(0.0225277 0.00153749 0)
(0.0232839 0.00162377 0)
(0.0240563 0.00171054 0)
(0.024844 0.00179759 0)
(0.0256463 0.00188474 0)
(0.0264623 0.00197176 0)
(0.0272912 0.0020584 0)
(0.0281321 0.00214439 0)
(0.0289841 0.00222945 0)
(0.029846 0.00231329 0)
(0.0307168 0.00239558 0)
(0.0315955 0.002476 0)
(0.0324809 0.00255419 0)
(0.0333718 0.00262982 0)
(0.0342668 0.00270251 0)
(0.0351649 0.00277192 0)
(0.0360646 0.00283768 0)
(0.0369646 0.00289944 0)
(0.0378636 0.00295687 0)
(0.0387603 0.00300961 0)
(0.0396531 0.00305738 0)
(0.0405408 0.00309986 0)
(0.0414221 0.0031368 0)
(0.0422954 0.00316796 0)
(0.0431596 0.00319313 0)
(0.0440133 0.00321213 0)
(0.0448553 0.00322484 0)
(0.0456842 0.00323116 0)
(0.0464991 0.00323103 0)
(0.0472986 0.00322445 0)
(0.0480818 0.00321143 0)
(0.0488477 0.00319204 0)
(0.0495952 0.00316641 0)
(0.0503237 0.00313467 0)
(0.0510322 0.00309701 0)
(0.0517201 0.00305366 0)
(0.0523868 0.00300487 0)
(0.0530316 0.00295092 0)
(0.0536542 0.00289212 0)
(0.0542541 0.00282882 0)
(0.0548311 0.00276135 0)
(0.0553849 0.00269009 0)
(0.0559154 0.00261542 0)
(0.0564225 0.00253772 0)
(0.0569062 0.0024574 0)
(0.0573665 0.00237483 0)
(0.0578036 0.00229041 0)
(0.0582177 0.00220453 0)
(0.0586091 0.00211756 0)
(0.058978 0.00202987 0)
(0.0593248 0.00194182 0)
(0.0596499 0.00185374 0)
(0.0599537 0.00176595 0)
(0.0602368 0.00167876 0)
(0.0604997 0.00159244 0)
(0.0607428 0.00150728 0)
(0.0609668 0.0014235 0)
(0.0611723 0.00134133 0)
(0.0613599 0.00126098 0)
(0.0615301 0.00118262 0)
(0.0616838 0.00110641 0)
(0.0618214 0.00103249 0)
(0.0619437 0.000960975 0)
(0.0620513 0.000891974 0)
(0.0621449 0.000825563 0)
(0.0622252 0.000761806 0)
(0.0622927 0.00070075 0)
(0.0623482 0.000642425 0)
(0.0623923 0.00058685 0)
(0.0624256 0.000534025 0)
(0.0624488 0.000483942 0)
(0.0624624 0.000436577 0)
(0.0624671 0.000391901 0)
(0.0624633 0.000349866 0)
(0.0624518 0.00031043 0)
(0.062433 0.000273521 0)
(0.0624074 0.000239093 0)
(0.0623756 0.000207046 0)
(0.0623381 0.000177343 0)
(0.0622953 0.000149846 0)
(0.0622477 0.000124546 0)
(0.0621957 0.000101255 0)
(0.0621397 8.00066e-05 0)
(0.0620801 6.05544e-05 0)
(0.0620173 4.29832e-05 0)
(0.0619518 2.7003e-05 0)
(0.0618834 1.27007e-05 0)
(0.0618135 -1.49829e-07 0)
(0.0617405 -1.16453e-05 0)
(0.0616677 -2.1645e-05 0)
(0.0615904 -3.08893e-05 0)
(0.0615171 -3.82113e-05 0)
(0.0614349 -4.59101e-05 0)
(0.0613639 -5.05637e-05 0)
(0.0612749 -5.77584e-05 0)
(0.0612106 -5.93671e-05 0)
(0.0611109 -6.80516e-05 0)
(0.0610606 -6.60291e-05 0)
(0.0609427 -7.64939e-05 0)
(0.00155486 -0.000427046 0)
(0.00154084 -0.000401202 0)
(0.00155155 -0.000374476 0)
(0.00158728 -0.000346463 0)
(0.00164665 -0.000317348 0)
(0.00172983 -0.000286747 0)
(0.00183596 -0.000254835 0)
(0.00196506 -0.000221334 0)
(0.00211662 -0.000186367 0)
(0.00229059 -0.000149752 0)
(0.00248666 -0.000111571 0)
(0.00270477 -7.17072e-05 0)
(0.00294472 -3.02145e-05 0)
(0.00320643 1.29784e-05 0)
(0.00348979 5.78361e-05 0)
(0.00379473 0.000104401 0)
(0.00412114 0.000152646 0)
(0.00446898 0.000202593 0)
(0.00483815 0.000254221 0)
(0.00522858 0.000307534 0)
(0.00564019 0.000362507 0)
(0.00607289 0.000419131 0)
(0.00652656 0.000477372 0)
(0.00700108 0.000537204 0)
(0.00749631 0.000598579 0)
(0.00801207 0.000661451 0)
(0.00854815 0.000725753 0)
(0.00910433 0.000791413 0)
(0.00968032 0.000858339 0)
(0.0102758 0.00092643 0)
(0.0108905 0.000995565 0)
(0.0115238 0.00106561 0)
(0.0121755 0.00113641 0)
(0.0128449 0.00120779 0)
(0.0135314 0.00127956 0)
(0.0142345 0.00135151 0)
(0.0149535 0.00142342 0)
(0.0156875 0.00149504 0)
(0.0164359 0.00156611 0)
(0.0171975 0.00163635 0)
(0.0179717 0.00170548 0)
(0.0187572 0.00177319 0)
(0.0195531 0.00183918 0)
(0.0203582 0.00190312 0)
(0.0211714 0.00196471 0)
(0.0219914 0.00202361 0)
(0.0228169 0.00207952 0)
(0.0236467 0.00213213 0)
(0.0244794 0.00218114 0)
(0.0253137 0.00222626 0)
(0.0261481 0.00226724 0)
(0.0269814 0.00230383 0)
(0.027812 0.0023358 0)
(0.0286386 0.00236298 0)
(0.0294598 0.00238519 0)
(0.0302742 0.0024023 0)
(0.0310806 0.00241422 0)
(0.0318776 0.00242089 0)
(0.0326639 0.00242228 0)
(0.0334383 0.0024184 0)
(0.0341998 0.00240929 0)
(0.0349471 0.00239504 0)
(0.0356793 0.00237575 0)
(0.0363953 0.00235158 0)
(0.0370943 0.0023227 0)
(0.0377755 0.00228931 0)
(0.0384381 0.00225164 0)
(0.0390815 0.00220995 0)
(0.0397051 0.00216449 0)
(0.0403084 0.00211557 0)
(0.0408909 0.00206347 0)
(0.0414524 0.00200851 0)
(0.0419926 0.00195101 0)
(0.0425112 0.00189127 0)
(0.0430083 0.00182963 0)
(0.0434838 0.00176641 0)
(0.0439377 0.0017019 0)
(0.04437 0.00163643 0)
(0.0447811 0.00157029 0)
(0.0451711 0.00150377 0)
(0.0455402 0.00143714 0)
(0.0458889 0.00137066 0)
(0.0462174 0.00130458 0)
(0.0465263 0.00123913 0)
(0.0468159 0.00117452 0)
(0.0470868 0.00111094 0)
(0.0473394 0.00104859 0)
(0.0475743 0.000987611 0)
(0.0477921 0.000928157 0)
(0.0479933 0.000870353 0)
(0.0481786 0.00081431 0)
(0.0483485 0.000760122 0)
(0.0485037 0.000707868 0)
(0.0486448 0.000657613 0)
(0.0487724 0.000609406 0)
(0.0488871 0.000563282 0)
(0.0489896 0.000519267 0)
(0.0490805 0.000477371 0)
(0.0491603 0.000437596 0)
(0.0492298 0.00039993 0)
(0.0492894 0.000364359 0)
(0.0493398 0.00033085 0)
(0.0493814 0.000299377 0)
(0.049415 0.000269883 0)
(0.049441 0.000242344 0)
(0.0494599 0.00021667 0)
(0.0494722 0.000192858 0)
(0.0494784 0.000170766 0)
(0.049479 0.000150443 0)
(0.0494745 0.000131658 0)
(0.0494652 0.000114566 0)
(0.0494516 9.87849e-05 0)
(0.049434 8.46553e-05 0)
(0.049413 7.15545e-05 0)
(0.0493884 6.01084e-05 0)
(0.0493616 4.93661e-05 0)
(0.0493311 4.02787e-05 0)
(0.0493 3.16443e-05 0)
(0.0492644 2.44274e-05 0)
(0.0492307 1.78979e-05 0)
(0.0491903 1.16199e-05 0)
(0.0491559 7.75391e-06 0)
(0.0491102 7.07444e-07 0)
(0.0490777 5.90147e-07 0)
(0.0490255 -9.0302e-06 0)
(0.0489975 -5.55406e-06 0)
(0.0489374 -1.73929e-05 0)
(-0.0037953 -0.000365226 0)
(-0.00387679 -0.000358251 0)
(-0.00394462 -0.000350028 0)
(-0.00399828 -0.000340766 0)
(-0.00403796 -0.000330259 0)
(-0.00406318 -0.000318433 0)
(-0.00407395 -0.000305286 0)
(-0.00406984 -0.000290686 0)
(-0.00405069 -0.000274683 0)
(-0.00401613 -0.000257168 0)
(-0.00396591 -0.000238189 0)
(-0.00389967 -0.000217671 0)
(-0.00381712 -0.000195651 0)
(-0.00371792 -0.000172082 0)
(-0.00360176 -0.000146988 0)
(-0.0034683 -0.000120338 0)
(-0.00331724 -9.21506e-05 0)
(-0.00314826 -6.24055e-05 0)
(-0.00296106 -3.1115e-05 0)
(-0.00275535 1.7323e-06 0)
(-0.00253084 3.61257e-05 0)
(-0.00228727 7.20688e-05 0)
(-0.0020244 0.000109548 0)
(-0.001742 0.000148559 0)
(-0.00143986 0.00018908 0)
(-0.00111781 0.000231093 0)
(-0.000775704 0.000274567 0)
(-0.000413428 0.000319466 0)
(-3.09085e-05 0.000365742 0)
(0.000371885 0.000413338 0)
(0.00079494 0.000462182 0)
(0.00123819 0.000512194 0)
(0.00170153 0.000563276 0)
(0.00218477 0.000615316 0)
(0.00268769 0.000668187 0)
(0.00320998 0.000721746 0)
(0.00375128 0.000775835 0)
(0.00431116 0.000830277 0)
(0.0048891 0.000884883 0)
(0.00548454 0.000939447 0)
(0.00609681 0.00099375 0)
(0.0067252 0.00104756 0)
(0.00736889 0.00110063 0)
(0.00802703 0.00115272 0)
(0.00869866 0.00120357 0)
(0.00938278 0.00125291 0)
(0.0100783 0.00130049 0)
(0.0107841 0.00134603 0)
(0.011499 0.00138929 0)
(0.0122218 0.00143003 0)
(0.0129511 0.00146799 0)
(0.0136857 0.00150296 0)
(0.0144243 0.00153473 0)
(0.0151653 0.00156312 0)
(0.0159076 0.00158795 0)
(0.0166496 0.0016091 0)
(0.01739 0.00162643 0)
(0.0181274 0.00163987 0)
(0.0188605 0.00164936 0)
(0.019588 0.00165485 0)
(0.0203085 0.00165635 0)
(0.0210208 0.00165389 0)
(0.0217236 0.00164751 0)
(0.0224159 0.0016373 0)
(0.0230966 0.00162337 0)
(0.0237646 0.00160584 0)
(0.0244189 0.00158486 0)
(0.0250587 0.00156061 0)
(0.0256831 0.00153328 0)
(0.0262915 0.00150308 0)
(0.0268831 0.00147021 0)
(0.0274574 0.00143491 0)
(0.0280139 0.00139741 0)
(0.0285521 0.00135796 0)
(0.0290717 0.00131679 0)
(0.0295725 0.00127416 0)
(0.0300542 0.0012303 0)
(0.0305168 0.00118545 0)
(0.0309601 0.00113984 0)
(0.0313843 0.00109371 0)
(0.0317893 0.00104726 0)
(0.0321753 0.00100071 0)
(0.0325424 0.000954242 0)
(0.0328911 0.000908054 0)
(0.0332214 0.000862314 0)
(0.0335338 0.000817181 0)
(0.0338286 0.0007728 0)
(0.0341062 0.000729306 0)
(0.034367 0.000686816 0)
(0.0346116 0.000645438 0)
(0.0348404 0.000605264 0)
(0.0350539 0.000566375 0)
(0.0352527 0.000528838 0)
(0.0354373 0.000492709 0)
(0.0356082 0.000458032 0)
(0.0357659 0.000424843 0)
(0.0359112 0.000393163 0)
(0.0360445 0.000363008 0)
(0.0361663 0.000334382 0)
(0.0362773 0.000307282 0)
(0.0363781 0.0002817 0)
(0.0364691 0.000257614 0)
(0.0365509 0.000235006 0)
(0.0366241 0.00021384 0)
(0.0366891 0.000194092 0)
(0.0367466 0.000175708 0)
(0.0367969 0.000158668 0)
(0.0368406 0.000142896 0)
(0.0368782 0.000128383 0)
(0.0369101 0.000115029 0)
(0.0369367 0.000102839 0)
(0.0369585 9.16981e-05 0)
(0.0369758 8.16011e-05 0)
(0.0369892 7.24759e-05 0)
(0.0369986 6.42049e-05 0)
(0.0370051 5.69332e-05 0)
(0.0370079 5.01506e-05 0)
(0.037009 4.46552e-05 0)
(0.0370062 3.88856e-05 0)
(0.0370033 3.52529e-05 0)
(0.0369956 2.97619e-05 0)
(0.0369899 2.83506e-05 0)
(0.0369783 2.1963e-05 0)
(0.0369701 2.34251e-05 0)
(0.0369561 1.4599e-05 0)
(0.0369448 1.88132e-05 0)
(0.0369307 8.12083e-06 0)
(-0.00612568 -0.000250445 0)
(-0.0062511 -0.000252303 0)
(-0.00637167 -0.000253374 0)
(-0.00648645 -0.000253502 0)
(-0.00659547 -0.000252801 0)
(-0.00669787 -0.000251111 0)
(-0.00679345 -0.000248535 0)
(-0.00688148 -0.000244952 0)
(-0.0069616 -0.000240435 0)
(-0.00703315 -0.000234901 0)
(-0.00709568 -0.000228392 0)
(-0.00714859 -0.000220854 0)
(-0.00719137 -0.000212311 0)
(-0.00722344 -0.000202723 0)
(-0.00724428 -0.000192101 0)
(-0.00725334 -0.000180416 0)
(-0.00725007 -0.000167668 0)
(-0.00723395 -0.000153833 0)
(-0.00720443 -0.000138907 0)
(-0.007161 -0.000122868 0)
(-0.00710312 -0.000105708 0)
(-0.0070303 -8.74086e-05 0)
(-0.00694202 -6.79618e-05 0)
(-0.0068378 -4.73531e-05 0)
(-0.00671715 -2.55766e-05 0)
(-0.00657963 -2.62455e-06 0)
(-0.00642478 2.15026e-05 0)
(-0.0062522 4.68031e-05 0)
(-0.00606149 7.32659e-05 0)
(-0.0058523 0.000100876 0)
(-0.00562429 0.000129608 0)
(-0.00537719 0.000159428 0)
(-0.00511075 0.000190293 0)
(-0.00482478 0.00022215 0)
(-0.00451915 0.000254931 0)
(-0.00419378 0.000288558 0)
(-0.00384864 0.000322941 0)
(-0.0034838 0.000357975 0)
(-0.00309936 0.000393544 0)
(-0.00269554 0.000429517 0)
(-0.00227261 0.000465753 0)
(-0.00183091 0.000502098 0)
(-0.0013709 0.000538387 0)
(-0.000893086 0.000574447 0)
(-0.000398084 0.000610096 0)
(0.000113418 0.000645147 0)
(0.00064065 0.000679407 0)
(0.00118276 0.000712683 0)
(0.00173882 0.000744782 0)
(0.00230782 0.000775512 0)
(0.0028887 0.000804687 0)
(0.00348033 0.00083213 0)
(0.00408151 0.000857671 0)
(0.00469101 0.000881152 0)
(0.00530756 0.000902433 0)
(0.00592983 0.000921384 0)
(0.00655649 0.000937896 0)
(0.00718618 0.000951879 0)
(0.00781755 0.00096326 0)
(0.00844922 0.00097199 0)
(0.00907985 0.000978039 0)
(0.0097081 0.000981398 0)
(0.0103327 0.000982079 0)
(0.0109523 0.000980116 0)
(0.0115657 0.000975561 0)
(0.0121717 0.000968485 0)
(0.0127691 0.000958976 0)
(0.013357 0.000947139 0)
(0.0139343 0.000933092 0)
(0.0145 0.000916967 0)
(0.0150533 0.000898906 0)
(0.0155934 0.00087906 0)
(0.0161196 0.000857587 0)
(0.0166312 0.000834649 0)
(0.0171276 0.000810415 0)
(0.0176085 0.000785052 0)
(0.0180733 0.000758728 0)
(0.0185217 0.00073161 0)
(0.0189535 0.000703861 0)
(0.0193685 0.000675641 0)
(0.0197666 0.000647104 0)
(0.0201477 0.000618395 0)
(0.0205119 0.000589656 0)
(0.0208592 0.000561018 0)
(0.0211897 0.000532605 0)
(0.0215038 0.000504529 0)
(0.0218015 0.000476895 0)
(0.0220832 0.000449799 0)
(0.0223492 0.000423325 0)
(0.0225998 0.00039755 0)
(0.0228355 0.000372539 0)
(0.0230567 0.00034835 0)
(0.0232638 0.00032503 0)
(0.0234574 0.000302619 0)
(0.0236378 0.000281147 0)
(0.0238056 0.000260639 0)
(0.0239614 0.000241109 0)
(0.0241056 0.000222568 0)
(0.0242388 0.000205017 0)
(0.0243615 0.000188453 0)
(0.0244743 0.000172871 0)
(0.0245777 0.000158251 0)
(0.0246722 0.000144585 0)
(0.0247583 0.000131838 0)
(0.0248365 0.000120005 0)
(0.0249075 0.000109032 0)
(0.0249715 9.89246e-05 0)
(0.0250292 8.95997e-05 0)
(0.025081 8.10954e-05 0)
(0.0251273 7.32781e-05 0)
(0.0251685 6.62415e-05 0)
(0.0252052 5.97806e-05 0)
(0.0252375 5.40668e-05 0)
(0.0252662 4.88115e-05 0)
(0.025291 4.42559e-05 0)
(0.0253131 4.00805e-05 0)
(0.0253318 3.64651e-05 0)
(0.0253486 3.33226e-05 0)
(0.0253623 3.02932e-05 0)
(0.0253748 2.83203e-05 0)
(0.0253849 2.52414e-05 0)
(0.0253935 2.48829e-05 0)
(0.0254015 2.07244e-05 0)
(0.0254055 2.26157e-05 0)
(0.025414 1.6307e-05 0)
(0.0254112 2.01361e-05 0)
(0.0254238 1.23204e-05 0)
(-0.00568235 -0.000108884 0)
(-0.00580399 -0.000111762 0)
(-0.00592619 -0.000114264 0)
(-0.00604818 -0.000116527 0)
(-0.00616984 -0.000118441 0)
(-0.0062905 -0.000120031 0)
(-0.00640989 -0.000121265 0)
(-0.00652741 -0.000122122 0)
(-0.0066427 -0.000122601 0)
(-0.00675521 -0.000122674 0)
(-0.00686449 -0.000122346 0)
(-0.00697002 -0.000121592 0)
(-0.00707131 -0.000120415 0)
(-0.00716786 -0.000118796 0)
(-0.00725916 -0.000116735 0)
(-0.00734468 -0.000114213 0)
(-0.00742391 -0.000111229 0)
(-0.00749633 -0.000107765 0)
(-0.00756138 -0.000103815 0)
(-0.00761855 -9.93614e-05 0)
(-0.00766728 -9.43951e-05 0)
(-0.00770703 -8.88988e-05 0)
(-0.00773724 -8.28601e-05 0)
(-0.00775736 -7.62618e-05 0)
(-0.00776683 -6.90906e-05 0)
(-0.00776509 -6.13302e-05 0)
(-0.00775157 -5.29679e-05 0)
(-0.00772573 -4.39899e-05 0)
(-0.00768702 -3.43864e-05 0)
(-0.00763489 -2.41485e-05 0)
(-0.00756881 -1.32719e-05 0)
(-0.00748828 -1.75502e-06 0)
(-0.00739282 1.03982e-05 0)
(-0.00728195 2.31794e-05 0)
(-0.00715526 3.65733e-05 0)
(-0.00701235 5.05589e-05 0)
(-0.00685289 6.51074e-05 0)
(-0.00667656 8.01832e-05 0)
(-0.00648315 9.5742e-05 0)
(-0.00627246 0.000111732 0)
(-0.00604439 0.000128093 0)
(-0.00579891 0.000144757 0)
(-0.00553605 0.000161649 0)
(-0.00525593 0.000178684 0)
(-0.00495876 0.000195774 0)
(-0.00464483 0.000212823 0)
(-0.00431452 0.000229731 0)
(-0.00396831 0.000246394 0)
(-0.00360676 0.000262707 0)
(-0.00323051 0.000278563 0)
(-0.00284029 0.000293855 0)
(-0.00243693 0.000308479 0)
(-0.00202132 0.000322334 0)
(-0.00159442 0.000335324 0)
(-0.00115726 0.00034736 0)
(-0.000710938 0.000358359 0)
(-0.000256593 0.000368248 0)
(0.000204592 0.000376964 0)
(0.000671398 0.000384453 0)
(0.00114258 0.000390674 0)
(0.00161689 0.000395596 0)
(0.00209306 0.000399203 0)
(0.00256984 0.000401487 0)
(0.00304596 0.000402455 0)
(0.00352023 0.000402123 0)
(0.00399143 0.000400521 0)
(0.00445841 0.000397686 0)
(0.00492007 0.000393668 0)
(0.00537535 0.000388523 0)
(0.00582325 0.000382316 0)
(0.00626283 0.000375118 0)
(0.00669324 0.000367006 0)
(0.00711366 0.000358061 0)
(0.00752338 0.000348368 0)
(0.00792176 0.000338014 0)
(0.00830822 0.000327085 0)
(0.00868228 0.00031567 0)
(0.00904351 0.000303857 0)
(0.00939159 0.000291729 0)
(0.00972624 0.00027937 0)
(0.0100473 0.00026686 0)
(0.0103546 0.000254273 0)
(0.0106481 0.000241682 0)
(0.0109278 0.000229153 0)
(0.0111939 0.000216748 0)
(0.0114463 0.000204522 0)
(0.0116854 0.000192529 0)
(0.0119112 0.000180811 0)
(0.0121242 0.000169411 0)
(0.0123245 0.000158363 0)
(0.0125126 0.000147697 0)
(0.0126887 0.000137436 0)
(0.0128534 0.000127602 0)
(0.013007 0.000118208 0)
(0.0131499 0.000109267 0)
(0.0132827 0.000100785 0)
(0.0134057 9.27658e-05 0)
(0.0135194 8.52088e-05 0)
(0.0136243 7.81113e-05 0)
(0.013721 7.14675e-05 0)
(0.0138097 6.52694e-05 0)
(0.0138911 5.95064e-05 0)
(0.0139656 5.41673e-05 0)
(0.0140335 4.92371e-05 0)