/*--------------------------------*- C++ -*----------------------------------*\
| =========                 |                                                 |
| \\      /  F ield         | OpenFOAM: The Open Source CFD Toolbox           |
|  \\    /   O peration     | Version:  4.1                                   |
|   \\  /    A nd           | Web:      www.OpenFOAM.org                      |
|    \\/     M anipulation  |                                                 |
\*---------------------------------------------------------------------------*/
FoamFile
{
    version     2.0;
    format      ascii;
    class       volVectorField;
    location    "3030";
    object      U;
}
// * * * * * * * * * * * * * * * * * * * * * * * * * * * * * * * * * * * * * //

dimensions      [0 1 -1 0 0 0 0];

internalField   nonuniform List<vector> 
1275
(
(0.0132838 3.79664e-05 0)
(0.0133794 4.97394e-05 0)
(0.0134217 5.94896e-05 0)
(0.0134148 6.72847e-05 0)
(0.0133635 7.31655e-05 0)
(0.0132719 7.73552e-05 0)
(0.0131446 7.99157e-05 0)
(0.0129856 8.11088e-05 0)
(0.012799 8.10325e-05 0)
(0.0125885 7.99421e-05 0)
(0.0123574 7.79558e-05 0)
(0.0121092 7.53008e-05 0)
(0.0118465 7.2095e-05 0)
(0.0115723 6.85264e-05 0)
(0.0112886 6.46972e-05 0)
(0.0109979 6.07517e-05 0)
(0.0107019 5.67675e-05 0)
(0.0104023 5.28459e-05 0)
(0.0101005 4.90371e-05 0)
(0.00979788 4.54045e-05 0)
(0.00949544 4.19728e-05 0)
(0.00919422 3.87742e-05 0)
(0.00889499 3.58129e-05 0)
(0.00859849 3.30982e-05 0)
(0.00830532 3.06196e-05 0)
(0.00801603 2.8371e-05 0)
(0.00773107 2.63333e-05 0)
(0.00745085 2.44915e-05 0)
(0.00717572 2.28227e-05 0)
(0.00690598 2.13083e-05 0)
(0.00664191 1.99253e-05 0)
(0.00638375 1.86552e-05 0)
(0.00613169 1.74773e-05 0)
(0.00588594 1.63755e-05 0)
(0.00564663 1.53332e-05 0)
(0.00541393 1.43377e-05 0)
(0.00518792 1.33773e-05 0)
(0.00496873 1.24434e-05 0)
(0.00475642 1.15289e-05 0)
(0.00455105 1.06294e-05 0)
(0.00435266 9.74203e-06 0)
(0.00416128 8.86607e-06 0)
(0.00397692 8.00199e-06 0)
(0.00379956 7.15194e-06 0)
(0.00362917 6.31878e-06 0)
(0.00346573 5.50636e-06 0)
(0.00330916 4.71875e-06 0)
(0.0031594 3.96039e-06 0)
(0.00301637 3.23542e-06 0)
(0.00287998 2.54776e-06 0)
(0.00275013 1.90067e-06 0)
(0.0026267 1.29679e-06 0)
(0.00250958 7.37818e-07 0)
(0.00239864 2.24653e-07 0)
(0.00229375 -2.42791e-07 0)
(0.00219477 -6.6542e-07 0)
(0.00210157 -1.04499e-06 0)
(0.002014 -1.38391e-06 0)
(0.00193193 -1.6852e-06 0)
(0.0018552 -1.95227e-06 0)
(0.00178368 -2.18884e-06 0)
(0.00171723 -2.39875e-06 0)
(0.00165569 -2.58585e-06 0)
(0.00159893 -2.75387e-06 0)
(0.00154682 -2.90637e-06 0)
(0.00149922 -3.04661e-06 0)
(0.001456 -3.17755e-06 0)
(0.00141704 -3.30178e-06 0)
(0.00138221 -3.42157e-06 0)
(0.00135139 -3.53882e-06 0)
(0.00132448 -3.6551e-06 0)
(0.00130137 -3.77169e-06 0)
(0.00128194 -3.88961e-06 0)
(0.0012661 -4.00963e-06 0)
(0.00125375 -4.13234e-06 0)
(0.00124481 -4.25814e-06 0)
(0.00123917 -4.38732e-06 0)
(0.00123676 -4.52002e-06 0)
(0.00123749 -4.6563e-06 0)
(0.00124128 -4.79614e-06 0)
(0.00124806 -4.93944e-06 0)
(0.00125774 -5.08603e-06 0)
(0.00127025 -5.23569e-06 0)
(0.00128552 -5.38813e-06 0)
(0.00130348 -5.54302e-06 0)
(0.00132404 -5.69998e-06 0)
(0.00134714 -5.85855e-06 0)
(0.00137271 -6.01826e-06 0)
(0.00140067 -6.17856e-06 0)
(0.00143094 -6.33889e-06 0)
(0.00146345 -6.49862e-06 0)
(0.00149813 -6.65712e-06 0)
(0.0015349 -6.8137e-06 0)
(0.00157367 -6.96771e-06 0)
(0.00161438 -7.11839e-06 0)
(0.00165693 -7.26511e-06 0)
(0.00170124 -7.40712e-06 0)
(0.00174724 -7.54376e-06 0)
(0.00179483 -7.67441e-06 0)
(0.00184393 -7.79829e-06 0)
(0.00189445 -7.91513e-06 0)
(0.00194631 -8.02382e-06 0)
(0.0019994 -8.1248e-06 0)
(0.00205367 -8.21611e-06 0)
(0.00210897 -8.29975e-06 0)
(0.00216532 -8.37181e-06 0)
(0.00222245 -8.43738e-06 0)
(0.00228056 -8.48854e-06 0)
(0.00233911 -8.5363e-06 0)
(0.00239871 -8.56497e-06 0)
(0.00245825 -8.59648e-06 0)
(0.00251914 -8.60094e-06 0)
(0.00257915 -8.61948e-06 0)
(0.0026413 -8.59782e-06 0)
(0.00270106 -8.6088e-06 0)
(0.00276473 -8.55964e-06 0)
(0.00282324 -8.57086e-06 0)
(0.00288913 -8.49752e-06 0)
(0.00294483 -8.51831e-06 0)
(0.00301445 -8.44606e-06 0)
(0.00306496 -8.48301e-06 0)
(0.00314098 -8.52683e-06 0)
(0.00318285 -8.5774e-06 0)
(0.00326957 -9.20422e-06 0)
(0.00329877 -9.32111e-06 0)
(0.00340244 -1.23765e-05 0)
(0.00341789 -1.34539e-05 0)
(0.00354729 -2.76249e-05 0)
(0.0338249 -0.00029028 0)
(0.0342498 -0.000189959 0)
(0.0345848 -9.65389e-05 0)
(0.0348332 -9.96541e-06 0)
(0.0349996 6.93529e-05 0)
(0.0350882 0.000141786 0)
(0.0351035 0.000207124 0)
(0.03505 0.00026585 0)
(0.034932 0.00031797 0)
(0.0347541 0.000363998 0)
(0.0345206 0.000404103 0)
(0.0342357 0.000438796 0)
(0.0339036 0.000468346 0)
(0.0335283 0.000493238 0)
(0.0331136 0.000513786 0)
(0.0326632 0.000530432 0)
(0.0321807 0.000543495 0)
(0.0316694 0.000553365 0)
(0.0311326 0.000560337 0)
(0.0305733 0.000564744 0)
(0.0299942 0.000566844 0)
(0.0293983 0.000566913 0)
(0.0287879 0.000565168 0)
(0.0281656 0.000561829 0)
(0.0275336 0.000557075 0)
(0.026894 0.000551081 0)
(0.0262488 0.000543987 0)
(0.0255999 0.000535932 0)
(0.024949 0.000527027 0)
(0.0242979 0.000517382 0)
(0.0236481 0.000507085 0)
(0.0230011 0.000496224 0)
(0.0223582 0.000484871 0)
(0.0217207 0.000473096 0)
(0.0210898 0.000460961 0)
(0.0204667 0.000448523 0)
(0.0198524 0.000435834 0)
(0.0192479 0.000422945 0)
(0.018654 0.000409899 0)
(0.0180717 0.000396739 0)
(0.0175016 0.000383504 0)
(0.0169444 0.000370231 0)
(0.0164009 0.000356951 0)
(0.0158715 0.000343697 0)
(0.0153567 0.000330496 0)
(0.0148569 0.000317373 0)
(0.0143726 0.000304352 0)
(0.013904 0.000291455 0)
(0.0134514 0.000278699 0)
(0.0130149 0.000266102 0)
(0.0125948 0.000253679 0)
(0.012191 0.000241445 0)
(0.0118036 0.000229412 0)
(0.0114326 0.00021759 0)
(0.0110779 0.00020599 0)
(0.0107394 0.000194621 0)
(0.0104171 0.000183491 0)
(0.0101107 0.000172605 0)
(0.00982 0.000161971 0)
(0.00954483 0.000151591 0)
(0.00928494 0.000141469 0)
(0.00904004 0.000131607 0)
(0.00880986 0.000122004 0)
(0.00859411 0.000112661 0)
(0.00839246 0.000103574 0)
(0.00820462 9.47406e-05 0)
(0.00803024 8.61562e-05 0)
(0.00786901 7.78154e-05 0)
(0.00772059 6.9712e-05 0)
(0.00758466 6.18392e-05 0)
(0.00746088 5.41899e-05 0)
(0.00734892 4.67565e-05 0)
(0.00724846 3.95316e-05 0)
(0.00715917 3.25075e-05 0)
(0.00708074 2.56771e-05 0)
(0.00701285 1.90335e-05 0)
(0.0069552 1.257e-05 0)
(0.00690747 6.28067e-06 0)
(0.00686938 1.60208e-07 0)
(0.00684062 -5.79619e-06 0)
(0.0068209 -1.15926e-05 0)
(0.00680995 -1.72325e-05 0)
(0.00680748 -2.27185e-05 0)
(0.00681322 -2.80528e-05 0)
(0.00682689 -3.32368e-05 0)
(0.00684822 -3.82713e-05 0)
(0.00687695 -4.31568e-05 0)
(0.00691281 -4.78929e-05 0)
(0.00695554 -5.2479e-05 0)
(0.00700489 -5.69142e-05 0)
(0.00706059 -6.1197e-05 0)
(0.00712239 -6.53258e-05 0)
(0.00719003 -6.92991e-05 0)
(0.00726327 -7.31144e-05 0)
(0.00734184 -7.67706e-05 0)
(0.0074255 -8.02644e-05 0)
(0.007514 -8.3596e-05 0)
(0.0076071 -8.67604e-05 0)
(0.00770453 -8.97611e-05 0)
(0.00780606 -9.2589e-05 0)
(0.00791145 -9.52546e-05 0)
(0.00802046 -9.774e-05 0)
(0.00813283 -0.000100071 0)
(0.00824837 -0.000102208 0)
(0.00836677 -0.00010421 0)
(0.00848794 -0.000105994 0)
(0.00861141 -0.000107681 0)
(0.00873735 -0.000109104 0)
(0.00886497 -0.000110504 0)
(0.0089949 -0.000111547 0)
(0.00912568 -0.000112709 0)
(0.00925899 -0.000113337 0)
(0.00939187 -0.000114342 0)
(0.00952815 -0.000114489 0)
(0.00966187 -0.000115466 0)
(0.00980113 -0.000115019 0)
(0.00993404 -0.000116158 0)
(0.010077 -0.000114959 0)
(0.0102067 -0.000116505 0)
(0.010355 -0.000114396 0)
(0.010478 -0.000116585 0)
(0.0106352 -0.00011363 0)
(0.0107461 -0.000116478 0)
(0.0109179 -0.000113654 0)
(0.0110094 -0.000116551 0)
(0.0112039 -0.000117941 0)
(0.0112667 -0.000119207 0)
(0.0114923 -0.000139848 0)
(0.0519452 -0.000902969 0)
(0.0524851 -0.000706916 0)
(0.0529363 -0.000521088 0)
(0.0533018 -0.000345154 0)
(0.0535851 -0.000180043 0)
(0.0537897 -2.51624e-05 0)
(0.0539192 0.000118955 0)
(0.053977 0.000252951 0)
(0.0539663 0.000376657 0)
(0.0538909 0.000490702 0)
(0.0537536 0.000595181 0)
(0.053558 0.000690693 0)
(0.0533068 0.000777494 0)
(0.0530035 0.000856148 0)
(0.0526506 0.000926993 0)
(0.0522512 0.000990549 0)
(0.0518079 0.00104718 0)
(0.0513234 0.00109736 0)
(0.0508003 0.00114145 0)
(0.0502412 0.00117985 0)
(0.0496483 0.00121291 0)
(0.0490241 0.00124097 0)
(0.0483708 0.00126434 0)
(0.0476907 0.00128331 0)
(0.0469859 0.00129815 0)
(0.0462587 0.00130911 0)
(0.045511 0.00131642 0)
(0.0447449 0.00132029 0)
(0.0439625 0.00132092 0)
(0.0431657 0.0013185 0)
(0.0423564 0.00131318 0)
(0.0415367 0.00130515 0)
(0.0407084 0.00129455 0)
(0.0398734 0.00128153 0)
(0.0390335 0.00126624 0)
(0.0381907 0.00124882 0)
(0.0373467 0.0012294 0)
(0.0365033 0.00120813 0)
(0.0356623 0.00118515 0)
(0.0348253 0.00116058 0)
(0.0339942 0.00113456 0)
(0.0331704 0.00110724 0)
(0.0323556 0.00107874 0)
(0.0315513 0.0010492 0)
(0.0307589 0.00101875 0)
(0.0299798 0.000987532 0)
(0.0292153 0.000955663 0)
(0.0284667 0.000923272 0)
(0.0277349 0.00089048 0)
(0.0270212 0.000857404 0)
(0.0263263 0.000824154 0)
(0.0256512 0.000790834 0)
(0.0249965 0.000757541 0)
(0.024363 0.000724368 0)
(0.0237511 0.000691396 0)
(0.0231613 0.000658701 0)
(0.0225939 0.00062635 0)
(0.0220493 0.000594405 0)
(0.0215275 0.000562919 0)
(0.0210287 0.000531936 0)
(0.0205528 0.000501496 0)
(0.0200999 0.000471632 0)
(0.0196697 0.000442371 0)
(0.0192622 0.000413733 0)
(0.0188771 0.000385734 0)
(0.018514 0.000358388 0)
(0.0181728 0.0003317 0)
(0.0178529 0.000305676 0)
(0.0175541 0.000280316 0)
(0.0172758 0.000255619 0)
(0.0170177 0.000231581 0)
(0.0167793 0.000208195 0)
(0.0165601 0.000185456 0)
(0.0163596 0.000163354 0)
(0.0161773 0.00014188 0)
(0.0160128 0.000121024 0)
(0.0158654 0.000100777 0)
(0.0157348 8.11277e-05 0)
(0.0156203 6.20668e-05 0)
(0.0155215 4.35844e-05 0)
(0.0154378 2.56712e-05 0)
(0.0153688 8.31856e-06 0)
(0.015314 -8.48158e-06 0)
(0.0152727 -2.47366e-05 0)
(0.0152446 -4.04531e-05 0)
(0.0152292 -5.5637e-05 0)
(0.0152259 -7.02933e-05 0)
(0.0152343 -8.44266e-05 0)
(0.015254 -9.80407e-05 0)
(0.0152843 -0.000111139 0)
(0.015325 -0.000123724 0)
(0.0153755 -0.000135798 0)
(0.0154353 -0.000147363 0)
(0.0155041 -0.000158422 0)
(0.0155814 -0.000168975 0)
(0.0156668 -0.000179025 0)
(0.0157598 -0.000188574 0)
(0.0158601 -0.000197623 0)
(0.0159671 -0.000206178 0)
(0.0160806 -0.000214235 0)
(0.0162002 -0.00022181 0)
(0.0163253 -0.000228886 0)
(0.0164558 -0.0002355 0)
(0.0165912 -0.000241611 0)
(0.016731 -0.000247294 0)
(0.0168752 -0.000252454 0)
(0.0170231 -0.00025725 0)
(0.0171746 -0.00026147 0)
(0.0173291 -0.000265444 0)
(0.0174869 -0.000268724 0)
(0.0176467 -0.000271973 0)
(0.0178097 -0.000274288 0)
(0.0179734 -0.000276959 0)
(0.0181408 -0.000278236 0)
(0.0183069 -0.000280555 0)
(0.0184783 -0.000280647 0)
(0.018645 -0.000282947 0)
(0.0188207 -0.000281613 0)
(0.0189853 -0.000284357 0)
(0.019167 -0.000281296 0)
(0.0193257 -0.000285031 0)
(0.0195167 -0.000280105 0)
(0.0196634 -0.000285201 0)
(0.0198702 -0.000279229 0)
(0.0199954 -0.000285069 0)
(0.0202287 -0.000281852 0)
(0.0203164 -0.000285439 0)
(0.0205919 -0.000293773 0)
(0.0697941 -0.00146556 0)
(0.0702823 -0.00118319 0)
(0.0706885 -0.000914933 0)
(0.071016 -0.00065995 0)
(0.0712684 -0.000419539 0)
(0.0714496 -0.000192719 0)
(0.0715626 1.98339e-05 0)
(0.0716111 0.000219047 0)
(0.071598 0.000404757 0)
(0.0715267 0.000577813 0)
(0.0713997 0.00073839 0)
(0.07122 0.000887272 0)
(0.0709899 0.00102483 0)
(0.0707123 0.00115177 0)
(0.0703891 0.00126856 0)
(0.0700227 0.00137585 0)
(0.069615 0.00147411 0)
(0.0691681 0.00156391 0)
(0.0686838 0.00164571 0)
(0.0681638 0.00171999 0)
(0.0676098 0.00178717 0)
(0.0670234 0.00184764 0)
(0.0664061 0.00190176 0)
(0.0657594 0.00194985 0)
(0.0650847 0.00199221 0)
(0.0643836 0.0020291 0)
(0.0636573 0.00206074 0)
(0.0629072 0.00208734 0)
(0.0621348 0.00210909 0)
(0.0613414 0.00212616 0)
(0.0605283 0.00213868 0)
(0.0596971 0.00214679 0)
(0.0588491 0.00215061 0)
(0.0579858 0.00215026 0)
(0.0571087 0.00214585 0)
(0.0562193 0.00213748 0)
(0.0553193 0.00212527 0)
(0.0544102 0.00210932 0)
(0.0534936 0.00208974 0)
(0.0525712 0.00206667 0)
(0.0516448 0.00204022 0)
(0.050716 0.00201054 0)
(0.0497866 0.00197777 0)
(0.0488585 0.00194207 0)
(0.0479333 0.0019036 0)
(0.0470128 0.00186255 0)
(0.0460988 0.00181909 0)
(0.0451931 0.00177341 0)
(0.0442973 0.00172572 0)
(0.0434131 0.00167623 0)
(0.0425421 0.00162513 0)
(0.041686 0.00157265 0)
(0.0408461 0.00151899 0)
(0.0400239 0.00146436 0)
(0.0392207 0.00140897 0)
(0.0384377 0.00135301 0)
(0.037676 0.00129668 0)
(0.0369367 0.00124017 0)
(0.0362206 0.00118364 0)
(0.0355285 0.00112726 0)
(0.0348612 0.00107119 0)
(0.0342191 0.00101555 0)
(0.0336028 0.000960474 0)
(0.0330125 0.000906076 0)
(0.0324486 0.000852454 0)
(0.031911 0.000799694 0)
(0.0313999 0.000747873 0)
(0.0309153 0.000697052 0)
(0.030457 0.000647286 0)
(0.0300247 0.000598618 0)
(0.0296183 0.000551082 0)
(0.0292373 0.000504706 0)
(0.0288815 0.000459508 0)
(0.0285502 0.000415503 0)
(0.0282431 0.000372698 0)
(0.0279596 0.000331099 0)
(0.0276991 0.000290704 0)
(0.0274611 0.000251511 0)
(0.027245 0.000213515 0)
(0.02705 0.000176709 0)
(0.0268757 0.000141084 0)
(0.0267212 0.000106629 0)
(0.026586 7.3335e-05 0)
(0.0264694 4.11903e-05 0)
(0.0263706 1.01837e-05 0)
(0.0262891 -1.96962e-05 0)
(0.0262242 -4.84607e-05 0)
(0.0261752 -7.61215e-05 0)
(0.0261413 -0.000102689 0)
(0.0261221 -0.000128176 0)
(0.0261168 -0.000152592 0)
(0.0261248 -0.000175949 0)
(0.0261454 -0.000198257 0)
(0.026178 -0.000219529 0)
(0.0262221 -0.000239774 0)
(0.026277 -0.000259005 0)
(0.0263421 -0.000277236 0)
(0.0264169 -0.000294475 0)
(0.0265007 -0.000310742 0)
(0.0265931 -0.000326039 0)
(0.0266935 -0.000340401 0)
(0.0268014 -0.000353813 0)
(0.0269163 -0.000366336 0)
(0.0270377 -0.000377921 0)
(0.0271651 -0.000388686 0)
(0.0272981 -0.000398503 0)
(0.0274362 -0.00040761 0)
(0.027579 -0.000415713 0)
(0.027726 -0.00042329 0)
(0.027877 -0.000429714 0)
(0.0280312 -0.000435934 0)
(0.028189 -0.000440676 0)
(0.028349 -0.000445787 0)
(0.0285124 -0.000448768 0)
(0.0286763 -0.000453131 0)
(0.0288446 -0.000454156 0)
(0.0290107 -0.000458297 0)
(0.0291837 -0.000457012 0)
(0.0293495 -0.000461658 0)
(0.0295282 -0.000457583 0)
(0.0296899 -0.000463574 0)
(0.0298772 -0.000456393 0)
(0.0300287 -0.000464292 0)
(0.0302311 -0.000454638 0)
(0.0303612 -0.000463933 0)
(0.0305913 -0.000454524 0)
(0.03068 -0.000462625 0)
(0.0309589 -0.000459845 0)
(0.0866988 -0.00196457 0)
(0.087085 -0.0016 0)
(0.087397 -0.0012538 0)
(0.087639 -0.000924277 0)
(0.0878138 -0.00061318 0)
(0.0879259 -0.000319049 0)
(0.0879778 -4.26454e-05 0)
(0.0879733 0.000217252 0)
(0.0879149 0.000460558 0)
(0.0878059 0.00068833 0)
(0.0876484 0.000900886 0)
(0.0874454 0.00109917 0)
(0.0871989 0.00128372 0)
(0.0869111 0.00145538 0)
(0.086584 0.00161476 0)
(0.0862195 0.00176263 0)
(0.0858192 0.0018996 0)
(0.0853849 0.00202635 0)
(0.0849178 0.00214344 0)
(0.0844196 0.00225144 0)
(0.0838913 0.00235086 0)
(0.0833342 0.00244217 0)
(0.0827496 0.00252578 0)
(0.0821383 0.00260209 0)
(0.0815016 0.00267142 0)
(0.0808403 0.00273408 0)
(0.0801553 0.00279033 0)
(0.0794477 0.00284038 0)
(0.0787183 0.00288445 0)
(0.0779681 0.00292269 0)
(0.0771979 0.00295523 0)
(0.0764088 0.00298222 0)
(0.0756015 0.00300373 0)
(0.0747772 0.00301987 0)
(0.0739368 0.0030307 0)
(0.0730813 0.0030363 0)
(0.0722119 0.00303672 0)
(0.0713296 0.00303205 0)
(0.0704357 0.00302233 0)
(0.0695314 0.00300765 0)
(0.068618 0.00298808 0)
(0.0676968 0.00296371 0)
(0.0667692 0.00293465 0)
(0.0658367 0.002901 0)
(0.0649007 0.00286289 0)
(0.0639628 0.00282048 0)
(0.0630245 0.00277391 0)
(0.0620875 0.00272337 0)
(0.0611533 0.00266906 0)
(0.0602236 0.00261117 0)
(0.0593001 0.00254994 0)
(0.0583844 0.0024856 0)
(0.0574781 0.00241841 0)
(0.0565829 0.00234861 0)
(0.0557002 0.00227648 0)
(0.0548317 0.00220229 0)
(0.0539789 0.00212632 0)
(0.0531431 0.00204884 0)
(0.0523256 0.00197013 0)
(0.0515279 0.00189046 0)
(0.0507509 0.0018101 0)
(0.0499959 0.0017293 0)
(0.0492638 0.0016483 0)
(0.0485554 0.00156735 0)
(0.0478716 0.00148667 0)
(0.047213 0.00140645 0)
(0.0465801 0.00132691 0)
(0.0459735 0.0012482 0)
(0.0453934 0.00117049 0)
(0.04484 0.00109392 0)
(0.0443136 0.00101864 0)
(0.043814 0.000944735 0)
(0.0433413 0.000872323 0)
(0.0428954 0.000801485 0)
(0.0424759 0.000732294 0)
(0.0420826 0.000664811 0)
(0.0417151 0.000599086 0)
(0.041373 0.00053516 0)
(0.0410558 0.000473065 0)
(0.0407629 0.000412824 0)
(0.0404937 0.000354453 0)
(0.0402478 0.000297964 0)
(0.0400243 0.000243361 0)
(0.0398226 0.000190645 0)
(0.039642 0.000139813 0)
(0.0394818 9.08564e-05 0)
(0.0393412 4.37664e-05 0)
(0.0392196 -1.47004e-06 0)
(0.0391161 -4.48674e-05 0)
(0.03903 -8.64427e-05 0)
(0.0389606 -0.000126214 0)
(0.0389071 -0.000164202 0)
(0.0388687 -0.000200428 0)
(0.0388448 -0.000234915 0)
(0.0388346 -0.000267687 0)
(0.0388373 -0.000298769 0)
(0.0388524 -0.000328188 0)
(0.038879 -0.000355972 0)
(0.0389166 -0.000382152 0)
(0.0389644 -0.000406752 0)
(0.0390218 -0.000429815 0)
(0.0390882 -0.000451357 0)
(0.039163 -0.00047144 0)
(0.0392456 -0.000490054 0)
(0.0393355 -0.000507308 0)
(0.039432 -0.00052313 0)
(0.0395348 -0.000537724 0)
(0.0396431 -0.00055089 0)
(0.0397567 -0.000563021 0)
(0.0398749 -0.000573651 0)
(0.0399975 -0.000583558 0)
(0.0401238 -0.000591741 0)
(0.0402537 -0.000599725 0)
(0.0403866 -0.000605487 0)
(0.040522 -0.000611953 0)
(0.0406603 -0.000615211 0)
(0.0407996 -0.000620723 0)
(0.0409426 -0.000621224 0)
(0.0410836 -0.000626571 0)
(0.0412317 -0.000623844 0)
(0.041371 -0.000630088 0)
(0.0415266 -0.000623469 0)
(0.0416583 -0.000631852 0)
(0.0418272 -0.000620852 0)
(0.0419411 -0.000632043 0)
(0.0421348 -0.000618009 0)
(0.0422113 -0.000629182 0)
(0.0424521 -0.000617681 0)
(0.101115 -0.00231874 0)
(0.101367 -0.00188346 0)
(0.101559 -0.00147079 0)
(0.101695 -0.0010783 0)
(0.101776 -0.000707864 0)
(0.101809 -0.000357688 0)
(0.101792 -2.8394e-05 0)
(0.101732 0.000281429 0)
(0.101629 0.000571918 0)
(0.101485 0.000844278 0)
(0.101303 0.00109905 0)
(0.101085 0.00133733 0)
(0.100833 0.00155984 0)
(0.100547 0.00176756 0)
(0.100229 0.00196129 0)
(0.0998818 0.00214192 0)
(0.099505 0.0023102 0)
(0.0991002 0.00246691 0)
(0.0986684 0.00261274 0)
(0.0982107 0.00274836 0)
(0.0977277 0.00287437 0)
(0.0972204 0.0029913 0)
(0.0966895 0.00309966 0)
(0.0961357 0.00319988 0)
(0.0955597 0.00329234 0)
(0.0949621 0.00337739 0)
(0.0943436 0.0034553 0)
(0.0937047 0.00352632 0)
(0.093046 0.00359066 0)
(0.0923681 0.00364847 0)
(0.0916717 0.00369989 0)
(0.0909573 0.00374503 0)
(0.0902256 0.00378396 0)
(0.0894772 0.00381674 0)
(0.0887128 0.00384341 0)
(0.0879332 0.00386399 0)
(0.0871391 0.00387851 0)
(0.0863313 0.00388698 0)
(0.0855107 0.00388941 0)
(0.0846781 0.00388583 0)
(0.0838346 0.00387624 0)
(0.0829811 0.00386069 0)
(0.0821187 0.00383922 0)
(0.0812485 0.00381189 0)
(0.0803716 0.00377878 0)
(0.0794894 0.00373997 0)
(0.078603 0.0036956 0)
(0.0777139 0.00364578 0)
(0.0768232 0.00359069 0)
(0.0759325 0.00353051 0)
(0.0750432 0.00346544 0)
(0.0741566 0.00339569 0)
(0.0732743 0.00332153 0)
(0.0723978 0.00324322 0)
(0.0715284 0.00316102 0)
(0.0706677 0.00307525 0)
(0.0698171 0.00298621 0)
(0.068978 0.00289422 0)
(0.0681518 0.00279961 0)
(0.0673398 0.0027027 0)
(0.0665434 0.00260384 0)
(0.0657638 0.00250335 0)
(0.0650021 0.00240157 0)
(0.0642594 0.00229881 0)
(0.0635367 0.0021954 0)
(0.0628349 0.00209164 0)
(0.062155 0.00198783 0)
(0.0614975 0.00188424 0)
(0.0608632 0.00178115 0)
(0.0602527 0.00167879 0)
(0.0596662 0.00157741 0)
(0.0591043 0.00147722 0)
(0.0585672 0.00137842 0)
(0.058055 0.00128119 0)
(0.0575678 0.0011857 0)
(0.0571056 0.00109209 0)
(0.0566682 0.00100048 0)
(0.0562556 0.000911009 0)
(0.0558675 0.000823762 0)
(0.0555035 0.000738827 0)
(0.0551632 0.000656278 0)
(0.0548463 0.000576174 0)
(0.0545521 0.000498565 0)
(0.0542803 0.000423488 0)
(0.0540301 0.000350972 0)
(0.0538011 0.000281037 0)
(0.0535924 0.000213694 0)
(0.0534035 0.000148948 0)
(0.0532337 8.67959e-05 0)
(0.0530822 2.72289e-05 0)
(0.0529483 -2.97667e-05 0)
(0.0528313 -8.42102e-05 0)
(0.0527305 -0.000136125 0)
(0.0526451 -0.000185539 0)
(0.0525743 -0.000232485 0)
(0.0525175 -0.000276996 0)
(0.0524739 -0.000319113 0)
(0.0524428 -0.000358874 0)
(0.0524235 -0.00039633 0)
(0.0524154 -0.000431518 0)
(0.0524176 -0.000464501 0)
(0.0524296 -0.000495312 0)
(0.0524508 -0.000524035 0)
(0.0524804 -0.000550677 0)
(0.052518 -0.000575372 0)
(0.0525629 -0.000598066 0)
(0.0526146 -0.000618992 0)
(0.0526724 -0.000637956 0)
(0.0527361 -0.000655403 0)
(0.0528049 -0.000670842 0)
(0.0528786 -0.000685147 0)
(0.0529563 -0.000697224 0)
(0.0530383 -0.000708805 0)
(0.0531232 -0.000717598 0)
(0.0532118 -0.000727004 0)
(0.0533026 -0.000732435 0)
(0.0533963 -0.000740429 0)
(0.0534918 -0.000742173 0)
(0.0535888 -0.000749825 0)
(0.0536885 -0.000747247 0)
(0.0537866 -0.000755914 0)
(0.0538913 -0.00074829 0)
(0.0539863 -0.00075906 0)
(0.0540999 -0.000746591 0)
(0.054183 -0.000759074 0)
(0.0543158 -0.000742718 0)
(0.0543702 -0.000755316 0)
(0.0545421 -0.000739844 0)
(0.111385 -0.00253287 0)
(0.111473 -0.00204379 0)
(0.11152 -0.00158121 0)
(0.111533 -0.00114161 0)
(0.111511 -0.000726947 0)
(0.111459 -0.000335105 0)
(0.111376 3.36155e-05 0)
(0.111266 0.000380719 0)
(0.11113 0.000706682 0)
(0.110968 0.00101277 0)
(0.110782 0.0012998 0)
(0.110574 0.00156892 0)
(0.110342 0.00182106 0)
(0.11009 0.00205727 0)
(0.109816 0.00227848 0)
(0.109521 0.00248564 0)
(0.109206 0.0026796 0)
(0.108872 0.00286121 0)
(0.108518 0.00303123 0)
(0.108145 0.00319036 0)
(0.107753 0.00333924 0)
(0.107342 0.00347847 0)
(0.106913 0.00360856 0)
(0.106465 0.00372997 0)
(0.105999 0.00384312 0)
(0.105516 0.00394835 0)
(0.105014 0.00404595 0)
(0.104495 0.00413617 0)
(0.103958 0.00421921 0)
(0.103405 0.00429524 0)
(0.102834 0.00436437 0)
(0.102247 0.00442668 0)
(0.101643 0.00448224 0)
(0.101023 0.00453108 0)
(0.100388 0.0045732 0)
(0.0997375 0.0046086 0)
(0.0990722 0.00463726 0)
(0.0983927 0.00465916 0)
(0.0976995 0.00467426 0)
(0.0969933 0.00468253 0)
(0.0962747 0.00468395 0)
(0.0955445 0.00467849 0)
(0.0948035 0.00466616 0)
(0.0940525 0.00464695 0)
(0.0932925 0.0046209 0)
(0.0925244 0.00458804 0)
(0.0917492 0.00454845 0)
(0.0909681 0.00450222 0)
(0.0901821 0.00444946 0)
(0.0893924 0.00439033 0)
(0.0886002 0.00432498 0)
(0.0878068 0.00425362 0)
(0.0870135 0.00417647 0)
(0.0862215 0.00409378 0)
(0.0854321 0.00400583 0)
(0.0846466 0.00391292 0)
(0.0838665 0.00381536 0)
(0.0830929 0.0037135 0)
(0.0823272 0.00360768 0)
(0.0815707 0.00349827 0)
(0.0808245 0.00338564 0)
(0.08009 0.00327019 0)
(0.0793682 0.00315229 0)
(0.0786603 0.00303235 0)
(0.0779673 0.00291073 0)
(0.0772903 0.00278783 0)
(0.07663 0.00266402 0)
(0.0759874 0.00253966 0)
(0.0753633 0.00241511 0)
(0.0747582 0.0022907 0)
(0.0741729 0.00216677 0)
(0.0736078 0.00204361 0)
(0.0730634 0.00192152 0)
(0.07254 0.00180077 0)
(0.0720378 0.0016816 0)
(0.0715572 0.00156426 0)
(0.071098 0.00144895 0)
(0.0706605 0.00133587 0)
(0.0702445 0.0012252 0)
(0.0698499 0.00111708 0)
(0.0694765 0.00101165 0)
(0.069124 0.000909048 0)
(0.0687922 0.000809364 0)
(0.0684806 0.000712689 0)
(0.068189 0.000619099 0)
(0.0679167 0.000528651 0)
(0.0676633 0.000441394 0)
(0.0674282 0.00035736 0)
(0.067211 0.000276573 0)
(0.067011 0.000199044 0)
(0.0668275 0.000124776 0)
(0.0666601 5.37614e-05 0)
(0.0665079 -1.40151e-05 0)
(0.0663704 -7.85772e-05 0)
(0.066247 -0.000139955 0)
(0.0661368 -0.000198187 0)
(0.0660394 -0.000253315 0)
(0.0659541 -0.00030539 0)
(0.0658801 -0.000354465 0)
(0.0658169 -0.000400598 0)
(0.0657639 -0.000443857 0)
(0.0657203 -0.000484302 0)
(0.0656857 -0.000522017 0)
(0.0656593 -0.000557053 0)
(0.0656408 -0.000589526 0)
(0.0656294 -0.000619457 0)
(0.0656248 -0.000647018 0)
(0.0656262 -0.00067216 0)
(0.0656335 -0.00069517 0)
(0.0656457 -0.000715839 0)
(0.0656631 -0.000734692 0)
(0.0656843 -0.00075119 0)
(0.06571 -0.000766327 0)
(0.0657384 -0.000778913 0)
(0.0657712 -0.000790852 0)
(0.0658052 -0.000799699 0)
(0.0658437 -0.00080908 0)
(0.0658821 -0.00081421 0)
(0.065925 -0.00082186 0)
(0.0659669 -0.00082305 0)
(0.0660125 -0.000830087 0)
(0.0660582 -0.000826698 0)
(0.0661031 -0.0008347 0)
(0.0661551 -0.000825248 0)
(0.0661949 -0.000836642 0)
(0.066257 -0.000820814 0)
(0.066281 -0.000833018 0)
(0.0663683 -0.000815951 0)
(0.115769 -0.00253602 0)
(0.115674 -0.00201996 0)
(0.115565 -0.00153252 0)
(0.115451 -0.00107054 0)
(0.115326 -0.000634893 0)
(0.115197 -0.00022387 0)
(0.115059 0.000163044 0)
(0.114917 0.000527144 0)
(0.114769 0.000869442 0)
(0.114615 0.00119113 0)
(0.114455 0.00149336 0)
(0.114288 0.00177726 0)
(0.114115 0.00204399 0)
(0.113935 0.00229461 0)
(0.113747 0.00253018 0)
(0.11355 0.00275166 0)
(0.113345 0.00296001 0)
(0.113131 0.00315607 0)
(0.112907 0.00334066 0)
(0.112673 0.00351448 0)
(0.112428 0.00367822 0)
(0.112171 0.00383245 0)
(0.111903 0.0039777 0)
(0.111622 0.00411444 0)
(0.111329 0.00424305 0)
(0.111022 0.00436387 0)
(0.110702 0.00447718 0)
(0.110368 0.0045832 0)
(0.11002 0.00468211 0)
(0.109658 0.00477402 0)
(0.109281 0.00485902 0)
(0.108889 0.00493716 0)
(0.108482 0.00500845 0)
(0.10806 0.00507287 0)
(0.107623 0.00513038 0)
(0.107171 0.00518092 0)
(0.106704 0.0052244 0)
(0.106223 0.00526075 0)
(0.105727 0.00528986 0)
(0.105216 0.00531165 0)
(0.104692 0.00532603 0)
(0.104154 0.0053329 0)
(0.103603 0.0053322 0)
(0.10304 0.00532387 0)
(0.102465 0.00530787 0)
(0.101878 0.00528419 0)
(0.101282 0.00525283 0)
(0.100675 0.00521384 0)
(0.10006 0.00516728 0)
(0.0994376 0.00511325 0)
(0.098808 0.00505187 0)
(0.0981728 0.00498331 0)
(0.0975329 0.00490777 0)
(0.0968894 0.00482546 0)
(0.0962435 0.00473666 0)
(0.0955964 0.00464163 0)
(0.0949492 0.00454071 0)
(0.0943031 0.00443423 0)
(0.0936594 0.00432256 0)
(0.0930192 0.00420608 0)
(0.0923836 0.00408519 0)
(0.0917539 0.00396031 0)
(0.091131 0.00383187 0)
(0.0905162 0.00370029 0)
(0.0899105 0.00356603 0)
(0.0893149 0.00342952 0)
(0.0887302 0.00329119 0)
(0.0881574 0.00315148 0)
(0.0875973 0.00301081 0)
(0.0870507 0.0028696 0)
(0.0865182 0.00272825 0)
(0.0860005 0.00258714 0)
(0.085498 0.00244664 0)
(0.0850114 0.0023071 0)
(0.0845408 0.00216885 0)
(0.0840868 0.0020322 0)
(0.0836495 0.00189745 0)
(0.083229 0.00176485 0)
(0.0828255 0.00163466 0)
(0.0824391 0.00150709 0)
(0.0820697 0.00138236 0)
(0.0817171 0.00126065 0)
(0.0813813 0.00114211 0)
(0.0810621 0.00102688 0)
(0.0807592 0.000915097 0)
(0.0804723 0.000806853 0)
(0.0802011 0.000702237 0)
(0.0799452 0.000601318 0)
(0.0797042 0.000504148 0)
(0.0794776 0.000410767 0)
(0.079265 0.000321197 0)
(0.0790659 0.00023545 0)
(0.0788799 0.000153524 0)
(0.0787063 7.54051e-05 0)
(0.0785448 1.0704e-06 0)
(0.0783946 -6.95142e-05 0)
(0.0782554 -0.000136392 0)
(0.0781266 -0.000199613 0)
(0.0780076 -0.00025924 0)
(0.0778979 -0.000315333 0)
(0.0777971 -0.000367974 0)
(0.0777045 -0.000417228 0)
(0.0776197 -0.0004632 0)
(0.0775421 -0.000505946 0)
(0.0774714 -0.000545612 0)
(0.077407 -0.000582213 0)
(0.0773485 -0.000615973 0)
(0.0772955 -0.000646809 0)
(0.0772475 -0.000675106 0)
(0.0772041 -0.000700559 0)
(0.077165 -0.000723885 0)
(0.0771297 -0.000744307 0)
(0.0770982 -0.000763225 0)
(0.0770696 -0.000778896 0)
(0.0770444 -0.000794095 0)
(0.077021 -0.000805134 0)
(0.0770011 -0.000817524 0)
(0.0769818 -0.000823748 0)
(0.0769663 -0.000834638 0)
(0.0769498 -0.000835325 0)
(0.0769383 -0.000846632 0)
(0.0769233 -0.000840492 0)
(0.0769159 -0.000853876 0)
(0.0769018 -0.000842597 0)
(0.0768953 -0.000854163 0)
(0.0768841 -0.000839561 0)
(0.076874 -0.000850787 0)
(0.0768717 -0.000834652 0)
(0.112887 -0.00235149 0)
(0.112618 -0.00183934 0)
(0.112365 -0.00135747 0)
(0.11214 -0.00090206 0)
(0.111934 -0.000472796 0)
(0.111751 -6.84007e-05 0)
(0.111587 0.000312569 0)
(0.111442 0.000671119 0)
(0.111314 0.00100879 0)
(0.111203 0.00132662 0)
(0.111105 0.00162605 0)
(0.11102 0.00190812 0)
(0.110946 0.00217413 0)
(0.11088 0.00242506 0)
(0.110822 0.00266205 0)
(0.11077 0.002886 0)
(0.110722 0.00309786 0)
(0.110677 0.00329843 0)
(0.110633 0.0034885 0)
(0.110589 0.00366873 0)
(0.110543 0.00383976 0)
(0.110495 0.00400213 0)
(0.110443 0.00415632 0)
(0.110386 0.00430273 0)
(0.110323 0.00444173 0)
(0.110252 0.00457359 0)
(0.110174 0.00469855 0)
(0.110087 0.00481678 0)
(0.109989 0.00492841 0)
(0.109881 0.0050335 0)
(0.109762 0.0051321 0)
(0.109631 0.0052242 0)
(0.109487 0.00530974 0)
(0.10933 0.00538867 0)
(0.109159 0.00546088 0)
(0.108974 0.00552624 0)
(0.108775 0.00558462 0)
(0.108561 0.00563586 0)
(0.108332 0.00567981 0)
(0.108089 0.00571629 0)
(0.10783 0.00574516 0)
(0.107556 0.00576625 0)
(0.107266 0.00577943 0)
(0.106962 0.00578455 0)
(0.106644 0.00578151 0)
(0.106311 0.00577022 0)
(0.105964 0.00575063 0)
(0.105604 0.00572269 0)
(0.105231 0.00568642 0)
(0.104845 0.00564184 0)
(0.104449 0.00558903 0)
(0.104041 0.0055281 0)
(0.103623 0.0054592 0)
(0.103196 0.0053825 0)
(0.102761 0.00529823 0)
(0.102318 0.00520666 0)
(0.10187 0.00510807 0)
(0.101415 0.00500279 0)
(0.100957 0.00489119 0)
(0.100496 0.00477364 0)
(0.100032 0.00465056 0)
(0.0995671 0.00452239 0)
(0.0991023 0.00438956 0)
(0.0986384 0.00425256 0)
(0.0981766 0.00411185 0)
(0.0977177 0.00396792 0)
(0.0972627 0.00382125 0)
(0.0968125 0.00367233 0)
(0.096368 0.00352165 0)
(0.0959299 0.00336967 0)
(0.095499 0.00321686 0)
(0.0950761 0.00306367 0)
(0.0946617 0.00291054 0)
(0.0942564 0.00275789 0)
(0.0938607 0.00260612 0)
(0.0934751 0.00245561 0)
(0.0930999 0.00230672 0)
(0.0927355 0.00215978 0)
(0.0923822 0.0020151 0)
(0.09204 0.00187297 0)
(0.0917093 0.00173366 0)
(0.0913899 0.00159739 0)
(0.0910821 0.0014644 0)
(0.0907857 0.00133487 0)
(0.0905007 0.00120897 0)
(0.0902269 0.00108684 0)
(0.0899643 0.000968617 0)
(0.0897126 0.000854397 0)
(0.0894717 0.000744268 0)
(0.0892412 0.000638295 0)
(0.0890209 0.000536527 0)
(0.0888104 0.000438993 0)
(0.0886096 0.000345709 0)
(0.0884179 0.000256676 0)
(0.0882352 0.000171879 0)
(0.0880609 9.12923e-05 0)
(0.0878948 1.48762e-05 0)
(0.0877365 -5.74183e-05 0)
(0.0875856 -0.000125653 0)
(0.0874418 -0.000189894 0)
(0.0873046 -0.000250225 0)
(0.0871736 -0.000306724 0)
(0.0870487 -0.000359496 0)
(0.0869292 -0.00040862 0)
(0.0868151 -0.000454232 0)
(0.0867057 -0.000496395 0)
(0.0866011 -0.000535294 0)
(0.0865004 -0.000570939 0)