/*--------------------------------*- C++ -*----------------------------------*\
| =========                 |                                                 |
| \\      /  F ield         | OpenFOAM: The Open Source CFD Toolbox           |
|  \\    /   O peration     | Version:  4.1                                   |
|   \\  /    A nd           | Web:      www.OpenFOAM.org                      |
|    \\/     M anipulation  |                                                 |
\*---------------------------------------------------------------------------*/
FoamFile
{
    version     2.0;
    format      ascii;
    class       volScalarField;
    location    "3420";
    object      p;
}
// * * * * * * * * * * * * * * * * * * * * * * * * * * * * * * * * * * * * * //

dimensions      [1 -1 -2 0 0 0 0];

internalField   nonuniform List<scalar> 
1275
(
0.711995
0.711995
0.711994
0.711994
0.711993
0.711993
0.711992
0.711993
0.711992
0.711992
0.711992
0.711992
0.711992
0.711992
0.711992
0.711993
0.711993
0.711994
0.711995
0.711996
0.711996
0.711998
0.711999
0.712
0.712002
0.712004
0.712005
0.712007
0.71201
0.712012
0.712014
0.712017
0.71202
0.712023
0.712026
0.712029
0.712032
0.712036
0.71204
0.712044
0.712048
0.712052
0.712056
0.712061
0.712066
0.712071
0.712076
0.712081
0.712086
0.712092
0.712098
0.712104
0.71211
0.712117
0.712123
0.71213
0.712137
0.712144
0.712152
0.71216
0.712168
0.712176
0.712185
0.712194
0.712203
0.712213
0.712223
0.712234
0.712245
0.712257
0.712269
0.712282
0.712296
0.712311
0.712327
0.712345
0.712364
0.712384
0.712406
0.71243
0.712456
0.712484
0.712515
0.712549
0.712585
0.712624
0.712666
0.712712
0.71276
0.712811
0.712865
0.712921
0.712979
0.713039
0.7131
0.713161
0.713222
0.713282
0.713341
0.713397
0.713451
0.713501
0.713547
0.713589
0.713626
0.713658
0.713686
0.713708
0.713726
0.713739
0.713748
0.713752
0.713753
0.713751
0.713745
0.713737
0.713727
0.713716
0.713703
0.713689
0.713674
0.713659
0.711994
0.711994
0.711993
0.711994
0.711993
0.711993
0.711993
0.711993
0.711992
0.711993
0.711992
0.711993
0.711993
0.711993
0.711993
0.711994
0.711994
0.711995
0.711995
0.711996
0.711997
0.711998
0.712
0.712001
0.712003
0.712004
0.712006
0.712008
0.71201
0.712012
0.712015
0.712018
0.71202
0.712023
0.712026
0.71203
0.712033
0.712037
0.71204
0.712044
0.712048
0.712052
0.712057
0.712061
0.712066
0.712071
0.712076
0.712082
0.712087
0.712093
0.712098
0.712105
0.712111
0.712117
0.712124
0.712131
0.712138
0.712145
0.712153
0.71216
0.712169
0.712177
0.712186
0.712195
0.712204
0.712214
0.712224
0.712235
0.712246
0.712258
0.71227
0.712284
0.712298
0.712313
0.712329
0.712346
0.712364
0.712384
0.712406
0.71243
0.712455
0.712483
0.712513
0.712546
0.712582
0.712621
0.712662
0.712707
0.712755
0.712806
0.712859
0.712915
0.712973
0.713033
0.713093
0.713155
0.713216
0.713276
0.713335
0.713391
0.713445
0.713495
0.713541
0.713583
0.71362
0.713653
0.71368
0.713703
0.713721
0.713734
0.713743
0.713747
0.713748
0.713746
0.713741
0.713733
0.713723
0.713712
0.713699
0.713685
0.713671
0.713656
0.711997
0.711996
0.711996
0.711996
0.711994
0.711995
0.711993
0.711994
0.711993
0.711993
0.711992
0.711993
0.711992
0.711993
0.711993
0.711993
0.711994
0.711994
0.711995
0.711996
0.711997
0.711998
0.711999
0.712001
0.712002
0.712004
0.712006
0.712008
0.71201
0.712012
0.712015
0.712017
0.71202
0.712023
0.712026
0.712029
0.712033
0.712036
0.71204
0.712044
0.712048
0.712052
0.712057
0.712061
0.712066
0.712071
0.712076
0.712081
0.712087
0.712092
0.712098
0.712104
0.712111
0.712117
0.712124
0.71213
0.712138
0.712145
0.712152
0.71216
0.712168
0.712177
0.712185
0.712194
0.712204
0.712213
0.712224
0.712234
0.712245
0.712257
0.712269
0.712282
0.712296
0.712311
0.712327
0.712344
0.712362
0.712382
0.712403
0.712427
0.712452
0.712479
0.712509
0.712542
0.712577
0.712616
0.712657
0.712701
0.712749
0.7128
0.712853
0.712909
0.712967
0.713027
0.713087
0.713149
0.71321
0.71327
0.713329
0.713385
0.713439
0.713489
0.713535
0.713577
0.713614
0.713647
0.713674
0.713697
0.713714
0.713727
0.713736
0.71374
0.713741
0.713739
0.713734
0.713726
0.713716
0.713705
0.713692
0.713678
0.713664
0.71365
0.711993
0.711993
0.711992
0.711993
0.711992
0.711993
0.711992
0.711993
0.711992
0.711993
0.711992
0.711993
0.711993
0.711993
0.711993
0.711994
0.711994
0.711995
0.711995
0.711996
0.711997
0.711998
0.711999
0.712001
0.712002
0.712004
0.712006
0.712008
0.71201
0.712012
0.712015
0.712017
0.71202
0.712023
0.712026
0.712029
0.712033
0.712036
0.71204
0.712044
0.712048
0.712052
0.712057
0.712061
0.712066
0.712071
0.712076
0.712081
0.712087
0.712092
0.712098
0.712104
0.71211
0.712117
0.712124
0.71213
0.712138
0.712145
0.712152
0.71216
0.712168
0.712177
0.712185
0.712194
0.712204
0.712213
0.712223
0.712234
0.712245
0.712257
0.712269
0.712282
0.712295
0.71231
0.712325
0.712342
0.71236
0.712379
0.7124
0.712423
0.712447
0.712474
0.712504
0.712536
0.712571
0.712609
0.71265
0.712694
0.712741
0.712792
0.712845
0.7129
0.712958
0.713018
0.713078
0.713139
0.7132
0.71326
0.713318
0.713374
0.713427
0.713476
0.713522
0.713563
0.713599
0.713631
0.713657
0.713679
0.713696
0.713709
0.713717
0.713721
0.713722
0.713719
0.713714
0.713706
0.713697
0.713686
0.713674
0.71366
0.713647
0.713633
0.711999
0.711998
0.711996
0.711996
0.711994
0.711995
0.711993
0.711993
0.711992
0.711992
0.711991
0.711992
0.711991
0.711992
0.711992
0.711992
0.711993
0.711993
0.711994
0.711995
0.711996
0.711997
0.711998
0.712
0.712001
0.712003
0.712005
0.712007
0.712009
0.712011
0.712014
0.712016
0.712019
0.712022
0.712025
0.712029
0.712032
0.712036
0.712039
0.712043
0.712047
0.712052
0.712056
0.712061
0.712065
0.71207
0.712075
0.712081
0.712086
0.712092
0.712098
0.712104
0.71211
0.712116
0.712123
0.71213
0.712137
0.712144
0.712152
0.712159
0.712167
0.712176
0.712184
0.712193
0.712203
0.712212
0.712222
0.712233
0.712243
0.712255
0.712267
0.71228
0.712293
0.712307
0.712323
0.712339
0.712357
0.712376
0.712397
0.712419
0.712444
0.712471
0.7125
0.712532
0.712567
0.712605
0.712646
0.71269
0.712737
0.712787
0.71284
0.712896
0.712953
0.713012
0.713071
0.713131
0.713191
0.71325
0.713306
0.713361
0.713412
0.71346
0.713503
0.713542
0.713577
0.713607
0.713632
0.713652
0.713668
0.713679
0.713687
0.71369
0.71369
0.713688
0.713682
0.713675
0.713666
0.713655
0.713643
0.713631
0.713619
0.713606
0.711987
0.711989
0.711987
0.711991
0.711989
0.711992
0.71199
0.711992
0.71199
0.711991
0.711991
0.711991
0.711991
0.711992
0.711992
0.711992
0.711992
0.711993
0.711994
0.711995
0.711996
0.711997
0.711998
0.711999
0.712001
0.712003
0.712004
0.712006
0.712008
0.712011
0.712013
0.712016
0.712019
0.712022
0.712025
0.712028
0.712031
0.712035
0.712039
0.712043
0.712047
0.712051
0.712055
0.71206
0.712065
0.71207
0.712075
0.71208
0.712086
0.712091
0.712097
0.712103
0.712109
0.712116
0.712122
0.712129
0.712136
0.712144
0.712151
0.712159
0.712167
0.712175
0.712184
0.712192
0.712202
0.712211
0.712221
0.712231
0.712242
0.712254
0.712266
0.712278
0.712292
0.712306
0.712321
0.712337
0.712355
0.712374
0.712395
0.712418
0.712442
0.712469
0.712499
0.712531
0.712566
0.712604
0.712645
0.712689
0.712735
0.712785
0.712837
0.712892
0.712948
0.713005
0.713064
0.713122
0.713179
0.713235
0.713289
0.71334
0.713389
0.713433
0.713474
0.71351
0.713542
0.713569
0.713591
0.713609
0.713623
0.713633
0.713639
0.713641
0.713641
0.713638
0.713633
0.713625
0.713617
0.713607
0.713597
0.713586
0.713575
0.713563
0.711998
0.711998
0.711994
0.711995
0.711991
0.711992
0.711989
0.71199
0.711988
0.711989
0.711988
0.711989
0.711988
0.711989
0.711989
0.71199
0.71199
0.711991
0.711992
0.711993
0.711994
0.711995
0.711997
0.711998
0.712
0.712001
0.712003
0.712005
0.712008
0.71201
0.712012
0.712015
0.712018
0.712021
0.712024
0.712027
0.712031
0.712034
0.712038
0.712042
0.712046
0.71205
0.712055
0.712059
0.712064
0.712069
0.712074
0.71208
0.712085
0.712091
0.712097
0.712103
0.712109
0.712115
0.712122
0.712129
0.712136
0.712143
0.71215
0.712158
0.712166
0.712174
0.712183
0.712192
0.712201
0.71221
0.71222
0.712231
0.712242
0.712253
0.712265
0.712278
0.712291
0.712306
0.712321
0.712338
0.712356
0.712376
0.712397
0.71242
0.712445
0.712473
0.712503
0.712535
0.71257
0.712609
0.71265
0.712693
0.71274
0.712789
0.71284
0.712893
0.712947
0.713002
0.713058
0.713112
0.713166
0.713219
0.713269
0.713316
0.71336
0.7134
0.713436
0.713468
0.713495
0.713519
0.713538
0.713553
0.713564
0.713571
0.713575
0.713577
0.713576
0.713572
0.713567
0.713561
0.713553
0.713545
0.713536
0.713527
0.713518
0.713509
0.711967
0.711981
0.711975
0.711986
0.711982
0.711988
0.711986
0.711989
0.711988
0.711989
0.711989
0.71199
0.711989
0.71199
0.71199
0.711991
0.711991
0.711992
0.711992
0.711993
0.711994
0.711995
0.711997
0.711998
0.712
0.712001
0.712003
0.712005
0.712007
0.71201
0.712012
0.712015
0.712018
0.712021
0.712024
0.712027
0.712031
0.712034
0.712038
0.712042
0.712046
0.71205
0.712055
0.712059
0.712064
0.712069
0.712074
0.712079
0.712085
0.712091
0.712096
0.712102
0.712109
0.712115
0.712122
0.712129
0.712136
0.712143
0.71215
0.712158
0.712166
0.712175
0.712183
0.712192
0.712202
0.712211
0.712222
0.712232
0.712243
0.712255
0.712268
0.712281
0.712295
0.71231
0.712326
0.712344
0.712362
0.712383
0.712405
0.712428
0.712454
0.712483
0.712513
0.712546
0.712582
0.71262
0.712661
0.712704
0.71275
0.712797
0.712846
0.712897
0.712948
0.713
0.713051
0.713102
0.713151
0.713197
0.713242
0.713283
0.713321
0.713356
0.713386
0.713413
0.713435
0.713454
0.713469
0.71348
0.713489
0.713494
0.713496
0.713497
0.713495
0.713492
0.713488
0.713483
0.713477
0.71347
0.713463
0.713457
0.71345
0.713444
0.711991
0.711997
0.71199
0.711992
0.711987
0.711988
0.711986
0.711987
0.711985
0.711987
0.711986
0.711987
0.711987
0.711988
0.711988
0.711989
0.711989
0.71199
0.711991
0.711992
0.711993
0.711995
0.711996
0.711998
0.711999
0.712001
0.712003
0.712005
0.712007
0.71201
0.712012
0.712015
0.712018
0.712021
0.712024
0.712027
0.712031
0.712034
0.712038
0.712042
0.712046
0.712051
0.712055
0.71206
0.712065
0.712069
0.712075
0.71208
0.712086
0.712091
0.712097
0.712103
0.71211
0.712116
0.712123
0.71213
0.712137
0.712145
0.712153
0.712161
0.712169
0.712178
0.712187
0.712196
0.712206
0.712216
0.712227
0.712238
0.71225
0.712263
0.712276
0.71229
0.712305
0.712321
0.712339
0.712357
0.712377
0.712399
0.712422
0.712447
0.712474
0.712503
0.712535
0.712569
0.712604
0.712643
0.712683
0.712725
0.712769
0.712814
0.71286
0.712907
0.712954
0.713001
0.713047
0.713092
0.713134
0.713174
0.713212
0.713246
0.713278
0.713305
0.713329
0.71335
0.713367
0.713381
0.713392
0.7134
0.713406
0.713409
0.71341
0.71341
0.713409
0.713407
0.713403
0.7134
0.713396
0.713392
0.713388
0.713384
0.71338
0.713377
0.711888
0.711969
0.711964
0.711988
0.711983
0.711992
0.711989
0.711992
0.71199
0.711992
0.711991
0.711992
0.711991
0.711992
0.711991
0.711992
0.711992
0.711993
0.711993
0.711994
0.711995
0.711996
0.711998
0.711999
0.712001
0.712002
0.712004
0.712006
0.712008
0.712011
0.712013
0.712016
0.712019
0.712022
0.712025
0.712028
0.712032
0.712035
0.712039
0.712043
0.712047
0.712052
0.712056
0.712061
0.712065
0.712072
0.712076
0.712082
0.712088
0.712094
0.7121
0.712106
0.712113
0.71212
0.712127
0.712134
0.712142
0.71215
0.712158
0.712167
0.712176
0.712185
0.712195
0.712205
0.712216
0.712227
0.712239
0.712251
0.712264
0.712278
0.712293
0.712309
0.712325
0.712343
0.712362
0.712382
0.712404
0.712427
0.712452
0.712478
0.712507
0.712537
0.712569
0.712603
0.712638
0.712676
0.712715
0.712755
0.712796
0.712838
0.71288
0.712922
0.712964
0.713004
0.713044
0.713081
0.713116
0.713149
0.713179
0.713206
0.71323
0.713251
0.713269
0.713284
0.713296
0.713306
0.713313
0.713319
0.713322
0.713325
0.713326
0.713326
0.713325
0.713324
0.713323
0.713322
0.71332
0.713319
0.713318
0.713317
0.713316
0.713316
0.712246
0.712204
0.712197
0.712156
0.712143
0.7121
0.712085
0.712033
0.712023
0.711951
0.711968
0.711995
0.711988
0.711994
0.711988
0.711991
0.711988
0.711989
0.711988
0.711989
0.711988
0.711989
0.711989
0.71199
0.71199
0.711991
0.711991
0.711992
0.711993
0.711994
0.711995
0.711997
0.711998
0.711999
0.712001
0.712003
0.712005
0.712007
0.712009
0.712012
0.712014
0.712017
0.71202
0.712023
0.712026
0.71203
0.712034
0.712037
0.712041
0.712046
0.71205
0.712055
0.712059
0.712064
0.71207
)
;

boundaryField
{
    inlet
    {
        type            zeroGradient;
    }
    outlet
    {
        type            fixedValue;
        value           nonuniform 0();
    }
    walls
    {
        type            zeroGradient;
    }
    symwall
    {
        type            empty;
    }
    procBoundary0to1
    {
        type            processor;
        value           nonuniform List<scalar> 10(0.713644 0.713641 0.713635 0.713619 0.713593 0.713552 0.7135 0.713438 0.713374 0.713316);
    }
    procBoundary0to2
    {
        type            processor;
        value           nonuniform List<scalar> 
133
(
0.712075
0.712081
0.712087
0.712093
0.712099
0.712106
0.712113
0.71212
0.712127
0.712135
0.712143
0.712152
0.712161
0.71217
0.71218
0.71219
0.7122
0.712211
0.712223
0.712235
0.712248
0.712262
0.712276
0.712291
0.712306
0.712323
0.712341
0.71236
0.712379
0.7124
0.712423
0.712446
0.712471
0.712498
0.712525
0.712555
0.712585
0.712618
0.712651
0.712686
0.712722
0.712758
0.712795
0.712832
0.71287
0.712907
0.712943
0.712978
0.713011
0.713043
0.713073
0.7131
0.713125
0.713148
0.713168
0.713185
0.7132
0.713213
0.713223
0.713232
0.713238
0.713244
0.713248
0.713251
0.713253
0.713254
0.713256
0.713257
0.713257
0.713258
0.713259
0.71326
0.713261
0.713263
0.713265
0.713267
0.713269
0.712255
0.712207
0.7122
0.712157
0.712145
0.712101
0.712085
0.712035
0.712019
0.711951
0.711927
0.711978
0.711971
0.711994
0.711988
0.711997
0.711993
0.711997
0.711994
0.711996
0.711994
0.711995
0.711994
0.711994
0.711994
0.711994
0.711994
0.711995
0.711995
0.711996
0.711997
0.711998
0.712
0.712001
0.712003
0.712005
0.712006
0.712009
0.712011
0.712014
0.712016
0.712019
0.712022
0.712026
0.712029
0.712033
0.712037
0.712041
0.712045
0.71205
0.712055
0.71206
0.712065
0.712071
0.712075
0.712075
)
;
    }
}


// ************************************************************************* //
