/*--------------------------------*- C++ -*----------------------------------*\
| =========                 |                                                 |
| \\      /  F ield         | OpenFOAM: The Open Source CFD Toolbox           |
|  \\    /   O peration     | Version:  4.1                                   |
|   \\  /    A nd           | Web:      www.OpenFOAM.org                      |
|    \\/     M anipulation  |                                                 |
\*---------------------------------------------------------------------------*/
FoamFile
{
    version     2.0;
    format      ascii;
    class       volVectorField;
    location    "1770";
    object      U;
}
// * * * * * * * * * * * * * * * * * * * * * * * * * * * * * * * * * * * * * //

dimensions      [0 1 -1 0 0 0 0];

internalField   nonuniform List<vector> 
1275
(
(-8.51265e-07 2.91972e-05 0)
(3.23642e-06 4.01011e-05 0)
(-6.29574e-05 4.78798e-05 0)
(-0.000126171 3.88841e-05 0)
(-0.000214827 3.75319e-05 0)
(-0.000301529 2.55288e-05 0)
(-0.000391797 2.29697e-05 0)
(-0.000489031 1.42272e-05 0)
(-0.000581351 1.25331e-05 0)
(-0.000684292 7.36067e-06 0)
(-0.000779401 6.67638e-06 0)
(-0.000884651 4.11676e-06 0)
(-0.000982065 4.21026e-06 0)
(-0.00108761 3.28043e-06 0)
(-0.00118653 3.83767e-06 0)
(-0.00129136 3.79485e-06 0)
(-0.00139102 4.54876e-06 0)
(-0.00149468 4.9151e-06 0)
(-0.00159444 5.68974e-06 0)
(-0.00169673 6.1926e-06 0)
(-0.00179611 6.89393e-06 0)
(-0.00189694 7.39428e-06 0)
(-0.00199561 7.98464e-06 0)
(-0.00209498 8.42127e-06 0)
(-0.00219275 8.89609e-06 0)
(-0.00229069 9.24902e-06 0)
(-0.00238747 9.62082e-06 0)
(-0.00248408 9.88956e-06 0)
(-0.0025799 1.01787e-05 0)
(-0.00267532 1.03701e-05 0)
(-0.0027703 1.06005e-05 0)
(-0.00286476 1.07223e-05 0)
(-0.00295911 1.09198e-05 0)
(-0.00305291 1.09772e-05 0)
(-0.00314691 1.11695e-05 0)
(-0.00324047 1.11644e-05 0)
(-0.00333449 1.13801e-05 0)
(-0.00342837 1.13125e-05 0)
(-0.0035229 1.15773e-05 0)
(-0.00361777 1.14502e-05 0)
(-0.00371343 1.17789e-05 0)
(-0.0038101 1.16073e-05 0)
(-0.00390774 1.19924e-05 0)
(-0.00400716 1.18123e-05 0)
(-0.00410791 1.22199e-05 0)
(-0.00421121 1.20883e-05 0)
(-0.00431655 1.24774e-05 0)
(-0.00442526 1.24554e-05 0)
(-0.00453697 1.28138e-05 0)
(-0.00465304 1.29147e-05 0)
(-0.00477334 1.32638e-05 0)
(-0.00489924 1.34812e-05 0)
(-0.00503095 1.38627e-05 0)
(-0.00516985 1.42085e-05 0)
(-0.00531653 1.4694e-05 0)
(-0.00547249 1.52403e-05 0)
(-0.00563873 1.5979e-05 0)
(-0.00581695 1.69286e-05 0)
(-0.00600859 1.82416e-05 0)
(-0.00621567 2.00434e-05 0)
(-0.0064401 2.25654e-05 0)
(-0.00668425 2.60636e-05 0)
(-0.00695047 3.08862e-05 0)
(-0.00724139 3.74189e-05 0)
(-0.00755953 4.61004e-05 0)
(-0.00790739 5.73568e-05 0)
(-0.008287 7.15646e-05 0)
(-0.0086998 8.89579e-05 0)
(-0.00914612 0.000109553 0)
(-0.00962489 0.00013305 0)
(-0.0101331 0.00015878 0)
(-0.0106653 0.000185665 0)
(-0.0112138 0.000212259 0)
(-0.0117678 0.000236837 0)
(-0.0123141 0.000257541 0)
(-0.0128373 0.00027256 0)
(-0.0133202 0.000280317 0)
(-0.0137447 0.000279621 0)
(-0.0140926 0.000269774 0)
(-0.0143464 0.000250612 0)
(-0.0144903 0.000222496 0)
(-0.0145109 0.000186248 0)
(-0.0143972 0.000143062 0)
(-0.0141417 9.43968e-05 0)
(-0.0137403 4.1877e-05 0)
(-0.013192 -1.28072e-05 0)
(-0.0124994 -6.798e-05 0)
(-0.0116681 -0.000122046 0)
(-0.0107065 -0.000173543 0)
(-0.00962577 -0.000221178 0)
(-0.00843889 -0.000263856 0)
(-0.00716077 -0.000300692 0)
(-0.00580756 -0.000331025 0)
(-0.0043963 -0.000354416 0)
(-0.00294448 -0.000370642 0)
(-0.00146966 -0.000379687 0)
(1.09463e-05 -0.000381724 0)
(0.00148079 -0.000377098 0)
(0.0029243 -0.0003663 0)
(0.00432714 -0.000349946 0)
(0.0056764 -0.000328742 0)
(0.00696075 -0.000303466 0)
(0.00817059 -0.000274933 0)
(0.00929803 -0.000243972 0)
(0.0103369 -0.000211399 0)
(0.0112829 -0.000178003 0)
(0.0121331 -0.000144516 0)
(0.0128862 -0.000111609 0)
(0.0135426 -7.98716e-05 0)
(0.0141034 -4.98145e-05 0)
(0.0145714 -2.18509e-05 0)
(0.0149498 3.68527e-06 0)
(0.015243 2.65637e-05 0)
(0.0154559 4.66222e-05 0)
(0.0155937 6.37989e-05 0)
(0.0156621 7.80847e-05 0)
(0.0156671 8.95529e-05 0)
(0.0156145 9.83257e-05 0)
(0.0155101 0.00010456 0)
(0.0153599 0.000108493 0)
(0.0151691 0.000110305 0)
(0.0149435 0.000110312 0)
(-1.84948e-05 -3.41983e-05 0)
(-0.000105472 1.91093e-05 0)
(-0.000322334 8.14991e-05 0)
(-0.00054095 0.000109991 0)
(-0.000795849 0.000139898 0)
(-0.00105146 0.000149119 0)
(-0.0013076 0.000167765 0)
(-0.00157622 0.000174037 0)
(-0.00183385 0.000186378 0)
(-0.00210755 0.000190388 0)
(-0.00236719 0.000197286 0)
(-0.00264074 0.000199012 0)
(-0.00290086 0.000202086 0)
(-0.00317103 0.000202169 0)
(-0.00342968 0.000202923 0)
(-0.00369468 0.000202004 0)
(-0.00395025 0.000201461 0)
(-0.00420923 0.000199996 0)
(-0.00446057 0.000198776 0)
(-0.00471319 0.000197056 0)
(-0.00495962 0.00019552 0)
(-0.00520589 0.000193725 0)
(-0.00544712 0.000192085 0)
(-0.00568725 0.000190326 0)
(-0.00592326 0.000188714 0)
(-0.00615764 0.000187068 0)
(-0.00638869 0.000185577 0)
(-0.00661783 0.000184101 0)
(-0.00684437 0.00018281 0)
(-0.00706892 0.000181557 0)
(-0.00729159 0.000180542 0)
(-0.00751236 0.000179565 0)
(-0.007732 0.000178912 0)
(-0.00794996 0.00017827 0)
(-0.00816757 0.000178076 0)
(-0.00838393 0.000177844 0)
(-0.0086007 0.000178214 0)
(-0.00881691 0.000178497 0)
(-0.00903427 0.000179535 0)
(-0.00925207 0.000180493 0)
(-0.0094717 0.000182293 0)
(-0.00969314 0.000184158 0)
(-0.00991714 0.000186826 0)
(-0.0101446 0.00018989 0)
(-0.0103756 0.00019364 0)
(-0.0106118 0.000198182 0)
(-0.010853 0.000203444 0)
(-0.0111013 0.000209735 0)
(-0.0113565 0.00021695 0)
(-0.011621 0.000225405 0)
(-0.0118947 0.000235097 0)
(-0.0121801 0.000246303 0)
(-0.0124774 0.000259136 0)
(-0.0127891 0.000273854 0)
(-0.0131159 0.000290664 0)
(-0.0134598 0.00030983 0)
(-0.0138221 0.000331621 0)
(-0.0142044 0.00035631 0)
(-0.0146079 0.000384181 0)
(-0.0150337 0.000415474 0)
(-0.0154824 0.0004504 0)
(-0.015954 0.000489052 0)
(-0.0164479 0.000531397 0)
(-0.0169624 0.000577162 0)
(-0.0174946 0.000625791 0)
(-0.0180403 0.000676319 0)
(-0.0185934 0.00072732 0)
(-0.0191462 0.000776806 0)
(-0.019689 0.000822226 0)
(-0.0202103 0.000860469 0)
(-0.0206968 0.000887981 0)
(-0.0211336 0.000900927 0)
(-0.0215047 0.000895458 0)
(-0.0217933 0.000867994 0)
(-0.0219826 0.000815549 0)
(-0.0220561 0.000736003 0)
(-0.0219984 0.000628331 0)
(-0.0217954 0.000492713 0)
(-0.0214352 0.000330554 0)
(-0.0209081 0.000144399 0)
(-0.020207 -6.22283e-05 0)
(-0.0193277 -0.000285045 0)
(-0.0182689 -0.000519242 0)
(-0.017032 -0.000759725 0)
(-0.0156214 -0.00100133 0)
(-0.0140443 -0.001239 0)
(-0.01231 -0.00146795 0)
(-0.0104306 -0.00168379 0)
(-0.00841985 -0.00188261 0)
(-0.00629339 -0.00206104 0)
(-0.00406824 -0.0022163 0)
(-0.0017625 -0.00234625 0)
(0.000604997 -0.00244936 0)
(0.00301501 -0.00252474 0)
(0.00544825 -0.00257212 0)
(0.00788573 -0.00259178 0)
(0.010309 -0.00258458 0)
(0.0127006 -0.0025518 0)
(0.015044 -0.00249519 0)
(0.0173242 -0.00241681 0)
(0.0195274 -0.00231898 0)
(0.0216416 -0.00220422 0)
(0.0236564 -0.00207516 0)
(0.0255631 -0.00193446 0)
(0.0273546 -0.00178478 0)
(0.0290254 -0.00162868 0)
(0.0305718 -0.0014686 0)
(0.0319911 -0.00130682 0)
(0.0332823 -0.00114541 0)
(0.0344454 -0.000986244 0)
(0.0354817 -0.00083096 0)
(0.0363931 -0.000680957 0)
(0.0371825 -0.000537416 0)
(0.0378536 -0.000401261 0)
(0.0384103 -0.000273253 0)
(0.0388574 -0.000153856 0)
(0.0391996 -4.34924e-05 0)
(0.0394421 5.78114e-05 0)
(0.0395903 0.000149859 0)
(0.0396496 0.000233021 0)
(0.0396252 0.000307258 0)
(0.0395232 0.000373149 0)
(-3.72587e-05 0.000161356 0)
(-0.000229627 0.000349985 0)
(-0.000592264 0.000492814 0)
(-0.000964552 0.000514421 0)
(-0.00137866 0.000555465 0)
(-0.00179375 0.00053621 0)
(-0.00220676 0.000552327 0)
(-0.00262876 0.000537636 0)
(-0.00303327 0.000546008 0)
(-0.00344806 0.00053711 0)
(-0.00384139 0.000540306 0)
(-0.00424246 0.000534122 0)
(-0.00462322 0.00053389 0)
(-0.00500833 0.0005287 0)
(-0.00537595 0.000526342 0)
(-0.00574492 0.000521352 0)
(-0.00609933 0.000517694 0)
(-0.00645277 0.000512617 0)
(-0.00679417 0.000508186 0)
(-0.00713301 0.000502991 0)
(-0.00746183 0.000498153 0)
(-0.00778707 0.000492929 0)
(-0.0081039 0.000487963 0)
(-0.00841658 0.000482849 0)
(-0.00872217 0.000477986 0)
(-0.00902336 0.000473138 0)
(-0.00931858 0.000468587 0)
(-0.00960939 0.000464163 0)
(-0.00989525 0.000460126 0)
(-0.0101768 0.000456285 0)
(-0.0104545 0.000452972 0)
(-0.0107281 0.000449873 0)
(-0.0109987 0.000447517 0)
(-0.0112657 0.000445323 0)
(-0.0115307 0.000444189 0)
(-0.0117926 0.000443075 0)
(-0.0120534 0.000443463 0)
(-0.0123118 0.000443638 0)
(-0.0125699 0.00044587 0)
(-0.0128267 0.000447618 0)
(-0.0130838 0.00045201 0)
(-0.0133409 0.00045575 0)
(-0.0135988 0.000462589 0)
(-0.0138582 0.000468919 0)
(-0.014119 0.000478515 0)
(-0.0143826 0.000488148 0)
(-0.0146486 0.000500986 0)
(-0.0149184 0.000514655 0)
(-0.0151916 0.000531338 0)
(-0.0154694 0.000549665 0)
(-0.0157514 0.000570965 0)
(-0.0160386 0.000594584 0)
(-0.0163305 0.000621292 0)
(-0.0166274 0.000650808 0)
(-0.0169287 0.000683547 0)
(-0.0172342 0.000719338 0)
(-0.0175426 0.000758304 0)
(-0.0178527 0.000800174 0)
(-0.0181624 0.000844724 0)
(-0.0184692 0.000891383 0)
(-0.0187697 0.000939452 0)
(-0.0190598 0.000987849 0)
(-0.0193341 0.00103523 0)
(-0.0195866 0.00107979 0)
(-0.0198099 0.00111939 0)
(-0.0199958 0.0011514 0)
(-0.0201349 0.00117277 0)
(-0.0202169 0.00118006 0)
(-0.0202307 0.00116952 0)
(-0.020165 0.0011372 0)
(-0.020008 0.00107911 0)
(-0.0197482 0.000991468 0)
(-0.0193744 0.000870937 0)
(-0.0188764 0.000714885 0)
(-0.0182451 0.000521662 0)
(-0.0174726 0.000290798 0)
(-0.0165528 2.31588e-05 0)
(-0.0154811 -0.000279015 0)
(-0.0142549 -0.000612145 0)
(-0.0128732 -0.000971456 0)
(-0.0113371 -0.00135118 0)
(-0.00964923 -0.00174481 0)
(-0.00781426 -0.00214535 0)
(-0.0058385 -0.00254563 0)
(-0.00372995 -0.00293846 0)
(-0.00149823 -0.00331694 0)
(0.000845538 -0.00367457 0)
(0.00328883 -0.00400541 0)
(0.00581787 -0.00430424 0)
(0.00841782 -0.00456659 0)
(0.011073 -0.00478885 0)
(0.013767 -0.0049683 0)
(0.0164833 -0.00510315 0)
(0.019205 -0.0051925 0)
(0.0219155 -0.00523635 0)
(0.0245987 -0.00523556 0)
(0.0272392 -0.00519175 0)
(0.0298224 -0.00510724 0)
(0.0323352 -0.00498497 0)
(0.0347655 -0.00482832 0)
(0.0371027 -0.00464109 0)
(0.0393377 -0.00442728 0)
(0.0414631 -0.00419108 0)
(0.0434728 -0.00393665 0)
(0.0453622 -0.00366812 0)
(0.0471282 -0.00338945 0)
(0.0487689 -0.00310436 0)
(0.0502837 -0.00281631 0)
(0.0516728 -0.00252843 0)
(0.0529377 -0.0022435 0)
(0.0540802 -0.00196393 0)
(0.0551032 -0.00169182 0)
(0.0560097 -0.00142886 0)
(0.0568034 -0.00117645 0)
(0.0574882 -0.000935658 0)
(0.0580682 -0.000707239 0)
(0.0585476 -0.000491798 0)
(0.0589307 -0.000289483 0)
(0.0592219 -0.000100619 0)
(0.0594254 7.52234e-05 0)
(0.0595452 0.000237803 0)
(0.0595861 0.000388015 0)
(-9.12429e-05 0.000217227 0)
(-0.000438832 0.000560814 0)
(-0.000998313 0.000805838 0)
(-0.00153679 0.000885527 0)
(-0.00208327 0.000964452 0)
(-0.0026234 0.000970281 0)
(-0.00312887 0.00100269 0)
(-0.00364441 0.000997121 0)
(-0.0041193 0.00100821 0)
(-0.00460487 0.000997568 0)
(-0.00505366 0.000995318 0)
(-0.0055085 0.000981391 0)
(-0.00593269 0.000971772 0)
(-0.00635806 0.000956228 0)
(-0.00675848 0.000943055 0)
(-0.00715638 0.000927003 0)
(-0.00753393 0.000912408 0)
(-0.00790652 0.000896512 0)
(-0.00826231 0.000881641 0)
(-0.00861171 0.000866298 0)
(-0.00894702 0.000851779 0)
(-0.0092752 0.000837242 0)
(-0.00959138 0.000823443 0)
(-0.00990014 0.000809894 0)
(-0.0101986 0.000797057 0)
(-0.0104896 0.000784642 0)
(-0.0107716 0.000772958 0)
(-0.0110463 0.000761811 0)
(-0.0113132 0.000751457 0)
(-0.011573 0.000741708 0)
(-0.011826 0.000732875 0)
(-0.0120721 0.00072466 0)
(-0.0123124 0.000717562 0)
(-0.0125459 0.000711025 0)
(-0.0127746 0.000705915 0)
(-0.0129964 0.000701215 0)
(-0.0132142 0.000698365 0)
(-0.0134253 0.000695704 0)
(-0.0136329 0.000695372 0)
(-0.013834 0.000695047 0)
(-0.0140316 0.000697409 0)
(-0.0142231 0.000699883 0)
(-0.0144106 0.000704999 0)
(-0.0145925 0.000710868 0)
(-0.0147694 0.00071888 0)
(-0.0149409 0.000728551 0)
(-0.0151062 0.000740113 0)
(-0.0152657 0.000753551 0)
(-0.0154174 0.00076892 0)
(-0.015562 0.000786174 0)
(-0.0156969 0.00080538 0)
(-0.015822 0.000826361 0)
(-0.0159348 0.000849122 0)
(-0.0160343 0.000873344 0)
(-0.0161173 0.000898858 0)
(-0.016182 0.000925148 0)
(-0.0162247 0.000951764 0)
(-0.0162423 0.0009779 0)
(-0.0162304 0.00100271 0)
(-0.0161846 0.00102497 0)
(-0.0160997 0.00104333 0)
(-0.0159701 0.00105602 0)
(-0.0157894 0.00106104 0)
(-0.015551 0.00105598 0)
(-0.0152476 0.00103814 0)
(-0.0148717 0.00100443 0)
(-0.0144155 0.000951466 0)
(-0.0138711 0.000875607 0)
(-0.0132308 0.000773073 0)
(-0.012487 0.000640057 0)
(-0.0116327 0.000472955 0)
(-0.0106618 0.000268562 0)
(-0.00956889 2.43489e-05 0)
(-0.00834963 -0.000261306 0)
(-0.00700096 -0.000588867 0)
(-0.00552105 -0.000957488 0)
(-0.00390931 -0.0013649 0)
(-0.00216645 -0.00180742 0)
(-0.000294357 -0.00228 0)
(0.00170389 -0.00277644 0)
(0.0038241 -0.00328956 0)
(0.00606094 -0.00381146 0)
(0.008408 -0.00433383 0)
(0.0108577 -0.00484815 0)
(0.0134014 -0.00534595 0)
(0.0160293 -0.00581908 0)
(0.0187303 -0.00625985 0)
(0.0214924 -0.00666121 0)
(0.0243026 -0.00701695 0)
(0.0271469 -0.00732175 0)
(0.0300108 -0.00757136 0)
(0.0328792 -0.00776262 0)
(0.0357369 -0.00789357 0)
(0.0385687 -0.00796338 0)
(0.0413597 -0.00797242 0)
(0.0440958 -0.00792217 0)
(0.0467636 -0.00781514 0)
(0.0493507 -0.00765472 0)
(0.0518462 -0.00744511 0)
(0.0542403 -0.00719113 0)
(0.056525 -0.00689802 0)
(0.0586936 -0.00657134 0)
(0.0607409 -0.00621676 0)
(0.0626634 -0.00583996 0)
(0.0644587 -0.00544644 0)
(0.0661259 -0.00504146 0)
(0.0676653 -0.00462991 0)
(0.0690781 -0.00421631 0)
(0.0703665 -0.00380468 0)
(0.0715334 -0.00339856 0)
(0.0725823 -0.00300103 0)
(0.0735171 -0.00261462 0)
(0.0743422 -0.00224145 0)
(0.075062 -0.00188313 0)
(0.0756813 -0.00154097 0)
(0.0762048 -0.00121571 0)
(0.0766371 -0.000908075 0)
(0.0769828 -0.000617992 0)
(0.0772464 -0.0003459 0)
(0.0774322 -9.09373e-05 0)
(0.0775441 0.000146474 0)
(0.0775867 0.000367852 0)
(-0.000113923 0.000712801 0)
(-0.00056232 0.00127288 0)
(-0.00123766 0.00161436 0)
(-0.00188575 0.0016064 0)
(-0.00252787 0.00165862 0)
(-0.00314853 0.0015824 0)
(-0.00371569 0.0015824 0)
(-0.00427357 0.00152497 0)
(-0.00477308 0.00151012 0)
(-0.00526585 0.00146679 0)
(-0.0057081 0.00144436 0)
(-0.00614316 0.00140816 0)
(-0.00653758 0.00138222 0)
(-0.00692369 0.00134984 0)
(-0.0072776 0.00132274 0)
(-0.00762222 0.00129276 0)
(-0.0079411 0.00126576 0)
(-0.00825004 0.00123762 0)
(-0.00853803 0.00121141 0)
(-0.0088158 0.00118493 0)
(-0.00907611 0.00115988 0)
(-0.00932616 0.00113504 0)
(-0.00956135 0.00111137 0)
(-0.00978638 0.0010882 0)
(-0.00999848 0.00106608 0)
(-0.0102006 0.00104462 0)
(-0.0103912 0.00102418 0)
(-0.010572 0.0010045 0)
(-0.0107425 0.000985855 0)
(-0.0109032 0.000967998 0)
(-0.0110544 0.00095127 0)
(-0.0111956 0.000935276 0)
(-0.0113281 0.000920616 0)
(-0.0114504 0.000906497 0)
(-0.0115644 0.00089409 0)
(-0.0116676 0.000881814 0)
(-0.0117628 0.000871873 0)
(-0.0118465 0.000861369 0)
(-0.0119219 0.000854096 0)
(-0.0119853 0.000845293 0)
(-0.0120393 0.00084077 0)
(-0.0120808 0.000833709 0)
(-0.0121111 0.00083172 0)
(-0.0121282 0.000826671 0)
(-0.0121317 0.000826626 0)
(-0.0121203 0.000823927 0)
(-0.0120934 0.000825274 0)
(-0.0120488 0.000824948 0)
(-0.0119857 0.000827006 0)
(-0.0119017 0.000828143 0)
(-0.0117949 0.000830275 0)
(-0.0116632 0.000831546 0)
(-0.0115037 0.000832593 0)
(-0.0113138 0.000832167 0)
(-0.0110901 0.000830146 0)
(-0.0108293 0.000825386 0)
(-0.0105273 0.000817209 0)
(-0.0101802 0.000804289 0)
(-0.0097833 0.000785422 0)
(-0.00933189 0.000758908 0)
(-0.00882071 0.000722981 0)
(-0.00824447 0.000675442 0)
(-0.00759746 0.000613928 0)
(-0.00687398 0.000535691 0)
(-0.0060681 0.000437801 0)
(-0.00517406 0.000317039 0)
(-0.00418616 0.000170076 0)
(-0.00309906 -6.52494e-06 0)
(-0.00190779 -0.000216111 0)
(-0.000608027 -0.000461851 0)
(0.00080385 -0.000746499 0)
(0.00233058 -0.00107225 0)
(0.00397396 -0.00144047 0)
(0.00573477 -0.00185157 0)
(0.00761278 -0.0023048 0)
(0.00960671 -0.00279812 0)
(0.0117143 -0.00332816 0)
(0.0139325 -0.00389023 0)
(0.0162572 -0.00447837 0)
(0.0186834 -0.0050855 0)
(0.0212056 -0.00570361 0)
(0.0238169 -0.00632394 0)
(0.0265099 -0.00693728 0)
(0.0292759 -0.00753414 0)
(0.0321054 -0.00810507 0)
(0.0349877 -0.00864085 0)
(0.0379112 -0.00913275 0)
(0.0408632 -0.00957277 0)
(0.0438305 -0.0099538 0)
(0.0467988 -0.0102699 0)
(0.0497538 -0.0105162 0)
(0.0526809 -0.0106895 0)
(0.0555655 -0.0107877 0)
(0.0583937 -0.0108104 0)
(0.0611521 -0.0107586 0)
(0.0638283 -0.0106346 0)
(0.0664111 -0.0104419 0)
(0.0688906 -0.0101852 0)
(0.0712584 -0.00987008 0)
(0.0735076 -0.00950277 0)
(0.075633 -0.00909007 0)
(0.0776309 -0.00863904 0)
(0.0794989 -0.00815684 0)
(0.0812363 -0.00765055 0)
(0.0828434 -0.00712697 0)
(0.0843218 -0.00659254 0)
(0.0856738 -0.0060532 0)
(0.0869026 -0.00551434 0)
(0.0880123 -0.0049807 0)
(0.0890071 -0.00445643 0)
(0.0898918 -0.00394501 0)
(0.0906713 -0.00344931 0)
(0.0913508 -0.00297162 0)
(0.0919352 -0.00251367 0)
(0.0924298 -0.00207674 0)
(0.0928394 -0.00166155 0)
(0.093169 -0.00126865 0)
(0.0934229 -0.000897877 0)
(0.0936057 -0.000549429 0)
(0.0937216 -0.000222196 0)
(0.0937741 8.34342e-05 0)
(0.0937677 0.000369683 0)
(-0.000259156 0.000856162 0)
(-0.000902821 0.00165502 0)
(-0.00172414 0.00210475 0)
(-0.00244369 0.0021545 0)
(-0.00303713 0.00221657 0)
(-0.00361647 0.00214644 0)
(-0.00406947 0.00212634 0)
(-0.00453255 0.0020499 0)
(-0.00489957 0.00200389 0)
(-0.00527257 0.0019322 0)
(-0.00557631 0.00187787 0)
(-0.00587883 0.00181262 0)
(-0.00613119 0.00175777 0)
(-0.00637725 0.00169883 0)
(-0.00658597 0.00164654 0)
(-0.00678556 0.00159321 0)
(-0.0069564 0.00154443 0)
(-0.00711673 0.00149595 0)
(-0.00725416 0.0014508 0)
(-0.00738054 0.00140654 0)
(-0.00748807 0.00136485 0)
(-0.00758445 0.00132428 0)
(-0.00766481 0.0012858 0)
(-0.00773409 0.00124851 0)
(-0.00778934 0.00121295 0)
(-0.00783356 0.0011786 0)
(-0.00786515 0.00114574 0)
(-0.00788564 0.00111404 0)
(-0.00789447 0.00108366 0)
(-0.00789189 0.00105435 0)
(-0.00787832 0.00102626 0)
(-0.00785273 0.000999078 0)
(-0.00781658 0.000973122 0)
(-0.00776737 0.000947792 0)
(-0.0077079 0.000923836 0)
(-0.00763387 0.000900019 0)
(-0.00754967 0.000877923 0)
(-0.00744898 0.000855231 0)
(-0.00733783 0.000834764 0)
(-0.00720805 0.000812821 0)
(-0.00706667 0.000793465 0)
(-0.00690484 0.000772092 0)
(-0.00672873 0.000752759 0)
(-0.00653111 0.000732068 0)
(-0.00631472 0.000711323 0)
(-0.00607592 0.000690773 0)
(-0.00581303 0.000669074 0)
(-0.00552557 0.000646388 0)
(-0.00520943 0.000622268 0)
(-0.00486423 0.000595996 0)
(-0.00448572 0.000567524 0)
(-0.00407251 0.000535748 0)
(-0.00362048 0.000500481 0)
(-0.00312723 0.000460481 0)
(-0.00258858 0.000415209 0)
(-0.00200129 0.000363288 0)
(-0.00136096 0.000303756 0)
(-0.00066368 0.000235013 0)
(9.5238e-05 0.000155645 0)
(0.0009202 6.37346e-05 0)
(0.00181611 -4.26063e-05 0)
(0.00278766 -0.000165674 0)
(0.00383981 -0.000307819 0)
(0.00497726 -0.000471714 0)
(0.00620471 -0.000660094 0)
(0.00752653 -0.000875898 0)
(0.0089468 -0.00112205 0)
(0.0104691 -0.00140148 0)
(0.0120964 -0.00171695 0)
(0.0138311 -0.00207092 0)
(0.0156748 -0.00246539 0)
(0.017628 -0.00290175 0)
(0.0196907 -0.00338054 0)
(0.0218616 -0.00390131 0)
(0.0241385 -0.00446247 0)
(0.0265184 -0.00506118 0)
(0.0289971 -0.00569324 0)
(0.0315696 -0.00635316 0)
(0.03423 -0.00703416 0)
(0.0369712 -0.0077283 0)
(0.0397853 -0.00842667 0)
(0.0426634 -0.00911955 0)
(0.0455957 -0.0097967 0)
(0.0485711 -0.0104476 0)
(0.0515777 -0.0110617 0)
(0.0546028 -0.0116289 0)
(0.0576328 -0.0121394 0)
(0.0606534 -0.0125845 0)
(0.0636503 -0.0129565 0)
(0.0666086 -0.0132492 0)
(0.069514 -0.0134575 0)
(0.0723526 -0.0135785 0)
(0.0751111 -0.0136107 0)
(0.0777774 -0.0135543 0)
(0.0803407 -0.0134114 0)
(0.0827917 -0.0131855 0)
(0.0851227 -0.0128818 0)
(0.0873274 -0.0125064 0)
(0.0894017 -0.0120666 0)
(0.0913428 -0.0115702 0)
(0.0931496 -0.0110258 0)
(0.0948225 -0.0104417 0)
(0.096363 -0.0098267 0)
(0.0977741 -0.00918893 0)
(0.0990595 -0.00853629 0)
(0.100224 -0.0078761 0)
(0.101272 -0.00721501 0)
(0.102209 -0.00655896 0)
(0.103042 -0.00591309 0)
(0.103776 -0.00528183 0)
(0.104416 -0.0046688 0)
(0.10497 -0.00407694 0)
(0.105442 -0.0035085 0)
(0.105837 -0.00296508 0)
(0.106161 -0.00244786 0)
(0.106419 -0.00195724 0)
(0.106614 -0.00149372 0)
(0.106751 -0.00105659 0)
(0.106834 -0.000646182 0)
(0.106866 -0.000260532 0)
(0.106851 9.94954e-05 0)
(0.10679 0.000437363 0)
(-0.000256618 0.0019286 0)
(-0.000874146 0.00276629 0)
(-0.00162888 0.003207 0)
(-0.00227813 0.00292904 0)
(-0.00277275 0.00286163 0)
(-0.00321648 0.00261325 0)
(-0.0035139 0.00251196 0)
(-0.00378773 0.00234853 0)
(-0.00395609 0.00225385 0)
(-0.00411068 0.00213542 0)
(-0.00419253 0.00204949 0)
(-0.00426386 0.00195512 0)
(-0.00428443 0.00187754 0)
(-0.0042954 0.00179768 0)
(-0.0042699 0.00172747 0)
(-0.00423503 0.00165743 0)
(-0.00417305 0.00159355 0)
(-0.00410176 0.00153078 0)
(-0.00400954 0.0014723 0)
(-0.00390808 0.00141525 0)
(-0.00378978 0.00136139 0)
(-0.00366226 0.00130901 0)
(-0.00352061 0.0012591 0)
(-0.00336967 0.00121061 0)
(-0.00320635 0.00116406 0)
(-0.00303353 0.00111882 0)
(-0.00284937 0.00107511 0)
(-0.00265527 0.00103257 0)
(-0.00245039 0.000991239 0)
(-0.00223483 0.000950858 0)
(-0.00200869 0.000911461 0)
(-0.00177071 0.000872705 0)
(-0.00152213 0.000834821 0)
(-0.00126008 0.000797082 0)
(-0.000987196 0.000760329 0)
(-0.000698683 0.000722858 0)
(-0.000398894 0.0006869 0)
(-8.08375e-05 0.000648743 0)
(0.000249415 0.000613275 0)
(0.000600672 0.000573253 0)
(0.000966167 0.000537856 0)
(0.00135482 0.000494767 0)
(0.00176159 0.00045842 0)
(0.00219305 0.000411622 0)
(0.00264737 0.000371856 0)
(0.00313035 0.000321359 0)
(0.00363865 0.000275061 0)
(0.00417995 0.000220662 0)
(0.00475279 0.000165561 0)
(0.00536237 0.000103851 0)
(0.00600997 3.82604e-05 0)
(0.00669943 -3.42687e-05 0)
(0.0074336 -0.000113133 0)
(0.00821597 -0.000200368 0)
(0.0090502 -0.000296392 0)
(0.00993995 -0.000402983 0)
(0.0108893 -0.000521176 0)
(0.0119023 -0.000652817 0)
(0.0129832 -0.00079942 0)
(0.0141361 -0.000963045 0)
(0.0153656 -0.00114563 0)
(0.0166758 -0.0013495 0)
(0.0180709 -0.00157695 0)
(0.019555 -0.00183053 0)
(0.0211318 -0.00211277 0)
(0.0228046 -0.00242631 0)
(0.0245765 -0.00277362 0)
(0.0264496 -0.00315714 0)
(0.0284258 -0.00357893 0)
(0.0305058 -0.00404071 0)
(0.0326896 -0.00454361 0)
(0.034976 -0.00508804 0)
(0.037363 -0.0056735 0)
(0.0398474 -0.0062985 0)
(0.0424247 -0.00696033 0)
(0.0450892 -0.00765505 0)
(0.0478343 -0.00837738 0)
(0.050652 -0.00912073 0)
(0.053533 -0.00987724 0)
(0.0564671 -0.0106379 0)
(0.059443 -0.0113928 0)
(0.0624483 -0.012131 0)
(0.0654697 -0.0128415 0)
(0.068493 -0.0135126 0)
(0.0715037 -0.0141332 0)
(0.0744864 -0.0146922 0)
(0.0774261 -0.0151796 0)
(0.0803076 -0.0155864 0)
(0.0831162 -0.0159051 0)
(0.085838 -0.0161298 0)
(0.0884601 -0.0162564 0)
(0.090971 -0.0162828 0)
(0.0933606 -0.016209 0)
(0.0956207 -0.0160367 0)
(0.097745 -0.0157697 0)
(0.099729 -0.0154135 0)
(0.10157 -0.0149748 0)
(0.103268 -0.0144617 0)
(0.104824 -0.0138831 0)
(0.106241 -0.0132484 0)
(0.107522 -0.0125676 0)
(0.108675 -0.0118505 0)
(0.109703 -0.0111066 0)
(0.110616 -0.0103452 0)
(0.111421 -0.00957481 0)
(0.112124 -0.00880319 0)
(0.112734 -0.0080373 0)
(0.113259 -0.00728318 0)
(0.113707 -0.00654593 0)
(0.114083 -0.00582982 0)
(0.114395 -0.00513819 0)
(0.114649 -0.00447364 0)
(0.11485 -0.00383801 0)
(0.115003 -0.00323252 0)
(0.115114 -0.00265783 0)
(0.115185 -0.00211405 0)
(0.115221 -0.00160105 0)
(0.115224 -0.00111799 0)
(0.115197 -0.000664526 0)
(0.115141 -0.000238625 0)
(0.11506 0.000159264 0)
(0.114955 0.000533241 0)
(-0.000749067 0.00189772 0)
(-0.00160578 0.00296485 0)
(-0.00198264 0.00346233 0)
(-0.00225184 0.00326334 0)
(-0.002123 0.00314021 0)
(-0.00209957 0.00287343 0)
(-0.00185459 0.00269877 0)
(-0.00168564 0.00248959 0)
(-0.00139456 0.00233443 0)
(-0.00114388 0.00217162 0)
(-0.000823218 0.00204028 0)
(-0.000522299 0.0019095 0)
(-0.000178843 0.00179803 0)
(0.000155667 0.00168956 0)
(0.000517603 0.00159359 0)
(0.000876233 0.00150111 0)
(0.00125354 0.00141713 0)
(0.00163061 0.00133644 0)
(0.00202112 0.00126176 0)
(0.00241321 0.00118997 0)
(0.00281558 0.00112257 0)
(0.00322079 0.0010576 0)
(0.00363444 0.000995862 0)
(0.00405197 0.000936136 0)
(0.004477 0.000878773 0)
(0.00490696 0.000823022 0)
(0.00534411 0.000768932 0)
(0.0057874 0.000716076 0)
(0.006238 0.000664285 0)
(0.00669625 0.000613347 0)
(0.00716221 0.000562953 0)
(0.00763778 0.000512984 0)
(0.00812155 0.000463125 0)
(0.00861758 0.000413133 0)
(0.00912218 0.000362967 0)
(0.00964264 0.000311837 0)
(0.0101717 0.000260526 0)
(0.0107214 0.000206954 0)
(0.0112794 0.000153595 0)
(0.0118638 9.61315e-05 0)
(0.0124564 3.94372e-05 0)
(0.013081 -2.30734e-05 0)
(0.0137164 -8.57097e-05 0)
(0.0143857 -0.000153183 0)
(0.0150756 -0.000226471 0)
(0.0157938 -0.000300101 0)
(0.0165456 -0.000380743 0)
(0.0173282 -0.00046756 0)
(0.0181488 -0.000560174 0)
(0.0190068 -0.000661117 0)
(0.0199076 -0.000769488 0)
(0.0208527 -0.000887824 0)
(0.0218465 -0.00101595 0)
(0.0228916 -0.00115604 0)
(0.0239922 -0.00130862 0)
(0.0251516 -0.0014757 0)
(0.026374 -0.00165836 0)
(0.0276628 -0.0018586 0)
(0.0290222 -0.00207791 0)
(0.0304558 -0.00231841 0)
(0.0319675 -0.00258192 0)
(0.0335609 -0.00287066 0)
(0.0352393 -0.00318668 0)
(0.0370056 -0.00353225 0)
(0.0388626 -0.00390945 0)
(0.0408123 -0.00432041 0)
(0.042856 -0.00476699 0)
(0.0449943 -0.00525089 0)
(0.0472271 -0.00577333 0)
(0.049553 -0.00633508 0)
(0.0519696 -0.00693624 0)
(0.0544733 -0.00757611 0)
(0.0570591 -0.00825303 0)
(0.0597208 -0.00896426 0)
(0.0624508 -0.00970584 0)
(0.0652399 -0.0104725 0)
(0.0680778 -0.0112578 0)
(0.0709529 -0.0120538 0)
(0.0738521 -0.0128513 0)
(0.0767615 -0.0136404 0)
(0.0796662 -0.01441 0)
(0.0825506 -0.0151483 0)
(0.0853987 -0.0158435 0)
(0.088194 -0.0164837 0)
(0.0909204 -0.0170573 0)
(0.0935621 -0.0175535 0)
(0.096104 -0.0179629 0)
(0.098532 -0.0182771 0)
(0.100834 -0.0184897 0)
(0.102998 -0.0185961 0)
(0.105015 -0.0185938 0)
(0.10688 -0.0184826 0)
(0.108587 -0.0182642 0)
(0.110134 -0.0179426 0)
(0.111522 -0.0175237 0)
(0.112752 -0.0170149 0)
(0.113829 -0.0164251 0)
(0.11476 -0.0157644 0)
(0.115552 -0.0150433 0)
(0.116215 -0.0142727 0)
(0.116758 -0.0134638 0)
(0.117193 -0.012627 0)
(0.11753 -0.0117727 0)
(0.117781 -0.0109102 0)
(0.117956 -0.010048 0)
(0.118066 -0.00919389 0)
(0.118121 -0.00835427 0)
(0.118131 -0.00753476 0)
(0.118103 -0.00673988 0)
(0.118045 -0.00597324 0)
(0.117963 -0.00523752 0)
(0.117864 -0.00453463 0)
(0.117752 -0.00386575 0)
(0.11763 -0.00323138 0)
(0.117503 -0.00263167 0)
(0.117372 -0.00206596 0)
(0.117239 -0.00153389 0)
(0.117106 -0.00103364 0)
(0.116973 -0.000565212 0)
(0.116841 -0.000124972 0)
(0.11671 0.000285122 0)
(0.116581 0.000672056 0)
(-0.000301656 0.0044407 0)
(-0.00021622 0.00403992 0)
(0.000304593 0.00396057 0)
(0.000881512 0.00306977 0)
(0.00166239 0.00275376 0)
(0.00238568 0.00233212 0)
(0.00320818 0.00211072 0)
(0.00397231 0.00187276 0)
(0.00478854 0.00171106 0)
(0.00555875 0.00154902 0)
(0.00635625 0.00142186 0)
(0.00711945 0.00129775 0)
(0.00789617 0.00119242 0)
(0.00864754 0.00109065 0)
(0.00940466 0.00100026 0)
(0.0101429 0.000913179 0)
(0.0108826 0.000833581 0)
(0.0116082 0.000756838 0)
(0.012333 0.000685247 0)
(0.0130472 0.000616012 0)
(0.0137599 0.000550388 0)
(0.0144648 0.000486624 0)
(0.0151682 0.000425353 0)
(0.0158665 0.000365465 0)
(0.0165637 0.000307188 0)
(0.0172581 0.000249835 0)
(0.0179526 0.000193342 0)
(0.0186466 0.000137322 0)
(0.019342 8.14842e-05 0)
(0.0200394 2.56542e-05 0)
(0.0207397 -3.06256e-05 0)
(0.0214448 -8.74253e-05 0)
(0.0221543 -0.000145237 0)
(0.022872 -0.000204269 0)
(0.0235955 -0.00026469 0)
(0.0243314 -0.000327445 0)
(0.0250739 -0.000391481 0)
(0.0258345 -0.000459888 0)
(0.0266017 -0.000528305 0)
(0.0273943 -0.000605059 0)
(0.0281923 -0.000678125 0)
(0.0290247 -0.000767001 0)
(0.0298614 -0.000844579 0)
(0.0307408 -0.000949494 0)
(0.0316271 -0.00103444 0)
(0.032557 -0.00115009 0)
(0.03351 -0.00125838 0)
(0.0345009 -0.00138327 0)
(0.035526 -0.00151276 0)
(0.0365911 -0.00165536 0)
(0.0376982 -0.00180756 0)
(0.0388505 -0.00197337 0)
(0.0400515 -0.00215212 0)
(0.0413039 -0.00234638 0)
(0.0426116 -0.00255664 0)
(0.0439774 -0.00278502 0)
(0.0454048 -0.0030326 0)
(0.046897 -0.00330138 0)
(0.0484571 -0.00359279 0)
(0.0500878 -0.00390882 0)
(0.0517921 -0.00425112 0)
(0.053572 -0.00462165 0)
(0.0554295 -0.00502209 0)
(0.057366 -0.00545427 0)
(0.0593823 -0.0059197 0)
(0.0614782 -0.00641985 0)
(0.0636529 -0.00695576 0)
(0.0659044 -0.00752819 0)
(0.0682299 -0.00813729 0)
(0.070625 -0.00878265 0)
(0.0730842 -0.00946306 0)
(0.0756005 -0.0101764 0)
(0.0781655 -0.0109196 0)
(0.0807695 -0.0116884 0)
(0.083401 -0.0124773 0)
(0.0860473 -0.0132797 0)
(0.0886946 -0.0140876 0)
(0.0913277 -0.014892 0)
(0.0939306 -0.0156827 0)
(0.0964865 -0.0164488 0)
(0.0989784 -0.0171786 0)
(0.101389 -0.0178602 0)
(0.103701 -0.0184816 0)
(0.105899 -0.0190313 0)
(0.107966 -0.0194983 0)
(0.10989 -0.0198728 0)
(0.111658 -0.0201467 0)
(0.113259 -0.0203133 0)
(0.114686 -0.0203683 0)
(0.115935 -0.0203093 0)
(0.117001 -0.0201365 0)
(0.117886 -0.0198523 0)
(0.118593 -0.0194611 0)
(0.119127 -0.0189696 0)
(0.119495 -0.018386 0)
(0.119709 -0.0177199 0)
(0.119779 -0.0169822 0)
(0.11972 -0.0161841 0)
(0.119546 -0.0153374 0)
(0.119272 -0.0144539 0)
(0.118914 -0.0135449 0)
(0.118487 -0.0126214 0)
(0.118007 -0.0116935 0)
(0.117487 -0.0107701 0)
(0.116942 -0.0098592 0)
(0.116383 -0.00896763 0)
(0.115821 -0.00810096 0)
(0.115266 -0.00726365 0)
(0.114725 -0.00645907 0)
(0.114206 -0.00568964 0)
(0.113713 -0.00495686 0)
(0.113252 -0.00426154 0)
(0.112824 -0.0036038 0)
(0.112432 -0.00298325 0)
(0.112077 -0.00239908 0)
(0.111758 -0.00185011 0)
(0.111477 -0.00133505 0)
(0.111231 -0.000852019 0)
(0.111019 -0.00039992 0)
(0.11084 2.42453e-05 0)
(0.110691 0.000420045 0)
(0.110572 0.000793529 0)
(0.00230373 0.00216477 0)
(0.00438569 0.00223254 0)
(0.00781799 0.00229211 0)