/*--------------------------------*- C++ -*----------------------------------*\
| =========                 |                                                 |
| \\      /  F ield         | OpenFOAM: The Open Source CFD Toolbox           |
|  \\    /   O peration     | Version:  4.1                                   |
|   \\  /    A nd           | Web:      www.OpenFOAM.org                      |
|    \\/     M anipulation  |                                                 |
\*---------------------------------------------------------------------------*/
FoamFile
{
    version     2.0;
    format      ascii;
    class       volVectorField;
    location    "3870";
    object      U;
}
// * * * * * * * * * * * * * * * * * * * * * * * * * * * * * * * * * * * * * //

dimensions      [0 1 -1 0 0 0 0];

internalField   nonuniform List<vector> 
1275
(
(-8.41505e-07 2.90983e-05 0)
(3.16783e-06 3.99931e-05 0)
(-6.30736e-05 4.77714e-05 0)
(-0.000126351 3.87941e-05 0)
(-0.000215048 3.74514e-05 0)
(-0.000301783 2.54703e-05 0)
(-0.000392076 2.29241e-05 0)
(-0.000489314 1.4201e-05 0)
(-0.000581637 1.25189e-05 0)
(-0.000684556 7.36133e-06 0)
(-0.000779637 6.68686e-06 0)
(-0.000884832 4.13809e-06 0)
(-0.000982178 4.23926e-06 0)
(-0.00108762 3.31748e-06 0)
(-0.00118642 3.8809e-06 0)
(-0.00129109 3.84449e-06 0)
(-0.00139054 4.60378e-06 0)
(-0.00149396 4.97577e-06 0)
(-0.00159341 5.7555e-06 0)
(-0.00169534 6.26382e-06 0)
(-0.00179428 6.97027e-06 0)
(-0.0018946 7.47624e-06 0)
(-0.00199266 8.07189e-06 0)
(-0.00209131 8.51444e-06 0)
(-0.00218823 8.99468e-06 0)
(-0.00228519 9.35385e-06 0)
(-0.00238083 9.73094e-06 0)
(-0.0024761 1.00061e-05 0)
(-0.00257039 1.02999e-05 0)
(-0.00266403 1.04976e-05 0)
(-0.00275696 1.07313e-05 0)
(-0.00284906 1.08585e-05 0)
(-0.00294069 1.10568e-05 0)
(-0.00303138 1.11176e-05 0)
(-0.00312181 1.13068e-05 0)
(-0.00321129 1.13012e-05 0)
(-0.00330066 1.15081e-05 0)
(-0.00338919 1.14331e-05 0)
(-0.00347766 1.16816e-05 0)
(-0.00356558 1.15362e-05 0)
(-0.00365336 1.18388e-05 0)
(-0.00374103 1.16337e-05 0)
(-0.00382845 1.19808e-05 0)
(-0.00391623 1.17494e-05 0)
(-0.00400375 1.21056e-05 0)
(-0.00409203 1.19068e-05 0)
(-0.00418029 1.22329e-05 0)
(-0.00426962 1.21328e-05 0)
(-0.00435931 1.24167e-05 0)
(-0.00445039 1.24303e-05 0)
(-0.00454231 1.26921e-05 0)
(-0.00463598 1.2809e-05 0)
(-0.00473107 1.30804e-05 0)
(-0.00482838 1.32906e-05 0)
(-0.00492777 1.36031e-05 0)
(-0.00502998 1.39068e-05 0)
(-0.00513507 1.42903e-05 0)
(-0.00524373 1.47004e-05 0)
(-0.00535621 1.51881e-05 0)
(-0.0054732 1.57326e-05 0)
(-0.00559514 1.63697e-05 0)
(-0.00572277 1.70998e-05 0)
(-0.00585668 1.79577e-05 0)
(-0.0059977 1.89637e-05 0)
(-0.00614659 2.01633e-05 0)
(-0.00630431 2.16015e-05 0)
(-0.00647177 2.33467e-05 0)
(-0.00665004 2.54771e-05 0)
(-0.00684017 2.80955e-05 0)
(-0.00704331 3.13204e-05 0)
(-0.00726058 3.52927e-05 0)
(-0.0074931 4.01662e-05 0)
(-0.00774189 4.61039e-05 0)
(-0.00800782 5.32614e-05 0)
(-0.00829147 6.17708e-05 0)
(-0.00859307 7.17138e-05 0)
(-0.00891227 8.30951e-05 0)
(-0.00924801 9.58102e-05 0)
(-0.00959834 0.00010962 0)
(-0.00996024 0.000124128 0)
(-0.0103294 0.000138777 0)
(-0.0107004 0.000152862 0)
(-0.0110661 0.000165557 0)
(-0.0114184 0.000175972 0)
(-0.0117478 0.000183214 0)
(-0.0120439 0.000186463 0)
(-0.0122959 0.00018504 0)
(-0.0124927 0.000178465 0)
(-0.0126234 0.000166498 0)
(-0.0126778 0.000149158 0)
(-0.0126469 0.000126722 0)
(-0.0125232 9.96979e-05 0)
(-0.0123009 6.87924e-05 0)
(-0.011976 3.48629e-05 0)
(-0.011547 -1.13188e-06 0)
(-0.0110142 -3.81821e-05 0)
(-0.0103803 -7.52726e-05 0)
(-0.00964958 -0.000111425 0)
(-0.00882861 -0.000145729 0)
(-0.00792535 -0.000177374 0)
(-0.00694921 -0.000205665 0)
(-0.00591073 -0.000230041 0)
(-0.00482129 -0.000250077 0)
(-0.00369286 -0.000265493 0)
(-0.00253768 -0.00027614 0)
(-0.00136803 -0.000282013 0)
(-0.000195951 -0.000283215 0)
(0.000966926 -0.000279973 0)
(0.00210968 -0.000272591 0)
(0.00322213 -0.000261474 0)
(0.00429514 -0.000247057 0)
(0.00532051 -0.000229859 0)
(0.00629133 -0.000210375 0)
(0.00720164 -0.000189173 0)
(0.00804694 -0.000166744 0)
(0.00882354 -0.000143644 0)
(0.00952925 -0.000120312 0)
(0.0101626 -9.7233e-05 0)
(0.0107233 -7.47798e-05 0)
(0.011212 -5.33007e-05 0)
(0.0116298 -3.31307e-05 0)
(0.0119792 -1.44202e-05 0)
(-1.84914e-05 -3.40326e-05 0)
(-0.000105543 1.93534e-05 0)
(-0.000322425 8.17256e-05 0)
(-0.000541074 0.000110197 0)
(-0.000795965 0.000140055 0)
(-0.00105153 0.000149242 0)
(-0.00130759 0.000167841 0)
(-0.00157607 0.000174076 0)
(-0.00183352 0.000186371 0)
(-0.00210696 0.000190341 0)
(-0.00236628 0.00019719 0)
(-0.00263942 0.000198867 0)
(-0.00289903 0.000201884 0)
(-0.00316858 0.000201904 0)
(-0.00342651 0.000202587 0)
(-0.00369063 0.000201587 0)
(-0.00394517 0.000200951 0)
(-0.00420293 0.00019938 0)
(-0.00445285 0.000198037 0)
(-0.00470381 0.000196178 0)
(-0.00494833 0.000194481 0)
(-0.00519239 0.000192503 0)
(-0.00543106 0.000190652 0)
(-0.00566826 0.000188654 0)
(-0.00590091 0.000186768 0)
(-0.00613145 0.000184811 0)
(-0.00635811 0.000182964 0)
(-0.00658225 0.000181086 0)
(-0.00680311 0.000179333 0)
(-0.00702121 0.000177561 0)
(-0.00723656 0.000175952 0)
(-0.00744903 0.000174307 0)
(-0.00765929 0.000172888 0)
(-0.00786665 0.000171388 0)
(-0.00807229 0.000170212 0)
(-0.00827513 0.000168877 0)
(-0.0084767 0.000167992 0)
(-0.00867575 0.000166858 0)
(-0.00887385 0.000166295 0)
(-0.00906994 0.000165431 0)
(-0.00926524 0.000165189 0)
(-0.00945932 0.000164714 0)
(-0.00965265 0.000164771 0)
(-0.00984569 0.000164838 0)
(-0.0100381 0.000165233 0)
(-0.0102312 0.000165948 0)
(-0.010424 0.000166882 0)
(-0.0106184 0.000168255 0)
(-0.0108132 0.000169882 0)
(-0.0110103 0.000171988 0)
(-0.0112088 0.000174453 0)
(-0.0114103 0.00017744 0)
(-0.0116143 0.000180914 0)
(-0.0118223 0.000184982 0)
(-0.012034 0.000189673 0)
(-0.0122507 0.000195067 0)
(-0.0124725 0.000201234 0)
(-0.0127006 0.000208249 0)
(-0.0129352 0.000216204 0)
(-0.0131775 0.000225183 0)
(-0.0134279 0.000235294 0)
(-0.0136874 0.000246629 0)
(-0.0139565 0.000259305 0)
(-0.0142362 0.000273418 0)
(-0.0145269 0.000289076 0)
(-0.0148293 0.000306363 0)
(-0.0151437 0.000325354 0)
(-0.0154702 0.000346084 0)
(-0.0158086 0.000368548 0)
(-0.0161586 0.000392672 0)
(-0.0165189 0.000418298 0)
(-0.0168881 0.000445151 0)
(-0.0172639 0.000472813 0)
(-0.0176431 0.00050069 0)
(-0.0180219 0.00052798 0)
(-0.0183952 0.000553652 0)
(-0.0187571 0.000576426 0)
(-0.0191005 0.000594781 0)
(-0.0194173 0.000606973 0)
(-0.0196985 0.000611091 0)
(-0.0199342 0.000605131 0)
(-0.0201139 0.000587103 0)
(-0.0202268 0.000555156 0)
(-0.0202617 0.000507708 0)
(-0.020208 0.00044358 0)
(-0.0200552 0.000362104 0)
(-0.0197939 0.000263207 0)
(-0.0194159 0.000147454 0)
(-0.018914 1.6049e-05 0)
(-0.0182831 -0.000129204 0)
(-0.0175194 -0.000285979 0)
(-0.0166214 -0.000451524 0)
(-0.0155893 -0.000622782 0)
(-0.0144254 -0.000796513 0)
(-0.0131338 -0.000969413 0)
(-0.0117207 -0.00113823 0)
(-0.0101938 -0.00129985 0)
(-0.00856225 -0.00145141 0)
(-0.00683688 -0.00159033 0)
(-0.00502951 -0.00171439 0)
(-0.00315292 -0.00182176 0)
(-0.00122059 -0.00191102 0)
(0.000753504 -0.00198117 0)
(0.00275519 -0.00203163 0)
(0.00477031 -0.00206224 0)
(0.00678491 -0.0020732 0)
(0.00878549 -0.00206508 0)
(0.0107591 -0.00203876 0)
(0.0126938 -0.00199541 0)
(0.0145782 -0.00193641 0)
(0.0164022 -0.00186332 0)
(0.0181566 -0.00177782 0)
(0.0198336 -0.00168173 0)
(0.0214263 -0.0015768 0)
(0.0229293 -0.00146493 0)
(0.0243377 -0.00134778 0)
(0.0256485 -0.00122721 0)
(0.026859 -0.0011046 0)
(0.0279681 -0.000981728 0)
(0.0289752 -0.000859588 0)
(0.0298807 -0.000739801 0)
(0.0306856 -0.00062305 0)
(-3.72453e-05 0.0001613 0)
(-0.000229643 0.000349952 0)
(-0.000592222 0.000492733 0)
(-0.000964433 0.000514341 0)
(-0.00137838 0.000555313 0)
(-0.00179324 0.000536021 0)
(-0.00220594 0.000552048 0)
(-0.0026275 0.000537283 0)
(-0.00303151 0.000545543 0)
(-0.00344564 0.00053653 0)
(-0.00383821 0.000539578 0)
(-0.00423835 0.00053323 0)
(-0.00461803 0.000532803 0)
(-0.00500187 0.000527391 0)
(-0.00536803 0.000524777 0)
(-0.00573529 0.000519496 0)
(-0.00608774 0.000515504 0)
(-0.00643893 0.000510047 0)
(-0.00677776 0.000505184 0)
(-0.00711366 0.0004995 0)
(-0.00743913 0.000494107 0)
(-0.00776058 0.000488256 0)
(-0.00807312 0.00048258 0)
(-0.00838095 0.000476666 0)
(-0.00868106 0.000470899 0)
(-0.0089761 0.000465035 0)
(-0.00926438 0.000459335 0)
(-0.00954743 0.000453625 0)
(-0.00982457 0.000448134 0)
(-0.0100964 0.000442669 0)
(-0.0103632 0.00043752 0)
(-0.0106247 0.000432375 0)
(-0.0108817 0.000427707 0)
(-0.0111337 0.000422941 0)
(-0.0113819 0.0004189 0)
(-0.0116252 0.000414558 0)
(-0.0118654 0.000411303 0)
(-0.012101 0.000407427 0)
(-0.0123339 0.000405107 0)
(-0.0125628 0.000401774 0)
(-0.0127892 0.000400495 0)
(-0.0130126 0.000397875 0)
(-0.0132334 0.000397657 0)
(-0.0134521 0.000396058 0)
(-0.0136684 0.000396882 0)
(-0.0138834 0.000396695 0)
(-0.0140964 0.000398665 0)
(-0.0143087 0.00040022 0)
(-0.0145197 0.000403489 0)
(-0.0147305 0.000406938 0)
(-0.0149404 0.000411804 0)
(-0.0151506 0.000417302 0)
(-0.0153607 0.000424112 0)
(-0.0155713 0.000431878 0)
(-0.0157823 0.000440984 0)
(-0.0159942 0.000451289 0)
(-0.0162068 0.000463027 0)
(-0.0164204 0.000476158 0)
(-0.0166348 0.000490829 0)
(-0.0168501 0.000507031 0)
(-0.0170659 0.000524843 0)
(-0.0172819 0.000544235 0)
(-0.0174974 0.000565205 0)
(-0.0177117 0.00058765 0)
(-0.0179238 0.000611447 0)
(-0.0181322 0.000636359 0)
(-0.0183352 0.00066208 0)
(-0.0185307 0.000688166 0)
(-0.0187161 0.000714049 0)
(-0.0188882 0.000738994 0)
(-0.0190433 0.000762095 0)
(-0.0191772 0.000782244 0)
(-0.019285 0.000798133 0)
(-0.019361 0.000808236 0)
(-0.0193991 0.000810825 0)
(-0.0193926 0.000803976 0)
(-0.0193342 0.000785613 0)
(-0.0192164 0.000753547 0)
(-0.0190313 0.000705552 0)
(-0.0187708 0.000639449 0)
(-0.0184273 0.000553216 0)
(-0.0179929 0.000445101 0)
(-0.0174608 0.000313752 0)
(-0.0168244 0.000158333 0)
(-0.0160781 -2.13635e-05 0)
(-0.0152175 -0.00022484 0)
(-0.0142391 -0.000450843 0)
(-0.0131406 -0.000697357 0)
(-0.0119213 -0.000961638 0)
(-0.0105815 -0.00124029 0)
(-0.00912316 -0.00152936 0)
(-0.00754935 -0.0018245 0)
(-0.00586462 -0.00212105 0)
(-0.0040748 -0.00241428 0)
(-0.00218694 -0.00269942 0)
(-0.000209224 -0.00297191 0)
(0.00184908 -0.00322744 0)
(0.00397779 -0.00346207 0)
(0.0061659 -0.00367236 0)
(0.00840175 -0.00385536 0)
(0.0106732 -0.00400874 0)
(0.0129678 -0.00413075 0)
(0.0152729 -0.00422027 0)
(0.0175759 -0.00427681 0)
(0.0198646 -0.00430045 0)
(0.022127 -0.00429184 0)
(0.0243517 -0.00425214 0)
(0.026528 -0.00418298 0)
(0.0286462 -0.00408633 0)
(0.0306972 -0.00396457 0)
(0.0326731 -0.0038202 0)
(0.034567 -0.003656 0)
(0.0363732 -0.00347477 0)
(0.0380865 -0.00327942 0)
(0.0397036 -0.00307274 0)
(0.0412213 -0.00285751 0)
(0.042638 -0.00263637 0)
(0.0439523 -0.00241171 0)
(0.0451644 -0.00218598 0)
(0.0462743 -0.00196095 0)
(0.0472833 -0.00173887 0)
(0.0481928 -0.00152085 0)
(-9.11682e-05 0.000217432 0)
(-0.000438597 0.000561067 0)
(-0.000997775 0.000805961 0)
(-0.00153594 0.000885533 0)
(-0.00208204 0.000964239 0)
(-0.0026217 0.000969877 0)
(-0.00312661 0.00100203 0)
(-0.00364145 0.00099623 0)
(-0.00411554 0.00100704 0)
(-0.00460015 0.000996111 0)
(-0.00504785 0.000993532 0)
(-0.00550142 0.000979246 0)
(-0.00592418 0.000969221 0)
(-0.00634791 0.000953224 0)
(-0.00674648 0.000939541 0)
(-0.00714229 0.000922919 0)
(-0.00751751 0.00090768 0)
(-0.00788749 0.000891064 0)
(-0.00824036 0.000875383 0)
(-0.00858652 0.000859133 0)
(-0.00891823 0.000843597 0)
(-0.00924242 0.000827924 0)
(-0.00955419 0.000812852 0)
(-0.00985809 0.000797885 0)
(-0.0101512 0.000783462 0)
(-0.0104363 0.000769284 0)
(-0.0107118 0.00075563 0)
(-0.0109795 0.000742297 0)
(-0.0112387 0.000729507 0)
(-0.0114901 0.00071706 0)
(-0.011734 0.000705221 0)
(-0.0119702 0.000693689 0)
(-0.0121998 0.000682898 0)
(-0.0124217 0.000672298 0)
(-0.0126379 0.000662669 0)
(-0.0128465 0.00065301 0)
(-0.01305 0.000644662 0)
(-0.013246 0.00063597 0)
(-0.0134375 0.000628994 0)
(-0.0136216 0.000621365 0)
(-0.0138015 0.000615754 0)
(-0.0139745 0.000609437 0)
(-0.014143 0.000605054 0)
(-0.0143054 0.000600457 0)
(-0.0144626 0.000597213 0)
(-0.0146146 0.00059462 0)
(-0.0147607 0.000592978 0)
(-0.0149021 0.000592191 0)
(-0.0150373 0.000592325 0)
(-0.0151675 0.000593358 0)
(-0.0152913 0.000595385 0)
(-0.0154096 0.000598343 0)
(-0.0155209 0.000602353 0)
(-0.0156259 0.000607321 0)
(-0.0157232 0.000613349 0)
(-0.0158129 0.000620327 0)
(-0.0158937 0.000628305 0)
(-0.0159652 0.000637148 0)
(-0.016026 0.000646832 0)
(-0.0160752 0.000657171 0)
(-0.0161111 0.000668038 0)
(-0.0161325 0.000679162 0)
(-0.0161371 0.000690276 0)
(-0.0161231 0.000700972 0)
(-0.0160879 0.0007108 0)
(-0.0160289 0.000719157 0)
(-0.015943 0.000725356 0)
(-0.0158268 0.000728537 0)
(-0.0156766 0.000727717 0)
(-0.0154883 0.000721726 0)
(-0.0152574 0.000709242 0)
(-0.0149793 0.000688749 0)
(-0.0146489 0.00065857 0)
(-0.0142609 0.000616853 0)
(-0.0138098 0.000561609 0)
(-0.0132901 0.000490732 0)
(-0.0126963 0.000402057 0)
(-0.0120228 0.000293413 0)
(-0.0112644 0.000162717 0)
(-0.0104162 8.05908e-06 0)
(-0.00947387 -0.000172176 0)
(-0.00843347 -0.000379196 0)
(-0.00729191 -0.000613679 0)
(-0.00604687 -0.000875663 0)
(-0.0046969 -0.00116445 0)
(-0.00324149 -0.00147857 0)
(-0.0016811 -0.0018157 0)
(-1.71364e-05 -0.00217275 0)
(0.00174798 -0.00254585 0)
(0.00361089 -0.00293049 0)
(0.00556726 -0.00332161 0)
(0.00761185 -0.00371378 0)
(0.00973848 -0.0041013 0)
(0.0119401 -0.00447842 0)
(0.0142089 -0.00483946 0)
(0.0165361 -0.00517894 0)
(0.0189124 -0.00549177 0)
(0.0213276 -0.00577334 0)
(0.0237712 -0.0060196 0)
(0.0262322 -0.0062272 0)
(0.0286991 -0.00639346 0)
(0.0311605 -0.00651653 0)
(0.033605 -0.00659531 0)
(0.0360213 -0.00662948 0)
(0.0383985 -0.0066195 0)
(0.0407263 -0.00656654 0)
(0.0429949 -0.00647242 0)
(0.0451953 -0.00633955 0)
(0.0473196 -0.00617083 0)
(0.0493605 -0.00596955 0)
(0.0513122 -0.0057393 0)
(0.0531694 -0.00548385 0)
(0.0549283 -0.00520711 0)
(0.0565858 -0.0049129 0)
(0.0581399 -0.00460517 0)
(0.0595893 -0.00428737 0)
(0.0609341 -0.0039633 0)
(0.0621744 -0.00363571 0)
(0.0633116 -0.00330821 0)
(0.0643471 -0.00298257 0)
(0.0652834 -0.00266219 0)
(0.0661231 -0.00234794 0)
(-0.000113825 0.000712379 0)
(-0.000561976 0.00127234 0)
(-0.00123688 0.00161361 0)
(-0.00188449 0.0016056 0)
(-0.00252605 0.00165757 0)
(-0.00314604 0.00158116 0)
(-0.00371247 0.00158084 0)
(-0.00426951 0.00152311 0)
(-0.00476814 0.00150788 0)
(-0.00525991 0.00146416 0)
(-0.00570112 0.00144127 0)
(-0.00613504 0.00140456 0)
(-0.00652824 0.00137806 0)
(-0.00691305 0.00134505 0)
(-0.00726558 0.00131725 0)
(-0.00760873 0.00128649 0)
(-0.00792606 0.00125863 0)
(-0.00823338 0.00122953 0)
(-0.00851968 0.00120225 0)
(-0.00879568 0.00117461 0)
(-0.00905418 0.00114825 0)
(-0.00930236 0.00112198 0)
(-0.00953566 0.00109673 0)
(-0.00975879 0.00107181 0)
(-0.009969 0.00104777 0)
(-0.0101693 0.00102421 0)
(-0.0103582 0.00100145 0)
(-0.0105373 0.000979223 0)
(-0.0107064 0.000957784 0)
(-0.0108658 0.000936885 0)
(-0.0110161 0.000916817 0)
(-0.011157 0.000897204 0)
(-0.0112895 0.000878574 0)
(-0.0114125 0.000860175 0)
(-0.011528 0.000843082 0)
(-0.0116337 0.000825785 0)
(-0.0117325 0.000810364 0)
(-0.0118213 0.000794017 0)
(-0.0119035 0.000780415 0)
(-0.0119756 0.000764872 0)
(-0.0120408 0.000753151 0)
(-0.0120963 0.000738407 0)
(-0.0121439 0.000728376 0)
(-0.0121822 0.00071474 0)
(-0.0122114 0.000705877 0)
(-0.012231 0.000693924 0)
(-0.0122412 0.000685909 0)
(-0.012241 0.000675995 0)
(-0.0122303 0.000668514 0)
(-0.0122083 0.00066024 0)
(-0.0121743 0.000653353 0)
(-0.0121277 0.000646243 0)
(-0.0120675 0.000639893 0)
(-0.0119929 0.000633473 0)
(-0.0119025 0.00062737 0)
(-0.0117955 0.000621074 0)
(-0.0116703 0.000614659 0)
(-0.0115254 0.000607713 0)
(-0.011359 0.000600107 0)
(-0.0111695 0.000591413 0)
(-0.0109545 0.000581328 0)
(-0.010712 0.00056933 0)
(-0.0104394 0.000554933 0)
(-0.010134 0.000537462 0)
(-0.00979293 0.000516214 0)
(-0.00941303 0.000490306 0)
(-0.00899092 0.000458778 0)
(-0.00852307 0.000420488 0)
(-0.00800568 0.000374186 0)
(-0.00743484 0.00031844 0)
(-0.00680646 0.000251695 0)
(-0.00611636 0.000172233 0)
(-0.00536031 7.82274e-05 0)
(-0.00453407 -3.22652e-05 0)
(-0.00363347 -0.000161243 0)
(-0.0026545 -0.000310733 0)
(-0.00159337 -0.000482709 0)
(-0.000446617 -0.00067904 0)
(0.000788805 -0.000901384 0)
(0.00211544 -0.00115111 0)
(0.00353524 -0.00142917 0)
(0.0050495 -0.00173604 0)
(0.00665878 -0.00207157 0)
(0.00836289 -0.00243493 0)
(0.0101608 -0.00282454 0)
(0.0120508 -0.00323802 0)
(0.0140303 -0.00367219 0)
(0.0160958 -0.00412307 0)
(0.0182432 -0.004586 0)
(0.0204676 -0.00505565 0)
(0.0227631 -0.00552619 0)
(0.0251235 -0.00599142 0)
(0.0275415 -0.00644491 0)
(0.0300092 -0.00688017 0)
(0.032518 -0.00729082 0)
(0.0350589 -0.00767075 0)
(0.0376219 -0.00801425 0)
(0.0401968 -0.00831621 0)
(0.0427732 -0.00857216 0)
(0.0453401 -0.00877847 0)
(0.0478867 -0.00893235 0)
(0.0504021 -0.00903195 0)
(0.0528758 -0.00907637 0)
(0.0552976 -0.00906567 0)
(0.0576579 -0.0090008 0)
(0.0599479 -0.0088836 0)
(0.0621595 -0.00871667 0)
(0.0642855 -0.0085033 0)
(0.0663199 -0.00824732 0)
(0.0682575 -0.00795307 0)
(0.0700943 -0.00762509 0)
(0.0718272 -0.00726827 0)
(0.0734544 -0.0068874 0)
(0.0749746 -0.0064874 0)
(0.0763878 -0.00607293 0)
(0.0776945 -0.00564852 0)
(0.0788961 -0.00521838 0)
(0.0799943 -0.00478631 0)
(0.0809918 -0.00435609 0)
(0.0818913 -0.00393027 0)
(0.0826958 -0.00351254 0)
(0.0834093 -0.00310379 0)
(-0.000258871 0.000856009 0)
(-0.000901973 0.00165467 0)
(-0.00172259 0.00210402 0)
(-0.00244151 0.00215352 0)
(-0.00303443 0.00221516 0)
(-0.00361318 0.00214468 0)
(-0.00406571 0.00212415 0)
(-0.00452828 0.00204731 0)
(-0.00489488 0.00200086 0)
(-0.00526747 0.00192872 0)
(-0.00557091 0.0018739 0)
(-0.00587319 0.00180812 0)
(-0.00612544 0.0017527 0)
(-0.00637151 0.00169315 0)
(-0.00658041 0.00164017 0)
(-0.00678036 0.00158611 0)
(-0.0069518 0.00153652 0)
(-0.00711298 0.00148718 0)
(-0.00725158 0.00144108 0)
(-0.00737949 0.00139579 0)
(-0.00748896 0.00135298 0)
(-0.00758778 0.0013112 0)
(-0.00767113 0.00127141 0)
(-0.00774404 0.0012327 0)
(-0.00780365 0.00119563 0)
(-0.00785308 0.00115964 0)
(-0.00789084 0.00112502 0)
(-0.00791861 0.00109144 0)
(-0.00793595 0.00105905 0)
(-0.00794333 0.00102761 0)
(-0.00794131 0.000997242 0)
(-0.00792913 0.000967683 0)
(-0.00790844 0.000939196 0)
(-0.00787708 0.000911253 0)
(-0.00783807 0.000884536 0)
(-0.00778755 0.000857918 0)
(-0.0077302 0.000832897 0)
(-0.00766019 0.000807293 0)
(-0.007584 0.000783869 0)
(-0.00749398 0.000759024 0)
(-0.00739784 0.000736906 0)
(-0.00728721 0.000712829 0)
(-0.00716921 0.000691253 0)
(-0.00703719 0.000668421 0)
(-0.00689493 0.000646303 0)
(-0.00673965 0.000624923 0)
(-0.0065708 0.000603269 0)
(-0.0063892 0.000581672 0)
(-0.00619186 0.000559929 0)
(-0.00598001 0.000537697 0)
(-0.00575073 0.000515222 0)
(-0.00550449 0.000491891 0)
(-0.00523882 0.000467954 0)
(-0.00495334 0.000442791 0)
(-0.00464585 0.000416488 0)
(-0.00431532 0.000388464 0)
(-0.00395956 0.000358617 0)
(-0.00357704 0.000326371 0)
(-0.00316542 0.000291438 0)
(-0.00272274 0.000253195 0)
(-0.00224644 0.000211171 0)
(-0.00173412 0.000164643 0)
(-0.00118298 0.000112948 0)
(-0.000590231 5.52143e-05 0)
(4.72118e-05 -9.43355e-06 0)
(0.000732461 -8.20531e-05 0)
(0.00146886 -0.000163752 0)
(0.00225979 -0.000255802 0)
(0.00310877 -0.000359553 0)
(0.00401931 -0.000476496 0)
(0.004995 -0.000608203 0)
(0.00603934 -0.000756359 0)
(0.00715578 -0.000922695 0)
(0.00834759 -0.001109 0)
(0.00961785 -0.00131705 0)
(0.0109693 -0.00154857 0)
(0.0124045 -0.00180518 0)
(0.0139253 -0.00208832 0)
(0.0155334 -0.00239913 0)
(0.0172295 -0.00273844 0)
(0.019014 -0.00310661 0)
(0.0208865 -0.00350344 0)
(0.0228459 -0.00392812 0)
(0.0248903 -0.00437911 0)
(0.0270171 -0.00485413 0)
(0.0292228 -0.00535007 0)
(0.0315032 -0.00586302 0)
(0.0338532 -0.00638828 0)
(0.0362671 -0.00692045 0)
(0.0387383 -0.00745348 0)
(0.0412595 -0.00798081 0)
(0.0438227 -0.00849552 0)
(0.0464192 -0.00899049 0)
(0.0490398 -0.00945857 0)
(0.0516745 -0.00989278 0)
(0.0543133 -0.0102865 0)
(0.0569453 -0.0106335 0)
(0.0595599 -0.0109285 0)
(0.0621463 -0.0111667 0)
(0.0646936 -0.0113446 0)
(0.0671914 -0.0114594 0)
(0.0696299 -0.0115097 0)
(0.0719995 -0.0114949 0)
(0.0742919 -0.0114157 0)
(0.0764992 -0.011274 0)
(0.0786149 -0.0110723 0)
(0.0806333 -0.0108142 0)
(0.0825499 -0.0105041 0)
(0.0843614 -0.0101469 0)
(0.0860655 -0.00974802 0)
(0.0876609 -0.00931309 0)
(0.0891475 -0.00884793 0)
(0.0905259 -0.00835843 0)
(0.0917976 -0.00785017 0)
(0.0929646 -0.00732885 0)
(0.0940298 -0.00679928 0)
(0.0949963 -0.00626678 0)
(0.0958676 -0.00573483 0)
(0.0966478 -0.00520859 0)
(0.0973405 -0.0046896 0)
(0.09795 -0.00418324 0)
(0.0984808 -0.00368885 0)
(-0.000256392 0.00192692 0)
(-0.000873586 0.00276439 0)
(-0.00162775 0.0032048 0)
(-0.00227648 0.00292702 0)
(-0.00277079 0.0028594 0)
(-0.00321431 0.00261092 0)
(-0.00351181 0.00250937 0)
(-0.00378589 0.00234573 0)
(-0.00395479 0.00225076 0)
(-0.00411017 0.00213207 0)
(-0.00419313 0.00204584 0)
(-0.00426588 0.00195117 0)
(-0.00428827 0.00187327 0)
(-0.00430146 0.00179308 0)
(-0.00427867 0.00172252 0)
(-0.00424703 0.00165212 0)
(-0.00418888 0.00158787 0)
(-0.0041221 0.00152472 0)
(-0.00403514 0.00146585 0)
(-0.00393979 0.00140841 0)
(-0.00382855 0.00135415 0)
(-0.00370916 0.00130138 0)
(-0.00357683 0.00125108 0)
(-0.00343656 0.00120222 0)
(-0.00328538 0.00115533 0)
(-0.00312638 0.00110979 0)
(-0.00295788 0.00106583 0)
(-0.00278153 0.00102309 0)
(-0.00259668 0.00098165 0)
(-0.00240374 0.00094127 0)
(-0.00220303 0.000901986 0)
(-0.0019937 0.000863527 0)
(-0.00177722 0.000826099 0)
(-0.00155124 0.000789098 0)
(-0.00131866 0.000753305 0)
(-0.0010753 0.000717218 0)
(-0.000825893 0.000682948 0)
(-0.000564101 0.000647086 0)
(-0.000296549 0.000614353 0)
(-1.50663e-05 0.000577876 0)
(0.000272715 0.000546721 0)
(0.000575179 0.000508836 0)
(0.000886111 0.00047886 0)
(0.00121138 0.000439471 0)
(0.00154817 0.000408851 0)
(0.00190082 0.000368982 0)
(0.00226518 0.000335699 0)
(0.00264748 0.000296452 0)
(0.003045 0.000259335 0)
(0.00346143 0.000218669 0)
(0.00389654 0.000177729 0)
(0.00435246 0.000133961 0)
(0.00483035 8.8557e-05 0)
(0.00533184 4.01688e-05 0)
(0.00585874 -1.08942e-05 0)
(0.00641273 -6.5548e-05 0)
(0.00699595 -0.000123913 0)
(0.00761032 -0.000186778 0)
(0.00825825 -0.000254531 0)
(0.00894195 -0.00032797 0)
(0.00966406 -0.000407693 0)
(0.0104271 -0.000494583 0)
(0.0112339 -0.000589432 0)
(0.0120873 -0.000693253 0)
(0.0129903 -0.000807039 0)
(0.0139459 -0.000931958 0)
(0.0149573 -0.0010692 0)
(0.0160276 -0.00122011 0)
(0.0171599 -0.00138607 0)
(0.0183575 -0.00156856 0)
(0.0196234 -0.00176912 0)
(0.0209604 -0.00198934 0)
(0.0223713 -0.00223079 0)
(0.0238586 -0.00249507 0)
(0.0254244 -0.00278367 0)
(0.0270706 -0.00309797 0)
(0.0287985 -0.00343915 0)
(0.0306088 -0.00380817 0)
(0.0325019 -0.00420559 0)
(0.0344771 -0.0046316 0)
(0.0365332 -0.00508582 0)
(0.0386684 -0.00556733 0)
(0.0408797 -0.0060745 0)
(0.0431635 -0.00660495 0)
(0.0455152 -0.00715556 0)
(0.0479294 -0.00772236 0)
(0.0503997 -0.00830059 0)
(0.052919 -0.00888475 0)
(0.0554793 -0.0094686 0)
(0.0580718 -0.0100453 0)
(0.0606872 -0.0106077 0)
(0.0633153 -0.0111481 0)
(0.0659457 -0.0116588 0)
(0.0685674 -0.0121323 0)
(0.0711693 -0.012561 0)
(0.0737401 -0.0129382 0)
(0.0762686 -0.0132575 0)
(0.0787441 -0.0135137 0)
(0.0811562 -0.0137024 0)
(0.0834949 -0.0138202 0)
(0.0857515 -0.0138652 0)
(0.0879179 -0.0138367 0)
(0.0899871 -0.0137351 0)
(0.0919535 -0.0135621 0)
(0.0938125 -0.0133207 0)
(0.0955608 -0.0130147 0)
(0.0971965 -0.0126489 0)
(0.0987188 -0.0122288 0)
(0.100128 -0.0117604 0)
(0.101426 -0.0112503 0)
(0.102615 -0.010705 0)
(0.103698 -0.0101312 0)
(0.104678 -0.00953551 0)
(0.105562 -0.0089243 0)
(0.106352 -0.00830343 0)
(0.107055 -0.00767861 0)
(0.107675 -0.00705474 0)
(0.108219 -0.00643639 0)
(0.10869 -0.00582766 0)
(0.109094 -0.00523135 0)
(0.109435 -0.00465167 0)
(0.10972 -0.00408824 0)
(-0.000748153 0.00189697 0)
(-0.0016041 0.00296376 0)
(-0.00198094 0.00346064 0)
(-0.00225037 0.00326164 0)
(-0.00212243 0.00313836 0)
(-0.00210006 0.00287161 0)
(-0.00185668 0.00269693 0)
(-0.00168964 0.00248782 0)
(-0.00140097 0.00233273 0)
(-0.00115314 0.00217004 0)
(-0.000835893 0.00203884 0)
(-0.000538955 0.00190825 0)
(-0.000200145 0.00179699 0)
(0.000129008 0.0016888 0)
(0.00048478 0.00159316 0)
(0.000836363 0.00150108 0)
(0.00120563 0.00141756 0)
(0.00157359 0.00133743 0)
(0.00195376 0.00126341 0)
(0.00233418 0.00119239 0)
(0.0027234 0.00112588 0)
(0.00311381 0.00106196 0)
(0.00351085 0.00100144 0)
(0.00390977 0.00094313 0)
(0.00431398 0.0008874 0)
(0.00472067 0.000833533 0)
(0.00513187 0.000781612 0)
(0.00554621 0.00073125 0)
(0.00596463 0.000682317 0)
(0.00638704 0.00063466 0)
(0.00681327 0.00058801 0)
(0.00724468 0.000542335 0)
(0.0076796 0.000497354 0)
(0.00812142 0.000452961 0)
(0.0085662 0.000409121 0)
(0.00902036 0.000365265 0)
(0.00947642 0.000322131 0)
(0.00994534 0.000277968 0)
(0.0104145 0.000235172 0)
(0.0109009 0.000189797 0)
(0.0113857 0.00014679 0)
(0.011892 9.96569e-05 0)
(0.012397 5.4824e-05 0)
(0.0129237 6.86904e-06 0)
(0.0134567 -4.36366e-05 0)
(0.0140033 -9.16495e-05 0)
(0.0145677 -0.000143592 0)
(0.0151451 -0.000197939 0)
(0.015742 -0.000254049 0)
(0.0163558 -0.00031376 0)
(0.0169907 -0.00037577 0)
(0.0176464 -0.00044189 0)
(0.018326 -0.000511374 0)
(0.0190301 -0.000585594 0)
(0.0197615 -0.000664354 0)
(0.0205215 -0.000748739 0)
(0.0213128 -0.000838941 0)
(0.0221372 -0.000935925 0)
(0.0229973 -0.00104016 0)
(0.0238954 -0.0011526 0)
(0.024834 -0.00127394 0)
(0.0258158 -0.00140518 0)
(0.0268435 -0.0015472 0)
(0.0279197 -0.00170112 0)
(0.0290475 -0.00186797 0)
(0.0302294 -0.00204897 0)
(0.0314684 -0.00224533 0)
(0.0327673 -0.00245837 0)
(0.0341287 -0.0026894 0)
(0.0355551 -0.0029398 0)
(0.0370491 -0.00321094 0)
(0.0386126 -0.0035042 0)
(0.0402475 -0.00382086 0)
(0.0419554 -0.00416216 0)
(0.0437371 -0.00452918 0)
(0.0455933 -0.00492281 0)
(0.0475238 -0.00534366 0)
(0.0495278 -0.00579205 0)
(0.0516039 -0.00626785 0)
(0.0537497 -0.00677047 0)
(0.055962 -0.00729875 0)
(0.0582368 -0.00785088 0)
(0.060569 -0.00842434 0)
(0.0629525 -0.00901588 0)
(0.0653805 -0.00962142 0)
(0.0678451 -0.0102361 0)
(0.0703374 -0.0108543 0)
(0.0728479 -0.0114696 0)
(0.0753663 -0.0120751 0)
(0.0778816 -0.0126633 0)
(0.0803825 -0.0132263 0)
(0.0828572 -0.0137561 0)
(0.085294 -0.0142446 0)
(0.0876811 -0.0146843 0)
(0.0900069 -0.0150676 0)
(0.0922604 -0.0153881 0)
(0.0944312 -0.01564 0)
(0.0965097 -0.0158185 0)
(0.0984876 -0.0159202 0)
(0.100357 -0.0159428 0)
(0.102113 -0.0158854 0)
(0.103751 -0.0157485 0)
(0.105267 -0.0155339 0)
(0.10666 -0.0152446 0)
(0.10793 -0.0148849 0)
(0.109079 -0.01446 0)
(0.110109 -0.0139759 0)
(0.111025 -0.0134395 0)
(0.11183 -0.0128578 0)
(0.112532 -0.0122382 0)
(0.113136 -0.0115883 0)
(0.11365 -0.0109152 0)
(0.11408 -0.0102261 0)
(0.114435 -0.00952742 0)
(0.114721 -0.00882563 0)
(0.114945 -0.00812573 0)
(0.115115 -0.00743353 0)
(0.115237 -0.00675189 0)
(0.115318 -0.00608673 0)
(0.115361 -0.00543751 0)
(0.115374 -0.00481208 0)
(0.11536 -0.00420452 0)
(-0.00030117 0.00443611 0)
(-0.000216687 0.00403707 0)
(0.000302537 0.00395836 0)
(0.00087735 0.00306879 0)
(0.0016555 0.00275337 0)
(0.00237556 0.00233241 0)
(0.00319421 0.00211158 0)
(0.00395391 0.00187425 0)
(0.00476504 0.00171322 0)
(0.00552945 0.00155193 0)
(0.00632034 0.00142561 0)
(0.0070761 0.00130244 0)
(0.00784442 0.00119816 0)
(0.00858637 0.00109758 0)
(0.00933292 0.00100853 0)
(0.0100594 0.000922964 0)
(0.0107859 0.000845068 0)
(0.0114967 0.000770244 0)
(0.0122052 0.00070081 0)
(0.0129013 0.000634002 0)
(0.0135937 0.000571104 0)
(0.0142763 0.000510402 0)
(0.0149549 0.000452566 0)
(0.0156257 0.00039653 0)
(0.0162927 0.00034257 0)
(0.0169536 0.00029005 0)
(0.0176111 0.000238967 0)
(0.0182643 0.000188998 0)
(0.0189148 0.000139923 0)
(0.0195627 9.16535e-05 0)
(0.0202086 4.38074e-05 0)
(0.0208538 -3.56259e-06 0)
(0.0214977 -5.08821e-05 0)
(0.0221432 -9.81692e-05 0)
(0.0227876 -0.000145569 0)
(0.0234367 -0.000193713 0)
(0.0240844 -0.000241626 0)
(0.0247409 -0.000291874 0)
(0.0253947 -0.000340365 0)
(0.0260628 -0.00039459 0)
(0.0267255 -0.000443044 0)
(0.0274098 -0.000504087 0)
(0.0280855 -0.000551166 0)
(0.0287894 -0.000622037 0)
(0.029485 -0.000668855 0)
(0.0302075 -0.000743517 0)
(0.0309351 -0.000805109 0)
(0.0316818 -0.000878542 0)
(0.0324423 -0.000950952 0)
(0.0332214 -0.00103038 0)
(0.0340194 -0.00111278 0)
(0.0348384 -0.00120144 0)
(0.0356802 -0.00129507 0)
(0.0365466 -0.00139545 0)
(0.0374397 -0.00150234 0)
(0.0383614 -0.00161698 0)
(0.039314 -0.00173963 0)
(0.0402995 -0.00187136 0)
(0.0413203 -0.00201272 0)
(0.0423786 -0.00216474 0)
(0.0434769 -0.00232819 0)
(0.0446174 -0.00250412 0)
(0.0458028 -0.00269347 0)
(0.0470352 -0.00289736 0)
(0.0483171 -0.00311683 0)
(0.0496507 -0.00335307 0)
(0.0510384 -0.00360722 0)
(0.052482 -0.00388049 0)
(0.0539835 -0.00417404 0)
(0.0555444 -0.00448905 0)
(0.057166 -0.00482664 0)
(0.0588493 -0.00518784 0)
(0.0605947 -0.00557357 0)
(0.0624021 -0.00598459 0)
(0.0642711 -0.00642142 0)
(0.0662002 -0.00688434 0)
(0.0681875 -0.00737327 0)
(0.07023 -0.00788772 0)
(0.0723243 -0.00842674 0)
(0.0744655 -0.00898882 0)
(0.0766483 -0.00957182 0)
(0.0788659 -0.0101729 0)
(0.0811109 -0.0107887 0)
(0.0833749 -0.0114147 0)
(0.0856484 -0.0120461 0)
(0.0879212 -0.012677 0)
(0.0901824 -0.013301 0)
(0.0924205 -0.0139111 0)
(0.0946235 -0.0144996 0)
(0.0967791 -0.0150588 0)
(0.0988751 -0.0155806 0)
(0.100899 -0.0160569 0)
(0.10284 -0.01648 0)
(0.104686 -0.0168425 0)
(0.106428 -0.0171377 0)
(0.108055 -0.01736 0)
(0.109561 -0.0175045 0)
(0.110939 -0.0175678 0)
(0.112184 -0.0175479 0)
(0.113293 -0.0174439 0)
(0.114265 -0.0172566 0)
(0.115101 -0.0169883 0)
(0.115802 -0.0166425 0)
(0.116374 -0.0162239 0)
(0.11682 -0.0157383 0)
(0.117149 -0.0151923 0)
(0.117367 -0.0145932 0)
(0.117485 -0.0139487 0)
(0.117511 -0.0132667 0)
(0.117455 -0.0125553 0)
(0.117329 -0.011822 0)
(0.117143 -0.0110745 0)
(0.116906 -0.0103197 0)
(0.116628 -0.00956409 0)
(0.11632 -0.00881329 0)
(0.115988 -0.00807266 0)
(0.115643 -0.00734628 0)