/*--------------------------------*- C++ -*----------------------------------*\
| =========                 |                                                 |
| \\      /  F ield         | OpenFOAM: The Open Source CFD Toolbox           |
|  \\    /   O peration     | Version:  4.1                                   |
|   \\  /    A nd           | Web:      www.OpenFOAM.org                      |
|    \\/     M anipulation  |                                                 |
\*---------------------------------------------------------------------------*/
FoamFile
{
    version     2.0;
    format      ascii;
    class       volVectorField;
    location    "357";
    object      U;
}
// * * * * * * * * * * * * * * * * * * * * * * * * * * * * * * * * * * * * * //

dimensions      [0 1 -1 0 0 0 0];

internalField   nonuniform List<vector> 
3264
(
(-2.63129e-06 -4.4621e-07 0)
(-0.000132848 3.05467e-05 0)
(-0.000389091 4.86178e-05 0)
(-0.000676108 5.09095e-05 0)
(-0.000977991 5.25905e-05 0)
(-0.00128422 5.19342e-05 0)
(-0.00158949 5.31699e-05 0)
(-0.00189531 5.37462e-05 0)
(-0.00219722 5.47905e-05 0)
(-0.00249617 5.53722e-05 0)
(-0.00278987 5.59168e-05 0)
(-0.0030789 5.62014e-05 0)
(-0.00336269 5.64178e-05 0)
(-0.00364192 5.65659e-05 0)
(-0.00391698 5.67654e-05 0)
(-0.00418883 5.70833e-05 0)
(-0.0044584 5.76192e-05 0)
(-0.00472688 5.84579e-05 0)
(-0.00499547 5.96898e-05 0)
(-0.00526545 6.13953e-05 0)
(-0.00553801 6.36466e-05 0)
(-0.00581422 6.64983e-05 0)
(-0.00609494 6.99822e-05 0)
(-0.00638071 7.40988e-05 0)
(-0.00667163 7.8809e-05 0)
(-0.00696729 8.4027e-05 0)
(-0.00726667 8.96142e-05 0)
(-0.00756805 9.53763e-05 0)
(-0.00786896 0.000101065 0)
(-0.00816618 0.000106381 0)
(-0.0084557 0.000110991 0)
(-0.00873282 0.000114537 0)
(-0.00899219 0.000116657 0)
(-0.00922796 0.000117009 0)
(-0.00943392 0.000115286 0)
(-0.00960368 0.000111239 0)
(-0.00973082 0.00010469 0)
(-0.00980912 9.5541e-05 0)
(-0.00983274 8.37802e-05 0)
(-0.00979635 6.94828e-05 0)
(-0.00969533 5.28063e-05 0)
(-0.00952587 3.39838e-05 0)
(-0.00928505 1.33146e-05 0)
(-0.00897098 -8.84629e-06 0)
(-0.0085828 -3.20999e-05 0)
(-0.00812072 -5.60145e-05 0)
(-0.00758604 -8.01374e-05 0)
(-0.00698113 -0.000104006 0)
(-0.00630941 -0.000127157 0)
(-0.0055753 -0.000149139 0)
(-0.00478416 -0.000169519 0)
(-0.00394224 -0.000187894 0)
(-0.00305654 -0.0002039 0)
(-0.00213481 -0.000217217 0)
(-0.00118533 -0.00022758 0)
(-0.000216889 -0.000234788 0)
(0.000761422 -0.000238707 0)
(0.00174031 -0.000239275 0)
(0.00271043 -0.000236511 0)
(0.00366258 -0.00023051 0)
(0.00458782 -0.000221447 0)
(0.00547765 -0.000209572 0)
(0.00632415 -0.0001952 0)
(0.00712016 -0.00017871 0)
(0.00785934 -0.000160524 0)
(0.00853637 -0.000141099 0)
(0.00914693 -0.00012091 0)
(0.00968783 -0.000100433 0)
(0.010157 -8.01285e-05 0)
(0.0105536 -6.04262e-05 0)
(0.0108777 -4.17122e-05 0)
(0.0111304 -2.43173e-05 0)
(0.0113141 -8.50826e-06 0)
(0.0114316 5.51655e-06 0)
(0.0114867 1.76293e-05 0)
(0.0114836 2.7771e-05 0)
(0.0114273 3.59479e-05 0)
(0.0113226 4.22244e-05 0)
(0.0111751 4.67159e-05 0)
(0.0109901 4.95787e-05 0)
(0.010773 5.10009e-05 0)
(0.0105292 5.1192e-05 0)
(0.0102638 5.03728e-05 0)
(0.00998163 4.87651e-05 0)
(0.00968738 4.65824e-05 0)
(0.00938532 4.40201e-05 0)
(0.00907939 4.12476e-05 0)
(0.00877315 3.84011e-05 0)
(0.0084698 3.55797e-05 0)
(0.00817217 3.2844e-05 0)
(0.00788268 3.02196e-05 0)
(0.00760342 2.77034e-05 0)
(0.00733609 2.52746e-05 0)
(0.00708204 2.29055e-05 0)
(0.00684228 2.05732e-05 0)
(0.0066175 1.8268e-05 0)
(0.0064081 1.59971e-05 0)
(0.00621422 1.37846e-05 0)
(0.00603578 1.16666e-05 0)
(0.00587253 9.6843e-06 0)
(0.00572408 7.87636e-06 0)
(0.00558995 6.27243e-06 0)
(0.00546956 4.8887e-06 0)
(0.00536228 3.72628e-06 0)
(0.00526745 2.77212e-06 0)
(0.00518438 2.00224e-06 0)
(0.00511236 1.38609e-06 0)
(0.00505072 8.91387e-07 0)
(0.00499879 4.88187e-07 0)
(0.00495594 1.5172e-07 0)
(0.00492158 -1.36463e-07 0)
(0.0048952 -3.88887e-07 0)
(0.00487632 -6.13674e-07 0)
(0.00486454 -8.16665e-07 0)
(0.00485953 -1.0036e-06 0)
(0.00486103 -1.18195e-06 0)
(0.00486888 -1.36217e-06 0)
(0.004883 -1.55832e-06 0)
(0.00490337 -1.78805e-06 0)
(0.00493009 -2.07202e-06 0)
(0.00496332 -2.43302e-06 0)
(0.0050033 -2.8947e-06 0)
(0.00505033 -3.48019e-06 0)
(0.00510476 -4.21063e-06 0)
(0.00516696 -5.10375e-06 0)
(0.00523732 -6.17249e-06 0)
(0.00531622 -7.42383e-06 0)
(0.00540399 -8.85783e-06 0)
(0.00550091 -1.04669e-05 0)
(0.00560715 -1.22357e-05 0)
(0.0057228 -1.41407e-05 0)
(0.0058478 -1.61508e-05 0)
(0.00598191 -1.82283e-05 0)
(0.00612478 -2.03296e-05 0)
(0.00627583 -2.24066e-05 0)
(0.00643433 -2.44087e-05 0)
(0.00659935 -2.62841e-05 0)
(0.00676978 -2.79825e-05 0)
(0.00694436 -2.94561e-05 0)
(0.00712168 -3.06623e-05 0)
(0.00730022 -3.15652e-05 0)
(0.00747834 -3.21368e-05 0)
(0.00765438 -3.23582e-05 0)
(0.00782664 -3.22206e-05 0)
(0.00799346 -3.17251e-05 0)
(0.00815323 -3.08827e-05 0)
(0.00830446 -2.97134e-05 0)
(0.0084458 -2.82452e-05 0)
(0.00857611 -2.65126e-05 0)
(0.00869443 -2.45551e-05 0)
(0.00880006 -2.24157e-05 0)
(0.00889254 -2.01391e-05 0)
(0.00897169 -1.77704e-05 0)
(0.00903756 -1.53541e-05 0)
(0.00909049 -1.29328e-05 0)
(0.00913101 -1.05471e-05 0)
(0.00915987 -8.23464e-06 0)
(0.00917801 -6.02979e-06 0)
(0.00918649 -3.96356e-06 0)
(0.0091865 -2.06324e-06 0)
(0.0091793 -3.52306e-07 0)
(0.00916618 1.14974e-06 0)
(0.00914846 2.42744e-06 0)
(0.00912745 3.46947e-06 0)
(0.00910439 4.26867e-06 0)
(0.0090805 4.82206e-06 0)
(0.00905689 5.13095e-06 0)
(0.00903459 5.20094e-06 0)
(0.0090145 5.04199e-06 0)
(0.00899743 4.66837e-06 0)
(0.00898404 4.0986e-06 0)
(0.00897487 3.35518e-06 0)
(0.00897029 2.46427e-06 0)
(0.00897057 1.45508e-06 0)
(0.00897581 3.5919e-07 0)
(0.00898598 -7.90323e-07 0)
(0.00900092 -1.95987e-06 0)
(0.00902037 -3.11637e-06 0)
(0.00904395 -4.22831e-06 0)
(0.00907117 -5.26675e-06 0)
(0.0091015 -6.20616e-06 0)
(0.00913434 -7.02523e-06 0)
(0.00916905 -7.70739e-06 0)
(0.00920498 -8.24117e-06 0)
(0.0092415 -8.62034e-06 0)
(0.00927797 -8.84387e-06 0)
(0.00931381 -8.91562e-06 0)
(0.0093485 -8.844e-06 0)
(0.00938158 -8.6413e-06 0)
(0.00941265 -8.32323e-06 0)
(0.00944142 -7.90735e-06 0)
(0.00946766 -7.41521e-06 0)
(0.00949124 -6.86168e-06 0)
(0.00951209 -6.28157e-06 0)
(0.00953028 -5.65578e-06 0)
(0.00954579 -5.07307e-06 0)
(0.00955899 -4.39373e-06 0)
(0.00956961 -3.80332e-06 0)
(0.00957815 -2.94923e-06 0)
(0.00958535 -2.18509e-06 0)
(-8.33746e-05 0.000135959 0)
(-0.000582891 0.000378488 0)
(-0.00131146 0.000517714 0)
(-0.00208686 0.000562208 0)
(-0.00286831 0.000583802 0)
(-0.00363931 0.000586292 0)
(-0.00438678 0.000587235 0)
(-0.005114 0.000581848 0)
(-0.00581425 0.000574651 0)
(-0.00649029 0.00056477 0)
(-0.00714012 0.000554161 0)
(-0.00776602 0.000543195 0)
(-0.00836857 0.0005328 0)
(-0.00894995 0.000523425 0)
(-0.00951179 0.000515558 0)
(-0.0100562 0.000509516 0)
(-0.0105849 0.000505543 0)
(-0.0110997 0.000503764 0)
(-0.0116019 0.000504192 0)
(-0.0120926 0.000506697 0)
(-0.012572 0.000510999 0)
(-0.0130399 0.000516649 0)
(-0.0134953 0.000523019 0)
(-0.0139361 0.000529303 0)
(-0.0143593 0.000534523 0)
(-0.014761 0.000537554 0)
(-0.0151361 0.000537154 0)
(-0.0154789 0.00053201 0)
(-0.0157826 0.000520794 0)
(-0.0160396 0.000502223 0)
(-0.0162422 0.000475123 0)
(-0.0163821 0.000438489 0)
(-0.0164509 0.000391537 0)
(-0.0164407 0.000333747 0)
(-0.0163437 0.000264889 0)
(-0.0161526 0.000185041 0)
(-0.0158612 9.45778e-05 0)
(-0.015464 -5.83206e-06 0)
(-0.0149565 -0.000115258 0)
(-0.0143355 -0.000232534 0)
(-0.0135989 -0.000356299 0)
(-0.0127457 -0.000485028 0)
(-0.0117765 -0.000617077 0)
(-0.0106927 -0.000750711 0)
(-0.00949735 -0.000884144 0)
(-0.00819444 -0.00101556 0)
(-0.00678923 -0.00114317 0)
(-0.00528807 -0.00126518 0)
(-0.00369839 -0.00137989 0)
(-0.0020286 -0.00148566 0)
(-0.000288037 -0.00158094 0)
(0.00151311 -0.00166434 0)
(0.0033639 -0.00173457 0)
(0.00525274 -0.00179053 0)
(0.0071675 -0.00183132 0)
(0.00909562 -0.00185623 0)
(0.0110242 -0.00186479 0)
(0.0129404 -0.00185676 0)
(0.014831 -0.00183219 0)
(0.0166833 -0.00179138 0)
(0.0184848 -0.0017349 0)
(0.0202235 -0.0016636 0)
(0.0218879 -0.00157857 0)
(0.0234676 -0.00148115 0)
(0.024953 -0.00137288 0)
(0.0263354 -0.00125546 0)
(0.0276076 -0.00113073 0)
(0.0287634 -0.0010006 0)
(0.0297979 -0.000867028 0)
(0.0307076 -0.000731942 0)
(0.0314903 -0.000597217 0)
(0.0321449 -0.000464624 0)
(0.0326718 -0.000335795 0)
(0.0330724 -0.000212195 0)
(0.0333491 -9.50994e-05 0)
(0.0335056 1.44158e-05 0)
(0.0335461 0.000115484 0)
(0.0334759 0.000207444 0)
(0.0333009 0.000289833 0)
(0.0330277 0.000362377 0)
(0.0326634 0.000424971 0)
(0.0322154 0.000477666 0)
(0.0316918 0.000520651 0)
(0.0311008 0.000554232 0)
(0.0304509 0.000578821 0)
(0.0297508 0.000594921 0)
(0.0290093 0.00060311 0)
(0.0282353 0.000604038 0)
(0.0274376 0.00059841 0)
(0.0266249 0.000586979 0)
(0.0258055 0.000570535 0)
(0.0249874 0.000549889 0)
(0.0241782 0.000525855 0)
(0.0233846 0.000499227 0)
(0.022613 0.000470751 0)
(0.0218688 0.000441106 0)
(0.0211564 0.000410874 0)
(0.0204796 0.000380535 0)
(0.0198413 0.000350459 0)
(0.0192437 0.000320923 0)
(0.0186879 0.000292127 0)
(0.0181747 0.000264219 0)
(0.0177041 0.000237313 0)
(0.0172756 0.000211505 0)
(0.0168884 0.000186872 0)
(0.0165414 0.000163474 0)
(0.0162331 0.000141349 0)
(0.0159619 0.000120507 0)
(0.0157263 0.000100925 0)
(0.0155245 8.25549e-05 0)
(0.0153549 6.53164e-05 0)
(0.0152159 4.91064e-05 0)
(0.015106 3.38008e-05 0)
(0.0150238 1.92592e-05 0)
(0.0149681 5.32851e-06 0)
(0.0149378 -8.15273e-06 0)
(0.0149321 -2.13505e-05 0)
(0.0149501 -3.44313e-05 0)
(0.0149914 -4.75573e-05 0)
(0.0150555 -6.08817e-05 0)
(0.0151423 -7.45434e-05 0)
(0.0152516 -8.86611e-05 0)
(0.0153835 -0.000103328 0)
(0.015538 -0.000118605 0)
(0.0157152 -0.000134519 0)
(0.0159152 -0.000151055 0)
(0.0161379 -0.000168154 0)
(0.0163834 -0.000185713 0)
(0.0166513 -0.000203585 0)
(0.0169413 -0.000221578 0)
(0.0172527 -0.000239461 0)
(0.0175846 -0.000256966 0)
(0.017936 -0.000273799 0)
(0.0183053 -0.00028964 0)
(0.0186908 -0.000304159 0)
(0.0190905 -0.000317021 0)
(0.019502 -0.000327898 0)
(0.0199227 -0.00033648 0)
(0.0203496 -0.000342487 0)
(0.0207796 -0.000345677 0)
(0.0212094 -0.000345858 0)
(0.0216355 -0.000342897 0)
(0.0220544 -0.000336732 0)
(0.0224624 -0.00032737 0)
(0.022856 -0.000314901 0)
(0.0232318 -0.00029949 0)
(0.0235865 -0.000281384 0)
(0.0239173 -0.000260901 0)
(0.0242214 -0.000238425 0)
(0.0244968 -0.000214392 0)
(0.0247418 -0.00018928 0)
(0.0249553 -0.000163589 0)
(0.0251366 -0.000137825 0)
(0.025286 -0.000112483 0)
(0.0254039 -8.8029e-05 0)
(0.0254917 -6.48874e-05 0)
(0.0255512 -4.34277e-05 0)
(0.0255846 -2.39571e-05 0)
(0.0255945 -6.71531e-06 0)
(0.0255841 8.12646e-06 0)
(0.0255564 2.04638e-05 0)
(0.0255149 3.02551e-05 0)
(0.025463 3.75161e-05 0)
(0.0254039 4.23136e-05 0)
(0.0253409 4.47586e-05 0)
(0.0252771 4.49999e-05 0)
(0.0252151 4.32186e-05 0)
(0.0251574 3.96222e-05 0)
(0.0251062 3.44393e-05 0)
(0.0250632 2.79157e-05 0)
(0.0250299 2.0309e-05 0)
(0.0250071 1.18844e-05 0)
(0.0249957 2.90971e-06 0)
(0.024996 -6.34936e-06 0)
(0.0250078 -1.56345e-05 0)
(0.025031 -2.47002e-05 0)
(0.0250648 -3.33183e-05 0)
(0.0251086 -4.12839e-05 0)
(0.0251611 -4.84191e-05 0)
(0.0252212 -5.45769e-05 0)
(0.0252875 -5.96448e-05 0)
(0.0253586 -6.35459e-05 0)
(0.0254331 -6.62401e-05 0)
(0.0255095 -6.77238e-05 0)
(0.0255863 -6.80281e-05 0)
(0.0256622 -6.72159e-05 0)
(0.025736 -6.53788e-05 0)
(0.0258066 -6.26319e-05 0)
(0.025873 -5.91097e-05 0)
(0.0259345 -5.49598e-05 0)
(0.0259905 -5.03383e-05 0)
(0.0260406 -4.54048e-05 0)
(0.0260846 -4.03091e-05 0)
(0.0261225 -3.52241e-05 0)
(0.0261544 -3.02099e-05 0)
(0.0261807 -2.55626e-05 0)
(0.0262017 -2.10027e-05 0)
(0.026218 -1.70836e-05 0)
(0.0262298 -1.31793e-05 0)
(0.02624 -9.35656e-06 0)
(-0.000179169 0.00064523 0)
(-0.00104438 0.00125423 0)
(-0.0021707 0.0015339 0)
(-0.00331052 0.00157678 0)
(-0.00440276 0.00157411 0)
(-0.00543713 0.00153357 0)
(-0.00639811 0.00149338 0)
(-0.00729702 0.00144529 0)
(-0.00813075 0.00139737 0)
(-0.00890774 0.00134821 0)
(-0.00962971 0.00130058 0)
(-0.0103021 0.00125494 0)
(-0.0109278 0.00121234 0)
(-0.0115103 0.00117319 0)
(-0.0120521 0.00113781 0)
(-0.0125555 0.00110626 0)
(-0.0130218 0.00107836 0)
(-0.0134521 0.00105372 0)
(-0.0138466 0.00103171 0)
(-0.0142048 0.00101142 0)
(-0.0145255 0.0009917 0)
(-0.0148065 0.000971146 0)
(-0.0150451 0.00094812 0)
(-0.0152374 0.0009208 0)
(-0.0153791 0.000887223 0)
(-0.015465 0.000845363 0)
(-0.0154894 0.000793204 0)
(-0.0154463 0.000728831 0)
(-0.0153292 0.000650507 0)
(-0.0151318 0.000556761 0)
(-0.0148477 0.000446449 0)
(-0.0144707 0.00031881 0)
(-0.0139953 0.000173503 0)
(-0.0134164 1.06221e-05 0)
(-0.0127296 -0.000169305 0)
(-0.0119312 -0.000365331 0)
(-0.0110187 -0.00057612 0)
(-0.00999027 -0.000799987 0)
(-0.00884502 -0.00103494 0)
(-0.00758315 -0.00127873 0)
(-0.00620585 -0.0015289 0)
(-0.00471526 -0.00178282 0)
(-0.00311452 -0.00203777 0)
(-0.00140775 -0.00229092 0)
(0.000399998 -0.00253941 0)
(0.00230272 -0.00278038 0)
(0.00429353 -0.003011 0)
(0.00636466 -0.00322849 0)
(0.00850753 -0.00343017 0)
(0.0107127 -0.00361349 0)
(0.0129702 -0.00377604 0)
(0.0152692 -0.0039156 0)
(0.0175983 -0.00403017 0)
(0.0199456 -0.00411801 0)
(0.022299 -0.00417769 0)
(0.0246458 -0.00420807 0)
(0.0269733 -0.00420841 0)
(0.0292687 -0.00417836 0)
(0.0315195 -0.00411797 0)
(0.0337133 -0.00402776 0)
(0.0358382 -0.00390867 0)
(0.0378829 -0.00376209 0)
(0.0398368 -0.00358982 0)
(0.0416902 -0.00339405 0)
(0.0434346 -0.00317731 0)
(0.0450622 -0.0029424 0)
(0.0465667 -0.00269233 0)
(0.0479428 -0.00243026 0)
(0.0491863 -0.00215938 0)
(0.0502943 -0.00188291 0)
(0.051265 -0.00160393 0)
(0.0520976 -0.00132543 0)
(0.0527921 -0.00105017 0)
(0.0533497 -0.000780686 0)
(0.0537721 -0.000519265 0)
(0.0540617 -0.000267909 0)
(0.0542216 -2.83498e-05 0)
(0.0542553 0.000197951 0)
(0.054167 0.000409784 0)
(0.0539609 0.000606173 0)
(0.0536419 0.000786352 0)
(0.0532151 0.000949734 0)
(0.0526861 0.00109589 0)
(0.0520606 0.00122454 0)
(0.0513449 0.00133551 0)
(0.0505455 0.00142874 0)
(0.0496694 0.00150428 0)
(0.048724 0.00156228 0)
(0.0477172 0.00160304 0)
(0.0466572 0.00162697 0)
(0.0455529 0.00163466 0)
(0.0444135 0.00162689 0)
(0.0432485 0.00160462 0)
(0.0420678 0.00156902 0)
(0.0408813 0.00152146 0)
(0.039699 0.00146347 0)
(0.0385306 0.00139671 0)
(0.0373855 0.00132291 0)
(0.0362723 0.00124378 0)
(0.0351991 0.00116101 0)
(0.0341725 0.00107612 0)
(0.0331986 0.000990511 0)
(0.0322818 0.000905352 0)
(0.0314257 0.000821606 0)
(0.0306327 0.000740017 0)
(0.029904 0.000661122 0)
(0.0292401 0.000585277 0)
(0.0286405 0.000512685 0)
(0.0281043 0.000443428 0)
(0.0276299 0.000377487 0)
(0.0272156 0.000314769 0)
(0.0268591 0.000255119 0)
(0.0265584 0.000198329 0)
(0.0263112 0.000144143 0)
(0.0261152 9.22706e-05 0)
(0.0259683 4.23851e-05 0)
(0.0258684 -5.86012e-06 0)
(0.0258138 -5.28228e-05 0)
(0.0258027 -9.88576e-05 0)
(0.0258336 -0.000144302 0)
(0.025905 -0.000189461 0)
(0.0260158 -0.000234594 0)
(0.0261647 -0.000279901 0)
(0.0263508 -0.000325508 0)
(0.026573 -0.000371465 0)
(0.0268304 -0.000417733 0)
(0.0271219 -0.000464181 0)
(0.0274466 -0.000510588 0)
(0.0278032 -0.000556646 0)
(0.0281903 -0.000601958 0)
(0.0286065 -0.000646055 0)
(0.02905 -0.000688399 0)
(0.0295189 -0.000728399 0)
(0.0300109 -0.000765423 0)
(0.0305235 -0.000798816 0)
(0.0310539 -0.000827919 0)
(0.0315992 -0.000852082 0)
(0.032156 -0.000870688 0)
(0.0327206 -0.000883171 0)
(0.0332895 -0.000889036 0)
(0.0338584 -0.000887879 0)
(0.0344235 -0.000879405 0)
(0.0349803 -0.000863446 0)
(0.0355246 -0.000839974 0)
(0.0360521 -0.000809119 0)
(0.0365587 -0.000771172 0)
(0.0370403 -0.000726591 0)
(0.037493 -0.000676 0)
(0.0379134 -0.000620185 0)
(0.0382984 -0.000560074 0)
(0.0386454 -0.000496721 0)
(0.0389523 -0.000431281 0)
(0.0392177 -0.000364969 0)
(0.0394408 -0.000299032 0)
(0.0396218 -0.000234701 0)
(0.0397612 -0.000173154 0)
(0.0398605 -0.000115475 0)
(0.0399221 -6.26193e-05 0)
(0.0399486 -1.53814e-05 0)
(0.0399436 2.56223e-05 0)
(0.0399111 5.99672e-05 0)
(0.0398552 8.74232e-05 0)
(0.0397807 0.000107949 0)
(0.039692 0.000121676 0)
(0.039594 0.000128893 0)
(0.039491 0.000130022 0)
(0.0393873 0.000125594 0)
(0.0392867 0.000116224 0)
(0.0391928 0.00010259 0)
(0.0391084 8.54101e-05 0)
(0.039036 6.54255e-05 0)
(0.0389775 4.33817e-05 0)
(0.0389341 2.00139e-05 0)
(0.0389068 -3.9666e-06 0)
(0.0388958 -2.7885e-05 0)
(0.038901 -5.11145e-05 0)
(0.0389219 -7.30865e-05 0)
(0.0389574 -9.32999e-05 0)
(0.0390064 -0.000111329 0)
(0.0390673 -0.000126831 0)
(0.0391384 -0.000139546 0)
(0.0392179 -0.000149308 0)
(0.0393038 -0.000156035 0)
(0.0393941 -0.000159736 0)
(0.0394869 -0.000160498 0)
(0.0395804 -0.000158488 0)
(0.0396726 -0.000153938 0)
(0.0397621 -0.000147135 0)
(0.0398475 -0.000138413 0)
(0.0399274 -0.000128137 0)
(0.040001 -0.000116693 0)
(0.0400676 -0.000104469 0)
(0.0401266 -9.18567e-05 0)
(0.0401778 -7.92216e-05 0)
(0.0402212 -6.68986e-05 0)
(0.040257 -5.52465e-05 0)
(0.0402857 -4.43854e-05 0)
(0.040308 -3.47622e-05 0)
(0.0403241 -2.61936e-05 0)
(0.0403378 -1.92576e-05 0)
(-0.000306398 0.00126231 0)
(-0.00152003 0.00231635 0)
(-0.00287688 0.00272617 0)
(-0.00414725 0.00273885 0)
(-0.00524977 0.00267038 0)
(-0.00623371 0.00254527 0)
(-0.00708505 0.00242111 0)
(-0.00783721 0.00229162 0)
(-0.00849145 0.00216799 0)
(-0.00906416 0.00204897 0)
(-0.00956017 0.00193704 0)
(-0.00998792 0.00183195 0)
(-0.0103516 0.00173391 0)
(-0.0106556 0.0016425 0)
(-0.0109025 0.00155719 0)
(-0.0110942 0.00147724 0)
(-0.0112318 0.0014017 0)
(-0.0113154 0.00132944 0)
(-0.0113443 0.00125906 0)
(-0.0113174 0.00118898 0)
(-0.0112328 0.00111734 0)
(-0.0110879 0.00104212 0)
(-0.0108797 0.000961101 0)
(-0.0106047 0.000871969 0)
(-0.0102593 0.000772357 0)
(-0.00983922 0.00065994 0)
(-0.00934043 0.000532515 0)
(-0.0087587 0.000388096 0)
(-0.00808992 0.000224993 0)
(-0.00733024 4.18897e-05 0)
(-0.00647608 -0.000162103 0)
(-0.0055243 -0.0003874 0)
(-0.00447225 -0.00063392 0)
(-0.00331785 -0.000901082 0)
(-0.0020596 -0.00118781 0)
(-0.000696706 -0.00149258 0)
(0.000770978 -0.0018134 0)
(0.00234287 -0.00214795 0)
(0.00401766 -0.00249353 0)
(0.00579331 -0.00284716 0)
(0.007667 -0.00320564 0)
(0.00963518 -0.00356556 0)
(0.0116935 -0.00392338 0)
(0.0138369 -0.00427545 0)
(0.0160594 -0.00461806 0)
(0.0183544 -0.00494748 0)
(0.0207145 -0.00526 0)
(0.0231314 -0.00555197 0)
(0.0255962 -0.00581984 0)
(0.0280992 -0.0060602 0)
(0.0306302 -0.00626984 0)
(0.0331783 -0.00644578 0)
(0.035732 -0.00658532 0)
(0.0382795 -0.00668611 0)
(0.0408088 -0.00674621 0)
(0.0433073 -0.00676411 0)
(0.0457629 -0.00673884 0)
(0.0481632 -0.00666997 0)
(0.0504964 -0.00655767 0)
(0.052751 -0.00640276 0)
(0.0549162 -0.00620667 0)
(0.0569821 -0.00597147 0)
(0.0589398 -0.00569985 0)
(0.0607815 -0.00539499 0)
(0.0625006 -0.00506058 0)
(0.0640919 -0.00470066 0)
(0.0655512 -0.00431955 0)
(0.066876 -0.00392171 0)
(0.0680647 -0.00351166 0)
(0.069117 -0.00309384 0)
(0.0700333 -0.00267252 0)
(0.0708153 -0.00225172 0)
(0.0714651 -0.00183515 0)
(0.0719856 -0.00142613 0)
(0.07238 -0.00102761 0)
(0.0726519 -0.000642127 0)
(0.072805 -0.000271829 0)
(0.0728432 8.15125e-05 0)
(0.0727705 0.000416467 0)
(0.0725907 0.000731904 0)
(0.0723077 0.00102695 0)
(0.0719252 0.00130093 0)
(0.0714469 0.00155336 0)
(0.0708766 0.00178384 0)
(0.0702179 0.00199208 0)
(0.0694744 0.00217786 0)
(0.0686499 0.00234096 0)
(0.0677484 0.00248123 0)
(0.0667741 0.00259851 0)
(0.0657315 0.00269272 0)
(0.0646255 0.00276383 0)
(0.0634616 0.00281188 0)
(0.0622456 0.00283708 0)
(0.0609843 0.0028398 0)
(0.059685 0.00282063 0)
(0.0583555 0.00278039 0)
(0.0570046 0.0027202 0)
(0.0556415 0.00264145 0)
(0.0542758 0.00254584 0)
(0.0529175 0.00243532 0)
(0.0515768 0.00231206 0)
(0.0502635 0.00217839 0)
(0.0489872 0.00203673 0)
(0.047757 0.00188949 0)
(0.0465808 0.00173895 0)
(0.0454658 0.00158724 0)
(0.0444178 0.0014362 0)
(0.0434416 0.00128738 0)
(0.0425404 0.00114201 0)
(0.0417165 0.00100098 0)
(0.0409711 0.000864876 0)
(0.0403043 0.000734028 0)
(0.0397154 0.000608524 0)
(0.0392032 0.000488265 0)
(0.0387658 0.000373008 0)
(0.038401 0.000262401 0)
(0.0381065 0.000156016 0)
(0.0378795 5.33794e-05 0)
(0.0377175 -4.5997e-05 0)
(0.0376178 -0.000142594 0)
(0.0375777 -0.00023686 0)
(0.0375947 -0.000329187 0)
(0.0376663 -0.000419892 0)
(0.0377901 -0.000509201 0)
(0.0379635 -0.00059723 0)
(0.0381844 -0.000683977 0)
(0.0384503 -0.000769316 0)
(0.0387588 -0.000852993 0)
(0.0391078 -0.000934627 0)
(0.0394945 -0.00101372 0)
(0.0399166 -0.00108966 0)
(0.0403714 -0.00116174 0)
(0.040856 -0.00122918 0)
(0.0413675 -0.00129114 0)
(0.0419027 -0.00134672 0)
(0.0424585 -0.00139502 0)
(0.0430312 -0.00143517 0)
(0.0436172 -0.00146629 0)
(0.0442127 -0.00148761 0)
(0.0448138 -0.0014984 0)
(0.0454162 -0.0014981 0)
(0.0460158 -0.00148624 0)
(0.0466083 -0.00146255 0)
(0.0471894 -0.00142694 0)
(0.0477548 -0.00137953 0)
(0.0483002 -0.00132067 0)
(0.0488217 -0.00125092 0)
(0.0493153 -0.00117111 0)
(0.0497773 -0.0010823 0)
(0.0502044 -0.00098577 0)
(0.0505936 -0.000883005 0)
(0.0509426 -0.000775678 0)
(0.0512493 -0.0006656 0)
(0.0515123 -0.00055468 0)
(0.0517308 -0.000444873 0)
(0.0519048 -0.000338121 0)
(0.0520349 -0.000236295 0)
(0.0521225 -0.000141138 0)
(0.0521695 -5.42019e-05 0)
(0.0521786 2.31936e-05 0)
(0.0521533 9.00066e-05 0)
(0.0520974 0.000145499 0)
(0.0520152 0.000189252 0)
(0.0519115 0.000221165 0)
(0.0517911 0.000241448 0)
(0.051659 0.000250591 0)
(0.0515201 0.000249333 0)
(0.0513791 0.000238622 0)
(0.0512405 0.000219572 0)
(0.0511081 0.000193412 0)
(0.0509856 0.000161451 0)
(0.0508757 0.000125031 0)
(0.0507809 8.54919e-05 0)
(0.0507029 4.41403e-05 0)
(0.0506428 2.22112e-06 0)
(0.0506012 -3.91061e-05 0)
(0.0505781 -7.87869e-05 0)
(0.0505731 -0.000115888 0)
(0.0505853 -0.000149608 0)
(0.0506135 -0.000179292 0)
(0.050656 -0.000204432 0)
(0.0507112 -0.000224672 0)
(0.050777 -0.000239809 0)
(0.0508514 -0.000249787 0)
(0.0509323 -0.000254692 0)
(0.0510175 -0.000254739 0)
(0.0511051 -0.000250261 0)
(0.051193 -0.000241691 0)
(0.0512795 -0.000229547 0)
(0.051363 -0.00021441 0)
(0.0514421 -0.000196903 0)
(0.0515157 -0.000177676 0)
(0.0515828 -0.000157378 0)
(0.0516428 -0.000136648 0)
(0.0516953 -0.000116087 0)
(0.0517402 -9.62674e-05 0)
(0.0517776 -7.76868e-05 0)
(0.0518078 -6.07705e-05 0)
(0.0518313 -4.61032e-05 0)
(0.0518508 -3.39328e-05 0)
(-0.000406097 0.00247405 0)
(-0.00172285 0.00380165 0)
(-0.00299315 0.00414765 0)
(-0.00405716 0.00389808 0)
(-0.00483346 0.00362762 0)
(-0.00543279 0.00332821 0)
(-0.00585156 0.00306769 0)
(-0.00614885 0.00282498 0)
(-0.0063332 0.00260522 0)
(-0.00643 0.00240222 0)
(-0.00644675 0.00221485 0)
(-0.00639431 0.0020406 0)
(-0.00627717 0.00187776 0)
(-0.00609987 0.00172457 0)
(-0.00586441 0.00157933 0)
(-0.0055722 0.00144038 0)
(-0.00522337 0.00130596 0)
(-0.00481749 0.00117425 0)
(-0.00435338 0.00104328 0)
(-0.0038294 0.000910949 0)
(-0.00324346 0.000775 0)
(-0.00259314 0.00063306 0)
(-0.00187579 0.000482667 0)
(-0.00108862 0.000321327 0)
(-0.000228761 0.00014658 0)
(0.000706621 -4.39171e-05 0)
(0.00172026 -0.00025231 0)
(0.00281472 -0.000480463 0)
(0.00399232 -0.000729888 0)
(0.00525506 -0.00100167 0)
(0.00660462 -0.00129642 0)
(0.00804224 -0.00161425 0)
(0.00956876 -0.00195473 0)
(0.0111845 -0.00231691 0)
(0.0128894 -0.00269932 0)
(0.0146828 -0.00310002 0)
(0.0165634 -0.00351657 0)
(0.0185296 -0.00394616 0)
(0.0205788 -0.00438559 0)
(0.0227082 -0.00483132 0)
(0.0249141 -0.00527956 0)
(0.0271922 -0.00572628 0)
(0.0295375 -0.00616724 0)
(0.0319444 -0.00659807 0)
(0.0344062 -0.00701429 0)
(0.0369159 -0.00741139 0)
(0.0394655 -0.00778481 0)
(0.0420462 -0.00813007 0)
(0.0446485 -0.00844276 0)
(0.0472624 -0.00871866 0)
(0.0498772 -0.00895374 0)
(0.0524814 -0.00914429 0)
(0.0550634 -0.00928695 0)
(0.0576111 -0.0093788 0)
(0.0601122 -0.00941744 0)
(0.0625547 -0.00940108 0)
(0.0649265 -0.00932864 0)
(0.067216 -0.00919976 0)
(0.0694123 -0.00901494 0)
(0.0715053 -0.0087755 0)
(0.0734862 -0.00848364 0)
(0.0753473 -0.00814239 0)
(0.0770822 -0.00775557 0)
(0.0786862 -0.00732768 0)
(0.0801562 -0.0068638 0)
(0.0814905 -0.00636945 0)
(0.0826888 -0.00585041 0)
(0.0837525 -0.00531258 0)
(0.0846837 -0.00476181 0)
(0.0854859 -0.00420377 0)
(0.0861632 -0.00364377 0)
(0.0867203 -0.00308675 0)
(0.0871623 -0.00253712 0)
(0.0874944 -0.00199875 0)
(0.087722 -0.00147497 0)
(0.0878502 -0.00096854 0)
(0.0878839 -0.000481696 0)
(0.0878279 -1.62001e-05 0)
(0.0876864 0.000426616 0)
(0.0874633 0.000845782 0)
(0.0871621 0.00124062 0)
(0.0867859 0.0016107 0)
(0.0863374 0.00195573 0)
(0.0858191 0.00227554 0)
(0.085233 0.00257004 0)
(0.0845811 0.00283911 0)
(0.0838649 0.00308265 0)
(0.0830861 0.00330052 0)
(0.0822462 0.00349251 0)
(0.0813468 0.00365841 0)
(0.0803898 0.00379794 0)
(0.0793769 0.00391085 0)
(0.0783106 0.0039969 0)
(0.0771935 0.00405593 0)
(0.0760288 0.0040879 0)
(0.0748204 0.00409291 0)
(0.0735726 0.00407128 0)
(0.0722906 0.00402357 0)
(0.0709804 0.00395061 0)
(0.0696487 0.00385355 0)
(0.0683029 0.00373385 0)
(0.066951 0.00359328 0)
(0.0656018 0.00343391 0)
(0.0642642 0.00325808 0)
(0.0629475 0.00306831 0)
(0.0616609 0.00286728 0)
(0.0604134 0.00265772 0)
(0.0592136 0.00244229 0)
(0.0580692 0.00222355 0)
(0.0569873 0.00200385 0)
(0.0559738 0.00178523 0)
(0.0550337 0.00156946 0)
(0.0541705 0.00135792 0)
(0.0533871 0.00115165 0)
(0.0526848 0.000951363 0)
(0.0520644 0.000757458 0)
(0.0515255 0.000570073 0)
(0.0510671 0.000389139 0)
(0.0506876 0.000214429 0)
(0.0503848 4.56135e-05 0)
(0.0501564 -0.000117688 0)
(0.0499994 -0.00027586 0)
(0.0499108 -0.00042925 0)
(0.0498875 -0.000578133 0)
(0.0499262 -0.000722685 0)
(0.0500236 -0.000862958 0)
(0.0501763 -0.00099887 0)
(0.0503809 -0.00113019 0)
(0.0506339 -0.00125655 0)
(0.0509319 -0.00137741 0)
(0.0512713 -0.00149215 0)
(0.0516485 -0.00159997 0)
(0.05206 -0.0017 0)
(0.052502 -0.00179129 0)
(0.0529707 -0.00187283 0)
(0.0534623 -0.00194359 0)
(0.053973 -0.00200254 0)
(0.0544986 -0.00204867 0)
(0.0550351 -0.00208105 0)
(0.0555784 -0.00209886 0)
(0.0561244 -0.00210139 0)
(0.0566688 -0.00208812 0)
(0.0572075 -0.00205871 0)
(0.0577364 -0.00201304 0)
(0.0582513 -0.00195126 0)
(0.0587485 -0.00187378 0)
(0.0592241 -0.0017813 0)
(0.0596745 -0.0016748 0)
(0.0600965 -0.00155557 0)
(0.0604869 -0.00142519 0)
(0.0608432 -0.00128551 0)
(0.0611631 -0.00113861 0)
(0.0614445 -0.000986768 0)
(0.0616863 -0.000832428 0)
(0.0618873 -0.000678126 0)
(0.0620473 -0.000526426 0)
(0.0621664 -0.000379859 0)
(0.0622453 -0.000240845 0)
(0.0622853 -0.000111628 0)
(0.0622882 5.79605e-06 0)
(0.0622566 0.000109735 0)
(0.0621932 0.000198852 0)
(0.0621015 0.000272203 0)
(0.0619852 0.000329255 0)
(0.0618485 0.000369897 0)
(0.0616957 0.000394428 0)
(0.0615312 0.00040353 0)
(0.0613596 0.000398232 0)
(0.0611852 0.00037986 0)
(0.0610121 0.000349977 0)
(0.0608443 0.000310328 0)
(0.0606851 0.000262769 0)
(0.0605375 0.000209216 0)
(0.0604041 0.00015158 0)
(0.0602867 9.17243e-05 0)
(0.0601867 3.14144e-05 0)
(0.0601049 -2.7716e-05 0)
(0.0600417 -8.41957e-05 0)
(0.0599969 -0.000136739 0)
(0.0599699 -0.000184264 0)
(0.0599596 -0.000225902 0)
(0.059965 -0.000261002 0)
(0.0599843 -0.000289135 0)
(0.0600159 -0.000310083 0)
(0.0600579 -0.000323836 0)
(0.0601083 -0.000330572 0)
(0.0601654 -0.000330645 0)
(0.060227 -0.000324562 0)
(0.0602915 -0.000312958 0)
(0.0603569 -0.000296572 0)
(0.0604219 -0.000276221 0)
(0.0604849 -0.00025277 0)
(0.0605448 -0.00022711 0)
(0.0606005 -0.000200131 0)
(0.0606513 -0.00017269 0)
(0.0606966 -0.00014562 0)
(0.0607361 -0.000119681 0)
(0.0607697 -9.54977e-05 0)
(0.0607976 -7.42776e-05 0)
(0.0608207 -5.44731e-05 0)
(-0.000695329 0.0030977 0)
(-0.00209564 0.00472687 0)
(-0.00255616 0.00495623 0)
(-0.00278935 0.00450929 0)
(-0.0026158 0.00403724 0)
(-0.00235501 0.00357063 0)
(-0.0019444 0.00316633 0)
(-0.00146781 0.00280754 0)
(-0.000915572 0.00248978 0)
(-0.00031222 0.00220437 0)
(0.000341532 0.00194463 0)
(0.00103777 0.00170556 0)
(0.00177548 0.00148262 0)
(0.00255255 0.00127242 0)
(0.00336923 0.00107178 0)
(0.00422592 0.000878056 0)
(0.00512402 0.000688658 0)
(0.00606525 0.00050117 0)
(0.0070518 0.000313171 0)
(0.00808607 0.000122238 0)
(0.0091707 -7.4091e-05 0)
(0.0103084 -0.000278301 0)
(0.0115019 -0.000492884 0)
(0.0127538 -0.000720294 0)
(0.0140667 -0.000962894 0)
(0.0154431 -0.00122289 0)
(0.0168848 -0.00150226 0)
(0.0183939 -0.00180267 0)
(0.0199718 -0.00212545 0)
(0.0216196 -0.00247148 0)
(0.0233381 -0.00284115 0)
(0.0251277 -0.00323436 0)
(0.0269882 -0.00365048 0)
(0.0289192 -0.00408831 0)
(0.0309197 -0.00454613 0)
(0.0329881 -0.0050217 0)
(0.0351224 -0.00551227 0)
(0.0373201 -0.00601464 0)
(0.039578 -0.00652518 0)
(0.0418923 -0.00703989 0)
(0.0442585 -0.00755441 0)
(0.0466716 -0.00806409 0)
(0.0491256 -0.00856404 0)
(0.051614 -0.00904914 0)
(0.0541295 -0.00951412 0)
(0.0566637 -0.00995362 0)
(0.0592078 -0.0103622 0)
(0.0617522 -0.0107345 0)
(0.0642863 -0.0110653 0)
(0.0667991 -0.0113493 0)
(0.0692789 -0.0115819 0)
(0.0717137 -0.0117585 0)
(0.0740912 -0.0118752 0)
(0.0763989 -0.0119286 0)
(0.0786248 -0.011916 0)
(0.0807569 -0.0118357 0)
(0.0827843 -0.0116866 0)
(0.0846967 -0.011469 0)
(0.0864855 -0.011184 0)
(0.0881434 -0.0108341 0)
(0.0896649 -0.0104227 0)
(0.0910466 -0.00995434 0)
(0.0922868 -0.00943462 0)
(0.0933862 -0.00886982 0)
(0.094347 -0.00826686 0)
(0.0951736 -0.00763303 0)
(0.0958714 -0.0069758 0)
(0.0964474 -0.00630257 0)
(0.0969092 -0.00562046 0)
(0.0972651 -0.00493617 0)
(0.0975236 -0.00425577 0)
(0.097693 -0.00358467 0)
(0.0977814 -0.00292754 0)
(0.0977966 -0.00228828 0)
(0.0977455 -0.00167003 0)
(0.0976344 -0.00107525 0)
(0.0974688 -0.000505741 0)
(0.0972532 3.72527e-05 0)
(0.0969917 0.000552955 0)
(0.0966873 0.00104097 0)
(0.0963424 0.00150122 0)
(0.0959589 0.0019338 0)
(0.095538 0.00233896 0)
(0.0950803 0.00271702 0)
(0.0945863 0.0030683 0)
(0.0940558 0.00339306 0)
(0.0934885 0.0036915 0)
(0.092884 0.00396371 0)
(0.0922416 0.00420967 0)
(0.0915605 0.00442922 0)
(0.09084 0.00462211 0)
(0.0900795 0.00478796 0)
(0.0892784 0.00492636 0)
(0.0884366 0.00503684 0)
(0.0875541 0.00511896 0)
(0.0866313 0.00517231 0)
(0.0856691 0.00519663 0)
(0.084669 0.00519176 0)
(0.0836332 0.00515781 0)
(0.0825644 0.00509509 0)
(0.0814661 0.00500422 0)
(0.0803426 0.00488614 0)