/*--------------------------------*- C++ -*----------------------------------*\
| =========                 |                                                 |
| \\      /  F ield         | OpenFOAM: The Open Source CFD Toolbox           |
|  \\    /   O peration     | Version:  4.1                                   |
|   \\  /    A nd           | Web:      www.OpenFOAM.org                      |
|    \\/     M anipulation  |                                                 |
\*---------------------------------------------------------------------------*/
FoamFile
{
    version     2.0;
    format      ascii;
    class       volScalarField;
    location    "4200";
    object      p;
}
// * * * * * * * * * * * * * * * * * * * * * * * * * * * * * * * * * * * * * //

dimensions      [1 -1 -2 0 0 0 0];

internalField   nonuniform List<scalar> 
1275
(
0.711994
0.711994
0.711993
0.711993
0.711992
0.711992
0.711991
0.711992
0.711991
0.711991
0.711991
0.711991
0.711991
0.711991
0.711991
0.711992
0.711992
0.711993
0.711994
0.711995
0.711995
0.711997
0.711998
0.711999
0.712001
0.712003
0.712004
0.712006
0.712009
0.712011
0.712013
0.712016
0.712019
0.712022
0.712025
0.712028
0.712031
0.712035
0.712039
0.712043
0.712047
0.712051
0.712055
0.71206
0.712065
0.71207
0.712075
0.71208
0.712086
0.712091
0.712097
0.712103
0.712109
0.712116
0.712122
0.712129
0.712136
0.712143
0.712151
0.712159
0.712167
0.712175
0.712183
0.712192
0.712202
0.712211
0.712221
0.712232
0.712242
0.712254
0.712266
0.712278
0.712292
0.712306
0.712321
0.712337
0.712355
0.712373
0.712394
0.712415
0.712439
0.712465
0.712492
0.712523
0.712555
0.71259
0.712628
0.712669
0.712713
0.71276
0.712809
0.712861
0.712915
0.712971
0.713029
0.713088
0.713147
0.713206
0.713265
0.713323
0.713378
0.713431
0.713481
0.713527
0.71357
0.713608
0.713641
0.71367
0.713695
0.713714
0.713729
0.71374
0.713747
0.71375
0.713749
0.713746
0.71374
0.713732
0.713722
0.713711
0.713699
0.713685
0.711993
0.711993
0.711992
0.711993
0.711992
0.711992
0.711992
0.711992
0.711991
0.711992
0.711991
0.711992
0.711992
0.711992
0.711992
0.711993
0.711993
0.711994
0.711994
0.711995
0.711996
0.711997
0.711999
0.712
0.712002
0.712003
0.712005
0.712007
0.712009
0.712011
0.712014
0.712017
0.712019
0.712022
0.712025
0.712029
0.712032
0.712036
0.712039
0.712043
0.712047
0.712052
0.712056
0.712061
0.712065
0.71207
0.712075
0.712081
0.712086
0.712092
0.712098
0.712104
0.71211
0.712116
0.712123
0.71213
0.712137
0.712144
0.712152
0.712159
0.712167
0.712176
0.712184
0.712193
0.712202
0.712212
0.712222
0.712233
0.712243
0.712255
0.712267
0.71228
0.712293
0.712307
0.712322
0.712338
0.712356
0.712374
0.712394
0.712416
0.712439
0.712464
0.712491
0.712521
0.712553
0.712588
0.712625
0.712666
0.712709
0.712755
0.712804
0.712855
0.712909
0.712965
0.713023
0.713082
0.713141
0.7132
0.713259
0.713317
0.713372
0.713425
0.713475
0.713522
0.713564
0.713603
0.713636
0.713665
0.713689
0.713709
0.713724
0.713735
0.713742
0.713745
0.713745
0.713742
0.713736
0.713728
0.713718
0.713707
0.713695
0.713682
0.711996
0.711995
0.711995
0.711995
0.711993
0.711994
0.711992
0.711993
0.711992
0.711992
0.711991
0.711992
0.711991
0.711992
0.711992
0.711992
0.711993
0.711993
0.711994
0.711995
0.711996
0.711997
0.711998
0.712
0.712001
0.712003
0.712005
0.712007
0.712009
0.712011
0.712014
0.712016
0.712019
0.712022
0.712025
0.712028
0.712032
0.712035
0.712039
0.712043
0.712047
0.712051
0.712056
0.71206
0.712065
0.71207
0.712075
0.71208
0.712086
0.712092
0.712097
0.712103
0.71211
0.712116
0.712123
0.71213
0.712137
0.712144
0.712151
0.712159
0.712167
0.712175
0.712184
0.712193
0.712202
0.712212
0.712222
0.712232
0.712243
0.712254
0.712266
0.712279
0.712292
0.712306
0.712321
0.712337
0.712354
0.712372
0.712392
0.712413
0.712436
0.712461
0.712488
0.712517
0.712549
0.712583
0.712621
0.712661
0.712704
0.712749
0.712798
0.71285
0.712903
0.712959
0.713017
0.713076
0.713135
0.713195
0.713254
0.713311
0.713367
0.71342
0.71347
0.713516
0.713559
0.713597
0.71363
0.713659
0.713683
0.713703
0.713718
0.713729
0.713735
0.713738
0.713738
0.713735
0.713729
0.713721
0.713712
0.713701
0.713688
0.713676
0.711992
0.711992
0.711991
0.711992
0.711991
0.711992
0.711991
0.711992
0.711991
0.711992
0.711991
0.711992
0.711992
0.711992
0.711992
0.711993
0.711993
0.711994
0.711994
0.711995
0.711996
0.711997
0.711998
0.712
0.712001
0.712003
0.712005
0.712007
0.712009
0.712011
0.712014
0.712016
0.712019
0.712022
0.712025
0.712028
0.712032
0.712035
0.712039
0.712043
0.712047
0.712051
0.712056
0.71206
0.712065
0.71207
0.712075
0.71208
0.712086
0.712091
0.712097
0.712103
0.71211
0.712116
0.712123
0.712129
0.712137
0.712144
0.712151
0.712159
0.712167
0.712175
0.712184
0.712193
0.712202
0.712212
0.712222
0.712232
0.712243
0.712254
0.712266
0.712278
0.712291
0.712305
0.71232
0.712335
0.712352
0.71237
0.712389
0.71241
0.712432
0.712457
0.712483
0.712512
0.712543
0.712577
0.712614
0.712654
0.712696
0.712742
0.712791
0.712842
0.712895
0.712951
0.713009
0.713067
0.713126
0.713185
0.713244
0.713301
0.713356
0.713409
0.713458
0.713504
0.713545
0.713583
0.713615
0.713644
0.713667
0.713686
0.713701
0.713711
0.713717
0.71372
0.71372
0.713716
0.713711
0.713703
0.713694
0.713683
0.713671
0.713659
0.711998
0.711997
0.711995
0.711995
0.711993
0.711994
0.711992
0.711992
0.711991
0.711991
0.71199
0.711991
0.71199
0.711991
0.711991
0.711991
0.711992
0.711992
0.711993
0.711994
0.711995
0.711996
0.711997
0.711999
0.712
0.712002
0.712004
0.712006
0.712008
0.71201
0.712013
0.712015
0.712018
0.712021
0.712024
0.712028
0.712031
0.712035
0.712038
0.712042
0.712046
0.712051
0.712055
0.71206
0.712064
0.712069
0.712074
0.71208
0.712085
0.712091
0.712097
0.712103
0.712109
0.712115
0.712122
0.712129
0.712136
0.712143
0.712151
0.712158
0.712166
0.712175
0.712183
0.712192
0.712201
0.712211
0.71222
0.712231
0.712241
0.712252
0.712264
0.712276
0.712289
0.712303
0.712317
0.712333
0.712349
0.712367
0.712386
0.712407
0.712429
0.712453
0.71248
0.712508
0.71254
0.712574
0.71261
0.71265
0.712693
0.712738
0.712787
0.712838
0.712891
0.712946
0.713003
0.713061
0.713119
0.713177
0.713235
0.71329
0.713344
0.713395
0.713443
0.713487
0.713527
0.713562
0.713594
0.71362
0.713642
0.71366
0.713673
0.713682
0.713688
0.71369
0.713689
0.713686
0.71368
0.713673
0.713664
0.713654
0.713643
0.713631
0.711986
0.711988
0.711986
0.71199
0.711988
0.711991
0.711989
0.711991
0.711989
0.71199
0.71199
0.71199
0.71199
0.711991
0.711991
0.711991
0.711991
0.711992
0.711993
0.711994
0.711995
0.711996
0.711997
0.711998
0.712
0.712002
0.712003
0.712005
0.712007
0.71201
0.712012
0.712015
0.712018
0.712021
0.712024
0.712027
0.71203
0.712034
0.712038
0.712042
0.712046
0.71205
0.712054
0.712059
0.712064
0.712069
0.712074
0.712079
0.712085
0.71209
0.712096
0.712102
0.712108
0.712115
0.712121
0.712128
0.712135
0.712143
0.71215
0.712158
0.712166
0.712174
0.712182
0.712191
0.7122
0.71221
0.712219
0.71223
0.71224
0.712251
0.712263
0.712275
0.712288
0.712301
0.712316
0.712331
0.712348
0.712365
0.712384
0.712405
0.712427
0.712452
0.712478
0.712507
0.712538
0.712572
0.712609
0.712649
0.712691
0.712737
0.712784
0.712835
0.712887
0.712942
0.712997
0.713054
0.71311
0.713166
0.713221
0.713275
0.713326
0.713374
0.713419
0.71346
0.713497
0.71353
0.713558
0.713582
0.713602
0.713618
0.713629
0.713637
0.713642
0.713643
0.713642
0.713638
0.713633
0.713626
0.713618
0.713609
0.713599
0.713589
0.711997
0.711997
0.711993
0.711994
0.71199
0.711991
0.711988
0.711989
0.711987
0.711988
0.711987
0.711988
0.711987
0.711988
0.711988
0.711989
0.711989
0.71199
0.711991
0.711992
0.711993
0.711994
0.711996
0.711997
0.711999
0.712
0.712002
0.712004
0.712007
0.712009
0.712011
0.712014
0.712017
0.71202
0.712023
0.712026
0.71203
0.712033
0.712037
0.712041
0.712045
0.71205
0.712054
0.712059
0.712063
0.712068
0.712073
0.712079
0.712084
0.71209
0.712096
0.712102
0.712108
0.712114
0.712121
0.712128
0.712135
0.712142
0.712149
0.712157
0.712165
0.712173
0.712182
0.71219
0.712199
0.712209
0.712219
0.712229
0.712239
0.712251
0.712262
0.712275
0.712288
0.712301
0.712316
0.712332
0.712348
0.712366
0.712386
0.712407
0.71243
0.712455
0.712482
0.712511
0.712543
0.712577
0.712614
0.712654
0.712696
0.712741
0.712788
0.712838
0.712889
0.712941
0.712995
0.713049
0.713103
0.713155
0.713207
0.713256
0.713303
0.713347
0.713388
0.713425
0.713458
0.713487
0.713511
0.713532
0.713549
0.713562
0.713571
0.713577
0.71358
0.713581
0.713579
0.713576
0.713571
0.713564
0.713557
0.713549
0.713541
0.713533
0.711966
0.71198
0.711974
0.711985
0.711981
0.711987
0.711985
0.711988
0.711987
0.711988
0.711988
0.711989
0.711988
0.711989
0.711989
0.71199
0.71199
0.711991
0.711991
0.711992
0.711993
0.711994
0.711996
0.711997
0.711999
0.712
0.712002
0.712004
0.712007
0.712009
0.712011
0.712014
0.712017
0.71202
0.712023
0.712026
0.71203
0.712033
0.712037
0.712041
0.712045
0.712049
0.712054
0.712058
0.712063
0.712068
0.712073
0.712079
0.712084
0.71209
0.712095
0.712102
0.712108
0.712114
0.712121
0.712128
0.712135
0.712142
0.712149
0.712157
0.712165
0.712173
0.712182
0.712191
0.7122
0.71221
0.71222
0.71223
0.712241
0.712252
0.712264
0.712277
0.71229
0.712305
0.71232
0.712336
0.712353
0.712372
0.712392
0.712414
0.712438
0.712463
0.712491
0.712521
0.712553
0.712588
0.712625
0.712664
0.712706
0.712751
0.712797
0.712844
0.712893
0.712943
0.712994
0.713044
0.713093
0.713142
0.713188
0.713233
0.713274
0.713313
0.713348
0.713379
0.713407
0.713431
0.713451
0.713467
0.713481
0.71349
0.713497
0.713502
0.713503
0.713503
0.713502
0.713498
0.713494
0.713489
0.713484
0.713478
0.713472
0.713466
0.71199
0.711996
0.711989
0.711991
0.711986
0.711987
0.711985
0.711986
0.711984
0.711986
0.711985
0.711986
0.711986
0.711987
0.711987
0.711988
0.711988
0.711989
0.71199
0.711991
0.711992
0.711994
0.711995
0.711997
0.711998
0.712
0.712002
0.712004
0.712006
0.712009
0.712011
0.712014
0.712017
0.71202
0.712023
0.712026
0.71203
0.712033
0.712037
0.712041
0.712045
0.71205
0.712054
0.712059
0.712064
0.712068
0.712074
0.712079
0.712085
0.71209
0.712096
0.712102
0.712109
0.712115
0.712122
0.712129
0.712136
0.712144
0.712151
0.712159
0.712167
0.712176
0.712185
0.712194
0.712204
0.712214
0.712224
0.712235
0.712247
0.712259
0.712272
0.712285
0.712299
0.712315
0.712331
0.712348
0.712367
0.712386
0.712408
0.712431
0.712456
0.712482
0.712511
0.712542
0.712575
0.71261
0.712647
0.712686
0.712727
0.712769
0.712813
0.712859
0.712904
0.71295
0.712996
0.713041
0.713085
0.713128
0.713168
0.713206
0.713241
0.713273
0.713301
0.713327
0.713348
0.713367
0.713382
0.713395
0.713404
0.713411
0.713416
0.713419
0.71342
0.713419
0.713418
0.713416
0.713413
0.71341
0.713406
0.713403
0.713399
0.713396
0.711887
0.711968
0.711963
0.711987
0.711982
0.711991
0.711988
0.711991
0.711989
0.711991
0.71199
0.711991
0.71199
0.711991
0.71199
0.711991
0.711991
0.711992
0.711992
0.711993
0.711994
0.711995
0.711997
0.711998
0.712
0.712001
0.712003
0.712005
0.712007
0.71201
0.712012
0.712015
0.712018
0.712021
0.712024
0.712027
0.712031
0.712034
0.712038
0.712042
0.712046
0.712051
0.712055
0.71206
0.712064
0.71207
0.712075
0.712081
0.712086
0.712092
0.712099
0.712105
0.712111
0.712118
0.712125
0.712133
0.71214
0.712148
0.712156
0.712165
0.712174
0.712183
0.712192
0.712202
0.712213
0.712224
0.712235
0.712247
0.712259
0.712273
0.712287
0.712302
0.712317
0.712334
0.712352
0.712371
0.712391
0.712412
0.712435
0.71246
0.712486
0.712514
0.712543
0.712575
0.712608
0.712642
0.712679
0.712717
0.712756
0.712796
0.712837
0.712879
0.71292
0.712961
0.713001
0.71304
0.713077
0.713113
0.713146
0.713176
0.713204
0.713229
0.713251
0.71327
0.713286
0.7133
0.713311
0.713319
0.713326
0.713331
0.713334
0.713336
0.713337
0.713338
0.713337
0.713336
0.713335
0.713334
0.713333
0.713333
0.713332
0.713331
0.712245
0.712203
0.712196
0.712154
0.712142
0.712099
0.712084
0.712032
0.712022
0.71195
0.711967
0.711994
0.711987
0.711993
0.711987
0.71199
0.711987
0.711988
0.711987
0.711988
0.711987
0.711988
0.711988
0.711989
0.711989
0.71199
0.71199
0.711991
0.711992
0.711993
0.711994
0.711995
0.711997
0.711998
0.712
0.712002
0.712004
0.712006
0.712008
0.712011
0.712013
0.712016
0.712019
0.712022
0.712025
0.712029
0.712032
0.712036
0.71204
0.712044
0.712049
0.712053
0.712058
0.712063
0.712068
)
;

boundaryField
{
    inlet
    {
        type            zeroGradient;
    }
    outlet
    {
        type            fixedValue;
        value           nonuniform 0();
    }
    walls
    {
        type            zeroGradient;
    }
    symwall
    {
        type            empty;
    }
    procBoundary0to1
    {
        type            processor;
        value           nonuniform List<scalar> 10(0.713672 0.713668 0.713662 0.713646 0.71362 0.713578 0.713524 0.71346 0.713393 0.713332);
    }
    procBoundary0to2
    {
        type            processor;
        value           nonuniform List<scalar> 
133
(
0.712074
0.712079
0.712085
0.712091
0.712098
0.712104
0.712111
0.712118
0.712125
0.712133
0.712141
0.712149
0.712158
0.712167
0.712176
0.712186
0.712197
0.712207
0.712218
0.71223
0.712243
0.712255
0.712269
0.712283
0.712298
0.712314
0.712331
0.712348
0.712367
0.712387
0.712408
0.71243
0.712453
0.712478
0.712504
0.712531
0.71256
0.71259
0.712622
0.712655
0.712689
0.712724
0.712759
0.712796
0.712832
0.712869
0.712905
0.712941
0.712976
0.71301
0.713041
0.713072
0.713099
0.713125
0.713148
0.713169
0.713188
0.713204
0.713217
0.713229
0.713238
0.713246
0.713252
0.713257
0.713261
0.713264
0.713266
0.713268
0.713269
0.71327
0.713271
0.713273
0.713274
0.713275
0.713277
0.713279
0.713281
0.712254
0.712206
0.712199
0.712156
0.712144
0.7121
0.712084
0.712034
0.712018
0.71195
0.711926
0.711977
0.71197
0.711992
0.711987
0.711996
0.711992
0.711996
0.711993
0.711995
0.711993
0.711994
0.711993
0.711993
0.711993
0.711993
0.711993
0.711994
0.711994
0.711995
0.711996
0.711997
0.711998
0.712
0.712002
0.712003
0.712005
0.712008
0.71201
0.712012
0.712015
0.712018
0.712021
0.712024
0.712028
0.712032
0.712035
0.71204
0.712044
0.712048
0.712053
0.712058
0.712063
0.712069
0.712074
0.712074
)
;
    }
}


// ************************************************************************* //
