/*--------------------------------*- C++ -*----------------------------------*\
| =========                 |                                                 |
| \\      /  F ield         | OpenFOAM: The Open Source CFD Toolbox           |
|  \\    /   O peration     | Version:  4.1                                   |
|   \\  /    A nd           | Web:      www.OpenFOAM.org                      |
|    \\/     M anipulation  |                                                 |
\*---------------------------------------------------------------------------*/
FoamFile
{
    version     2.0;
    format      ascii;
    class       volVectorField;
    location    "0.036";
    object      U;
}
// * * * * * * * * * * * * * * * * * * * * * * * * * * * * * * * * * * * * * //

dimensions      [0 1 -1 0 0 0 0];

internalField   nonuniform List<vector> 
441
(
(-9.66661e-05 7.5992e-05 0)
(-0.000488627 0.00028521 0)
(-0.00110248 0.00050373 0)
(-0.00189123 0.000661595 0)
(-0.00278 0.000741325 0)
(-0.00368764 0.000744329 0)
(-0.00453897 0.000679911 0)
(-0.00527038 0.000560578 0)
(-0.00583196 0.000399762 0)
(-0.00618777 0.000210858 0)
(-0.00631556 7.02754e-06 0)
(-0.00620655 -0.000198546 0)
(-0.00586561 -0.000392249 0)
(-0.00531207 -0.000559718 0)
(-0.00458063 -0.000685864 0)
(-0.00372206 -0.000755477 0)
(-0.00280266 -0.000754696 0)
(-0.0019015 -0.000673742 0)
(-0.00110349 -0.000511899 0)
(-0.00048577 -0.000288469 0)
(-9.51965e-05 -7.56988e-05 0)
(-0.000353967 0.000440539 0)
(-0.00157405 0.0013802 0)
(-0.00330544 0.00223564 0)
(-0.00542341 0.00283415 0)
(-0.0077496 0.00312194 0)
(-0.010092 0.00310557 0)
(-0.0122714 0.00282128 0)
(-0.0141346 0.00231829 0)
(-0.0155606 0.00164988 0)
(-0.0164622 0.00086938 0)
(-0.0167852 2.9304e-05 0)
(-0.0165082 -0.000817747 0)
(-0.0156436 -0.00161745 0)
(-0.0142387 -0.00231255 0)
(-0.0123777 -0.00284295 0)
(-0.0101833 -0.0031483 0)
(-0.00781427 -0.00317396 0)
(-0.00545853 -0.00288172 0)
(-0.00331675 -0.00226769 0)
(-0.00157296 -0.00139285 0)
(-0.000352259 -0.000439833 0)
(-0.000643035 0.00106591 0)
(-0.00269586 0.00307004 0)
(-0.00545805 0.00475306 0)
(-0.00873102 0.00588691 0)
(-0.0122578 0.00640129 0)
(-0.0157678 0.00631906 0)
(-0.0190093 0.00571339 0)
(-0.0217676 0.00468071 0)
(-0.0238729 0.00332501 0)
(-0.0252022 0.00175037 0)
(-0.0256795 5.92756e-05 0)
(-0.0252747 -0.00164561 0)
(-0.0240046 -0.00325832 0)
(-0.0219352 -0.00466714 0)
(-0.0191842 -0.00575485 0)
(-0.0159231 -0.00640357 0)
(-0.0123745 -0.00650595 0)
(-0.00880205 -0.00598442 0)
(-0.0054894 -0.00482072 0)
(-0.00270285 -0.0030988 0)
(-0.000642866 -0.00106637 0)
(-0.000924274 0.00195397 0)
(-0.00378212 0.00535879 0)
(-0.00751682 0.00805549 0)
(-0.0118504 0.00980501 0)
(-0.0164508 0.0105478 0)
(-0.0209809 0.0103407 0)
(-0.0251334 0.00930749 0)
(-0.028649 0.00760298 0)
(-0.0313245 0.00539175 0)
(-0.0330134 0.00283731 0)
(-0.0336247 0.000100008 0)
(-0.0331219 -0.00265988 0)
(-0.0315233 -0.00527685 0)
(-0.0289054 -0.00757592 0)
(-0.0254068 -0.00937258 0)
(-0.0212316 -0.0104797 0)
(-0.0166485 -0.010724 0)
(-0.0119811 -0.00997339 0)
(-0.00758464 -0.00817686 0)
(-0.00380589 -0.00541488 0)
(-0.000927797 -0.00195862 0)
(-0.00119744 0.00310164 0)
(-0.00484338 0.00824721 0)
(-0.00952595 0.0121482 0)
(-0.0148811 0.0145893 0)
(-0.0204981 0.0155519 0)
(-0.0259766 0.0151506 0)
(-0.0309614 0.0135774 0)
(-0.0351599 0.0110593 0)
(-0.038346 0.00783115 0)
(-0.0403587 0.00412307 0)
(-0.0410978 0.000158433 0)
(-0.0405213 -0.00384043 0)
(-0.0386462 -0.00764363 0)
(-0.035552 -0.0110066 0)
(-0.0313876 -0.0136684 0)
(-0.0263784 -0.0153604 0)
(-0.0208281 -0.0158268 0)
(-0.0151128 -0.0148604 0)
(-0.00965855 -0.0123523 0)
(-0.00489883 -0.00834988 0)
(-0.00120832 -0.00311649 0)
(-0.00147253 0.00451235 0)
(-0.00591796 0.011748 0)
(-0.0115591 0.0170495 0)
(-0.0179373 0.0202554 0)
(-0.0245574 0.0214201 0)
(-0.0309553 0.0207445 0)
(-0.0367337 0.0185115 0)
(-0.0415743 0.015036 0)
(-0.0452376 0.0106338 0)
(-0.0475559 0.0056071 0)
(-0.0484247 0.000244927 0)
(-0.0477976 -0.00516711 0)
(-0.0456867 -0.0103331 0)
(-0.0421675 -0.0149348 0)
(-0.0373896 -0.018627 0)
(-0.0315884 -0.0210453 0)
(-0.0250942 -0.0218313 0)
(-0.0183313 -0.0206761 0)
(-0.0117995 -0.0173813 0)
(-0.00602824 -0.0119291 0)
(-0.00149654 -0.00454862 0)
(-0.00176049 0.00620056 0)
(-0.00704616 0.0158926 0)
(-0.0136855 0.0227952 0)
(-0.0211131 0.0268321 0)
(-0.0287425 0.0281679 0)
(-0.036046 0.027124 0)
(-0.0425894 0.0241013 0)
(-0.0480385 0.0195216 0)
(-0.0521506 0.0137919 0)
(-0.0547597 0.00729085 0)
(-0.0557626 0.000372673 0)
(-0.05511 -0.00661628 0)
(-0.0528054 -0.0133161 0)
(-0.0489126 -0.0193339 0)
(-0.0435703 -0.0242328 0)
(-0.0370118 -0.0275382 0)
(-0.0295832 -0.0287646 0)
(-0.0217517 -0.0274679 0)
(-0.0140927 -0.023321 0)
(-0.00724382 -0.0162017 0)
(-0.00180583 -0.00627732 0)
(-0.00206932 0.00819103 0)
(-0.00825679 0.0207281 0)
(-0.0159486 0.0294314 0)
(-0.0244562 0.0343497 0)
(-0.0330944 0.0358039 0)
(-0.0412747 0.0342778 0)
(-0.0485356 0.0303232 0)
(-0.0545398 0.0244899 0)
(-0.0590552 0.0172869 0)
(-0.061929 0.00917062 0)
(-0.0630668 0.000556484 0)
(-0.0624184 -0.00815562 0)
(-0.0599752 -0.0165487 0)
(-0.0557797 -0.0241579 0)
(-0.0499461 -0.0304509 0)
(-0.0426888 -0.0348271 0)
(-0.0343536 -0.0366457 0)
(-0.0254396 -0.0352864 0)
(-0.0165974 -0.0302428 0)
(-0.00858412 -0.0212378 0)
(-0.00214682 -0.00833811 0)
(-0.00240174 0.0105155 0)
(-0.00955792 0.0263079 0)
(-0.0183491 0.0369993 0)
(-0.027943 0.0428193 0)
(-0.0375502 0.0443054 0)
(-0.0465291 0.0421566 0)
(-0.0544072 0.0371144 0)
(-0.0608643 0.0298801 0)
(-0.0656974 0.0210738 0)
(-0.0687829 0.0112283 0)
(-0.0700449 0.000810758 0)
(-0.0694362 -0.00973863 0)
(-0.0669329 -0.0199589 0)
(-0.0625457 -0.0293224 0)
(-0.0563461 -0.0372011 0)
(-0.0485069 -0.0428553 0)
(-0.0393491 -0.0454577 0)
(-0.0293835 -0.0441615 0)
(-0.0193266 -0.0382158 0)
(-0.0100661 -0.0271179 0)
(-0.00252477 -0.0107765 0)
(-0.00275283 0.0132078 0)
(-0.010928 0.032677 0)
(-0.0208279 0.0455122 0)
(-0.0314525 0.0522036 0)
(-0.0419079 0.0535857 0)
(-0.0515163 0.0506398 0)
(-0.0598209 0.0443424 0)
(-0.066547 0.0355707 0)
(-0.071547 0.0250626 0)
(-0.0747463 0.0134202 0)
(-0.0761015 0.00114618 0)
(-0.075574 -0.0112992 0)
(-0.0731222 -0.0234324 0)
(-0.0687134 -0.0346804 0)
(-0.0623554 -0.0443271 0)
(-0.0541491 -0.0514852 0)
(-0.0443548 -0.0551093 0)
(-0.0334604 -0.054067 0)
(-0.0222268 -0.0472783 0)
(-0.0116747 -0.0339164 0)
(-0.0029369 -0.0136424 0)
(-0.00310715 0.0162969 0)
(-0.0123052 0.0398526 0)
(-0.0232438 0.0549241 0)
(-0.034733 0.0623773 0)
(-0.0457829 0.0634525 0)
(-0.0557121 0.0594957 0)
(-0.0641197 0.0517703 0)
(-0.0708159 0.0413523 0)
(-0.0757409 0.0290977 0)
(-0.0788943 0.0156637 0)
(-0.0802811 0.00156494 0)
(-0.0798799 -0.0127479 0)
(-0.0776309 -0.0267993 0)
(-0.0734469 -0.0399987 0)
(-0.0672495 -0.0515612 0)
(-0.059031 -0.0604533 0)
(-0.0489419 -0.0653847 0)
(-0.037394 -0.0648721 0)
(-0.025149 -0.0573989 0)
(-0.0133486 -0.0416767 0)
(-0.00336882 -0.0169826 0)
(-0.00343423 0.0197989 0)
(-0.0135705 0.047798 0)
(-0.0253438 0.0650884 0)
(-0.0373567 0.0730775 0)
(-0.0485529 0.0735563 0)
(-0.0583005 0.0683359 0)
(-0.0663123 0.0590196 0)
(-0.0725333 0.0468984 0)
(-0.0770297 0.0329377 0)
(-0.0799011 0.0178251 0)
(-0.0812186 0.00205452 0)
(-0.0809876 -0.0139706 0)
(-0.0791328 -0.0298232 0)
(-0.0755064 -0.0449355 0)
(-0.0699227 -0.0584886 0)
(-0.0622262 -0.069321 0)
(-0.0523977 -0.075884 0)
(-0.0406964 -0.0762788 0)
(-0.0278099 -0.0684231 0)
(-0.0149598 -0.0503783 0)
(-0.00378906 -0.0208302 0)
(-0.0036806 0.0237061 0)
(-0.0145206 0.0563886 0)
(-0.0267123 0.0757042 0)
(-0.0386525 0.0838416 0)
(-0.0492799 0.0833328 0)
(-0.0580962 0.0765675 0)
(-0.0650044 0.0655356 0)
(-0.0701408 0.0517434 0)
(-0.0737342 0.0362407 0)
(-0.0760068 0.0197093 0)
(-0.0771093 0.00258085 0)
(-0.0770838 -0.0148326 0)
(-0.0758468 -0.0322003 0)
(-0.0731913 -0.0490296 0)
(-0.0688144 -0.0645201 0)
(-0.0623799 -0.0774266 0)
(-0.0536344 -0.0859553 0)
(-0.0425855 -0.0877441 0)
(-0.02973 -0.0800018 0)
(-0.0162793 -0.0598896 0)
(-0.00413981 -0.0251901 0)
(-0.00375481 0.0279716 0)
(-0.0148158 0.0653643 0)
(-0.0266847 0.0862445 0)
(-0.0375953 0.0939324 0)
(-0.046597 0.0919416 0)
(-0.0534456 0.0833543 0)
(-0.0583238 0.0705684 0)
(-0.0616117 0.0552764 0)
(-0.0637247 0.0385648 0)
(-0.065015 0.0210592 0)
(-0.0657163 0.00308242 0)
(-0.0659137 -0.0151902 0)
(-0.0655275 -0.0335736 0)
(-0.0643076 -0.0517091 0)
(-0.0618439 -0.0688866 0)
(-0.0576099 -0.0838539 0)
(-0.0510664 -0.0946319 0)
(-0.0418598 -0.098391 0)
(-0.030132 -0.0914986 0)
(-0.0169173 -0.0699026 0)
(-0.00432016 -0.0300173 0)
(-0.00349626 0.0324842 0)
(-0.0138738 0.0742578 0)
(-0.0241819 0.0958579 0)
(-0.0326169 0.10225 0)
(-0.0385327 0.0982122 0)
(-0.0420914 0.0876001 0)
(-0.0438384 0.0731845 0)
(-0.0444222 0.0567672 0)
(-0.0444354 0.0393933 0)
(-0.0443392 0.0215712 0)
(-0.0444335 0.003469 0)
(-0.0448439 -0.0149112 0)
(-0.0455108 -0.0335695 0)
(-0.0461751 -0.0523368 0)
(-0.0463644 -0.0706759 0)
(-0.0453971 -0.0874404 0)
(-0.0424435 -0.100591 0)
(-0.0367019 -0.106914 0)
(-0.0277622 -0.101868 0)
(-0.016208 -0.0798365 0)
(-0.00415321 -0.0351838 0)
(-0.00260627 0.0370211 0)
(-0.0106436 0.0822742 0)
(-0.0173863 0.103229 0)
(-0.0212716 0.107239 0)
(-0.0222359 0.100623 0)
(-0.0209925 0.0879883 0)
(-0.0184747 0.0723405 0)
(-0.0155551 0.0554468 0)
(-0.0129342 0.038204 0)
(-0.0111171 0.0209378 0)
(-0.0104242 0.00363009 0)
(-0.0110046 -0.0139044 0)
(-0.0128363 -0.0318653 0)
(-0.0157044 -0.0503069 0)
(-0.0191611 -0.0689406 0)
(-0.0224776 -0.0868629 0)
(-0.0246249 -0.102178 0)
(-0.0243615 -0.11151 0)
(-0.0205604 -0.109507 0)
(-0.0129741 -0.0886886 0)
(-0.00331607 -0.0404185 0)
(-0.000475794 0.0411342 0)
(-0.00309003 0.0880623 0)
(-0.00309409 0.106379 0)
(0.00034745 0.10682 0)
(0.00643521 0.0973662 0)
(0.0138959 0.0831278 0)
(0.0215383 0.067056 0)
(0.0284336 0.0506691 0)
(0.0339268 0.0345941 0)
(0.0375864 0.018926 0)
(0.0391471 0.00345955 0)
(0.0384695 -0.0121545 0)
(0.0355268 -0.0282867 0)
(0.0304262 -0.0452046 0)
(0.0234661 -0.0629054 0)
(0.0152308 -0.0808551 0)
(0.00670567 -0.0975596 0)
(-0.000650228 -0.109882 0)
(-0.005036 -0.112075 0)
(-0.00501149 -0.0947803 0)
(-0.00116838 -0.0451802 0)
(0.00430787 0.0439125 0)
(0.013039 0.0893259 0)
(0.0245892 0.10245 0)
(0.0385773 0.0984618 0)
(0.0534611 0.086617 0)
(0.0678193 0.0718947 0)
(0.0806244 0.0567362 0)
(0.0912239 0.0421714 0)
(0.0992403 0.028469 0)
(0.104465 0.0154937 0)
(0.106778 0.00290097 0)
(0.106091 -0.0097504 0)
(0.102332 -0.022922 0)
(0.095451 -0.037021 0)
(0.0854705 -0.0522918 0)
(0.0725872 -0.068619 0)
(0.0573366 -0.0851417 0)
(0.0408221 -0.0994969 0)
(0.0249252 -0.10641 0)
(0.0121125 -0.0953775 0)
(0.00374197 -0.0483965 0)
(0.0158763 0.0431261 0)
(0.0473195 0.0817807 0)
(0.0767429 0.0874702 0)
(0.103567 0.0795948 0)
(0.127156 0.0671892 0)
(0.147179 0.0540542 0)
(0.163546 0.0416594 0)
(0.17631 0.0304179 0)
(0.185595 0.0202656 0)
(0.191528 0.0109218 0)
(0.194187 0.00200841 0)
(0.193574 -0.00689428 0)
(0.189587 -0.0162166 0)
(0.182024 -0.0263726 0)
(0.170581 -0.0377159 0)
(0.154896 -0.0504418 0)
(0.134621 -0.0643532 0)
(0.109597 -0.0782761 0)
(0.0802324 -0.0886219 0)
(0.0480275 -0.0858159 0)
(0.0155949 -0.0476189 0)
(0.0495964 0.0348917 0)
(0.122881 0.0596305 0)
(0.174185 0.0580253 0)
(0.210715 0.0495418 0)
(0.238017 0.0400866 0)
(0.25878 0.0313034 0)
(0.274532 0.0236028 0)
(0.286202 0.0169456 0)
(0.294399 0.0111322 0)
(0.299527 0.00590585 0)
(0.301816 0.000992553 0)
(0.30134 -0.00388586 0)
(0.298011 -0.00900719 0)
(0.291562 -0.0146464 0)
(0.281503 -0.0210688 0)
(0.267041 -0.0285106 0)
(0.246924 -0.0371202 0)
(0.219116 -0.0467623 0)
(0.180383 -0.0563333 0)
(0.125281 -0.0604984 0)
(0.0497151 -0.0385585 0)
(0.182891 0.00469285 0)
(0.296902 0.00840575 0)
(0.351047 0.012026 0)
(0.378705 0.0118383 0)
(0.395781 0.0100547 0)
(0.407283 0.00797529 0)
(0.41538 0.00602794 0)
(0.421086 0.00431153 0)
(0.424956 0.00280688 0)
(0.427312 0.00145629 0)
(0.428331 0.000190646 0)
(0.428081 -0.00106072 0)
(0.426525 -0.00236544 0)
(0.42351 -0.00378271 0)
(0.418725 -0.00535126 0)
(0.411585 -0.0070598 0)
(0.400946 -0.0087734 0)
(0.384282 -0.0100704 0)
(0.355786 -0.00991342 0)
(0.298536 -0.00717045 0)
(0.181167 -0.0073343 0)
)
;

boundaryField
{
    movingWall
    {
        type            fixedValue;
        value           uniform (0.5 0 0);
    }
    fixedWalls
    {
        type            noSlip;
    }
    frontAndBack
    {
        type            empty;
    }
}


// ************************************************************************* //
