/*--------------------------------*- C++ -*----------------------------------*\
| =========                 |                                                 |
| \\      /  F ield         | OpenFOAM: The Open Source CFD Toolbox           |
|  \\    /   O peration     | Version:  4.1                                   |
|   \\  /    A nd           | Web:      www.OpenFOAM.org                      |
|    \\/     M anipulation  |                                                 |
\*---------------------------------------------------------------------------*/
FoamFile
{
    version     2.0;
    format      ascii;
    class       volScalarField;
    location    "325";
    object      p;
}
// * * * * * * * * * * * * * * * * * * * * * * * * * * * * * * * * * * * * * //

dimensions      [1 -1 -2 0 0 0 0];

internalField   nonuniform List<scalar> 
3264
(
0.712488
0.712486
0.712485
0.712485
0.712485
0.712485
0.712486
0.712488
0.712491
0.712494
0.712498
0.712504
0.71251
0.712517
0.712525
0.712533
0.712543
0.712554
0.712567
0.71258
0.712594
0.71261
0.712627
0.712646
0.712667
0.712689
0.712714
0.712741
0.71277
0.712802
0.712837
0.712875
0.712916
0.712961
0.713009
0.713061
0.713116
0.713174
0.713236
0.713301
0.713369
0.713439
0.713511
0.713584
0.713659
0.713734
0.713809
0.713883
0.713955
0.714026
0.714093
0.714158
0.714219
0.714276
0.714329
0.714377
0.71442
0.714458
0.714491
0.714519
0.714543
0.714562
0.714577
0.714588
0.714596
0.714601
0.714604
0.714604
0.714603
0.714601
0.714598
0.714594
0.714591
0.714587
0.714584
0.714582
0.71458
0.714578
0.714578
0.714578
0.714579
0.714581
0.714583
0.714586
0.714589
0.714593
0.714597
0.714601
0.714605
0.714609
0.714613
0.714617
0.714621
0.714624
0.714627
0.71463
0.714633
0.714635
0.714637
0.714639
0.714641
0.714642
0.714643
0.714644
0.714645
0.714646
0.714647
0.714647
0.714648
0.714649
0.714649
0.71465
0.714651
0.714652
0.714653
0.714654
0.714656
0.714658
0.71466
0.714662
0.714665
0.714669
0.714672
0.714677
0.714681
0.714686
0.71469
0.714695
0.714701
0.714706
0.714711
0.714715
0.71472
0.714724
0.714728
0.714731
0.714734
0.714736
0.714737
0.714737
0.714737
0.714736
0.714734
0.714731
0.714727
0.714723
0.714718
0.714713
0.714706
0.7147
0.714693
0.714686
0.714678
0.71467
0.714662
0.714654
0.714646
0.714639
0.714631
0.714623
0.714615
0.714608
0.7146
0.714593
0.714586
0.714579
0.714572
0.714566
0.714559
0.714552
0.714546
0.714539
0.714532
0.714525
0.714518
0.714511
0.714503
0.714496
0.714488
0.71448
0.714472
0.714463
0.714455
0.714446
0.714437
0.714428
0.714418
0.714409
0.714399
0.714389
0.71438
0.71437
0.71436
0.71435
0.71434
0.71433
0.71432
0.71431
0.714301
0.714291
0.71249
0.712488
0.712487
0.712487
0.712487
0.712488
0.712489
0.712491
0.712493
0.712496
0.7125
0.712506
0.712512
0.712518
0.712526
0.712535
0.712545
0.712556
0.712568
0.712582
0.712596
0.712612
0.712629
0.712648
0.712668
0.71269
0.712714
0.712741
0.71277
0.712801
0.712836
0.712873
0.712914
0.712958
0.713005
0.713057
0.713111
0.713169
0.71323
0.713295
0.713362
0.713432
0.713503
0.713577
0.713651
0.713726
0.7138
0.713874
0.713947
0.714017
0.714085
0.71415
0.714211
0.714268
0.71432
0.714368
0.714412
0.71445
0.714483
0.714512
0.714536
0.714555
0.71457
0.714582
0.71459
0.714596
0.714599
0.7146
0.714599
0.714598
0.714595
0.714592
0.714589
0.714587
0.714584
0.714582
0.714581
0.71458
0.71458
0.714581
0.714582
0.714584
0.714587
0.71459
0.714593
0.714597
0.714601
0.714605
0.714609
0.714613
0.714616
0.71462
0.714624
0.714627
0.71463
0.714632
0.714635
0.714637
0.714639
0.714641
0.714642
0.714643
0.714644
0.714645
0.714646
0.714647
0.714647
0.714648
0.714648
0.714649
0.714649
0.71465
0.71465
0.714651
0.714652
0.714653
0.714655
0.714657
0.714659
0.714661
0.714664
0.714667
0.714671
0.714675
0.714679
0.714684
0.714688
0.714693
0.714698
0.714703
0.714708
0.714713
0.714718
0.714722
0.714726
0.714729
0.714732
0.714734
0.714735
0.714736
0.714736
0.714735
0.714733
0.71473
0.714727
0.714723
0.714718
0.714712
0.714706
0.7147
0.714693
0.714686
0.714678
0.71467
0.714663
0.714655
0.714647
0.714639
0.714631
0.714623
0.714615
0.714608
0.7146
0.714593
0.714586
0.714579
0.714572
0.714565
0.714559
0.714552
0.714545
0.714539
0.714532
0.714525
0.714518
0.714511
0.714503
0.714496
0.714488
0.71448
0.714472
0.714463
0.714455
0.714446
0.714437
0.714428
0.714418
0.714409
0.714399
0.714389
0.71438
0.71437
0.71436
0.71435
0.71434
0.71433
0.71432
0.71431
0.714301
0.714291
0.712491
0.712489
0.712488
0.712487
0.712487
0.712487
0.712488
0.71249
0.712492
0.712495
0.712499
0.712504
0.71251
0.712517
0.712525
0.712534
0.712544
0.712555
0.712567
0.71258
0.712595
0.71261
0.712627
0.712646
0.712666
0.712688
0.712712
0.712738
0.712766
0.712797
0.712831
0.712868
0.712909
0.712952
0.713
0.71305
0.713105
0.713162
0.713223
0.713288
0.713355
0.713424
0.713496
0.713569
0.713643
0.713718
0.713792
0.713866
0.713938
0.714008
0.714076
0.714141
0.714202
0.714259
0.714311
0.714359
0.714402
0.71444
0.714473
0.714502
0.714525
0.714545
0.71456
0.714572
0.71458
0.714586
0.714589
0.71459
0.71459
0.714589
0.714587
0.714584
0.714582
0.714579
0.714577
0.714576
0.714575
0.714575
0.714576
0.714577
0.714579
0.714582
0.714585
0.714588
0.714592
0.714597
0.714601
0.714606
0.71461
0.714614
0.714618
0.714622
0.714626
0.714629
0.714632
0.714635
0.714637
0.714639
0.714641
0.714642
0.714644
0.714645
0.714646
0.714646
0.714647
0.714648
0.714648
0.714648
0.714649
0.714649
0.71465
0.71465
0.714651
0.714651
0.714652
0.714653
0.714655
0.714656
0.714658
0.714661
0.714663
0.714666
0.71467
0.714674
0.714678
0.714682
0.714687
0.714692
0.714697
0.714702
0.714707
0.714712
0.714717
0.714721
0.714725
0.714728
0.714731
0.714733
0.714734
0.714735
0.714735
0.714734
0.714732
0.714729
0.714726
0.714722
0.714717
0.714712
0.714706
0.7147
0.714693
0.714686
0.714678
0.71467
0.714663
0.714655
0.714647
0.714639
0.714631
0.714623
0.714615
0.714608
0.7146
0.714593
0.714586
0.714579
0.714572
0.714566
0.714559
0.714552
0.714545
0.714539
0.714532
0.714525
0.714518
0.714511
0.714503
0.714496
0.714488
0.71448
0.714472
0.714463
0.714455
0.714446
0.714437
0.714428
0.714418
0.714409
0.714399
0.714389
0.71438
0.71437
0.71436
0.71435
0.71434
0.71433
0.71432
0.71431
0.714301
0.714291
0.712485
0.712485
0.712484
0.712484
0.712484
0.712485
0.712486
0.712487
0.71249
0.712493
0.712497
0.712502
0.712508
0.712515
0.712523
0.712532
0.712542
0.712553
0.712565
0.712578
0.712593
0.712608
0.712625
0.712643
0.712663
0.712684
0.712708
0.712733
0.712762
0.712792
0.712826
0.712862
0.712902
0.712945
0.712992
0.713042
0.713096
0.713153
0.713214
0.713278
0.713345
0.713414
0.713485
0.713558
0.713631
0.713705
0.713779
0.713852
0.713924
0.713993
0.71406
0.714124
0.714184
0.71424
0.714292
0.714338
0.714381
0.714418
0.71445
0.714478
0.714501
0.71452
0.714535
0.714546
0.714554
0.71456
0.714563
0.714565
0.714566
0.714565
0.714564
0.714562
0.714561
0.71456
0.714559
0.714559
0.714559
0.71456
0.714562
0.714565
0.714568
0.714572
0.714577
0.714582
0.714587
0.714592
0.714598
0.714603
0.714609
0.714614
0.714619
0.714624
0.714628
0.714632
0.714635
0.714638
0.714641
0.714643
0.714645
0.714646
0.714647
0.714648
0.714649
0.71465
0.71465
0.71465
0.714651
0.714651
0.714651
0.714651
0.714651
0.714652
0.714652
0.714652
0.714653
0.714654
0.714655
0.714657
0.714658
0.714661
0.714663
0.714666
0.714669
0.714673
0.714677
0.714681
0.714686
0.714691
0.714696
0.7147
0.714705
0.71471
0.714714
0.714719
0.714722
0.714726
0.714728
0.71473
0.714732
0.714732
0.714732
0.714731
0.714729
0.714727
0.714724
0.71472
0.714715
0.71471
0.714704
0.714698
0.714691
0.714684
0.714677
0.71467
0.714662
0.714654
0.714646
0.714639
0.714631
0.714623
0.714616
0.714608
0.714601
0.714594
0.714587
0.71458
0.714573
0.714566
0.714559
0.714553
0.714546
0.714539
0.714532
0.714525
0.714518
0.714511
0.714504
0.714496
0.714488
0.71448
0.714472
0.714463
0.714455
0.714446
0.714437
0.714428
0.714418
0.714409
0.714399
0.714389
0.71438
0.71437
0.71436
0.71435
0.71434
0.71433
0.71432
0.71431
0.714301
0.714291
0.712483
0.712483
0.71248
0.71248
0.712479
0.71248
0.712481
0.712483
0.712485
0.712489
0.712493
0.712499
0.712505
0.712512
0.71252
0.712529
0.712539
0.712551
0.712563
0.712576
0.71259
0.712605
0.712622
0.71264
0.71266
0.712681
0.712704
0.71273
0.712757
0.712788
0.712821
0.712857
0.712897
0.71294
0.712987
0.713037
0.71309
0.713147
0.713208
0.713271
0.713337
0.713406
0.713476
0.713548
0.713621
0.713694
0.713766
0.713838
0.713908
0.713976
0.714041
0.714102
0.71416
0.714214
0.714263
0.714308
0.714348
0.714383
0.714413
0.714439
0.714461
0.714478
0.714492
0.714502
0.71451
0.714516
0.714519
0.714521
0.714523
0.714523
0.714523
0.714523
0.714523
0.714523
0.714524
0.714526
0.714528
0.714531
0.714535
0.71454
0.714545
0.714551
0.714558
0.714564
0.714572
0.714579
0.714586
0.714594
0.714601
0.714608
0.714615
0.714621
0.714627
0.714632
0.714637
0.714641
0.714645
0.714648
0.71465
0.714652
0.714654
0.714655
0.714656
0.714656
0.714657
0.714657
0.714657
0.714657
0.714656
0.714656
0.714656
0.714656
0.714656
0.714656
0.714657
0.714657
0.714658
0.71466
0.714661
0.714663
0.714665
0.714668
0.714671
0.714674
0.714678
0.714682
0.714686
0.71469
0.714695
0.714699
0.714704
0.714708
0.714712
0.714716
0.714719
0.714722
0.714725
0.714726
0.714727
0.714728
0.714727
0.714726
0.714724
0.714722
0.714719
0.714715
0.714711
0.714706
0.7147
0.714694
0.714688
0.714681
0.714675
0.714668
0.71466
0.714653
0.714646
0.714638
0.714631
0.714623
0.714616
0.714609
0.714602
0.714595
0.714588
0.714581
0.714574
0.714567
0.71456
0.714554
0.714547
0.71454
0.714533
0.714526
0.714519
0.714511
0.714504
0.714496
0.714488
0.71448
0.714472
0.714463
0.714454
0.714446
0.714436
0.714427
0.714418
0.714408
0.714399
0.714389
0.714379
0.71437
0.71436
0.71435
0.71434
0.71433
0.71432
0.71431
0.7143
0.714291
0.712451
0.712466
0.712465
0.712471
0.712472
0.712475
0.712477
0.712479
0.712482
0.712486
0.712491
0.712496
0.712503
0.71251
0.712519
0.712528
0.712538
0.712549
0.712561
0.712574
0.712589
0.712604
0.712621
0.712639
0.712658
0.71268
0.712703
0.712728
0.712756
0.712787
0.71282
0.712856
0.712896
0.712939
0.712986
0.713036
0.713089
0.713146
0.713206
0.713269
0.713334
0.713402
0.713471
0.713541
0.713612
0.713683
0.713754
0.713823
0.71389
0.713955
0.714016
0.714075
0.714129
0.714179
0.714225
0.714266
0.714302
0.714333
0.714361
0.714383
0.714402
0.714418
0.71443
0.714439
0.714446
0.714452
0.714455
0.714458
0.71446
0.714462
0.714464
0.714466
0.714468
0.714471
0.714474
0.714478
0.714483
0.714489
0.714496
0.714503
0.714511
0.714519
0.714528
0.714537
0.714547
0.714557
0.714567
0.714577
0.714587
0.714597
0.714606
0.714615
0.714623
0.71463
0.714637
0.714643
0.714649
0.714654
0.714658
0.714661
0.714663
0.714665
0.714667
0.714668
0.714668
0.714669
0.714669
0.714668
0.714668
0.714667
0.714667
0.714667
0.714666
0.714666
0.714666
0.714666
0.714666
0.714667
0.714668
0.714669
0.714671
0.714673
0.714676
0.714678
0.714681
0.714685
0.714688
0.714692
0.714696
0.7147
0.714703
0.714707
0.71471
0.714713
0.714716
0.714718
0.714719
0.71472
0.714721
0.714721
0.71472
0.714719
0.714717
0.714714
0.714711
0.714707
0.714703
0.714698
0.714693
0.714688
0.714682
0.714676
0.71467
0.714664
0.714657
0.714651
0.714644
0.714637
0.71463
0.714624
0.714617
0.71461
0.714603
0.714596
0.71459
0.714583
0.714576
0.714569
0.714562
0.714556
0.714549
0.714542
0.714534
0.714527
0.71452
0.714512
0.714504
0.714496
0.714488
0.71448
0.714472
0.714463
0.714454
0.714445
0.714436
0.714427
0.714417
0.714408
0.714398
0.714389
0.714379
0.714369
0.714359
0.71435
0.71434
0.71433
0.71432
0.71431
0.7143
0.714291
0.71245
0.712467
0.712465
0.712468
0.712469
0.712471
0.712473
0.712476
0.71248
0.712484
0.71249
0.712495
0.712502
0.71251
0.712518
0.712528
0.712538
0.712549
0.712562
0.712575
0.712589
0.712605
0.712622
0.71264
0.71266
0.712682
0.712706
0.712732
0.71276
0.712791
0.712825
0.712862
0.712903
0.712946
0.712993
0.713043
0.713097
0.713154
0.713213
0.713276
0.71334
0.713406
0.713474
0.713542
0.713611
0.713679
0.713746
0.713811
0.713874
0.713934
0.713991
0.714044
0.714093
0.714138
0.714179
0.714214
0.714246
0.714273
0.714296
0.714315
0.71433
0.714343
0.714353
0.714362
0.714368
0.714373
0.714378
0.714382
0.714386
0.714389
0.714393
0.714398
0.714403
0.714409
0.714415
0.714422
0.71443
0.714439
0.714448
0.714458
0.714469
0.71448
0.714492
0.714504
0.714517
0.714529
0.714542
0.714555
0.714568
0.71458
0.714592
0.714604
0.714615
0.714625
0.714635
0.714644
0.714652
0.714659
0.714665
0.714671
0.714675
0.714679
0.714682
0.714684
0.714685
0.714686
0.714687
0.714687
0.714686
0.714686
0.714685
0.714684
0.714684
0.714683
0.714682
0.714682
0.714681
0.714681
0.714682
0.714682
0.714683
0.714684
0.714686
0.714687
0.714689
0.714692
0.714694
0.714697
0.714699
0.714702
0.714704
0.714707
0.714709
0.71471
0.714712
0.714713
0.714713
0.714713
0.714713
0.714712
0.71471
0.714708
0.714706
0.714703
0.7147
0.714696
0.714692
0.714688
0.714684
0.714679
0.714674
0.714669
0.714664
0.714658
0.714653
0.714647
0.714642
0.714636
0.71463
0.714624
0.714618
0.714611
0.714605
0.714599
0.714592
0.714586
0.714579
0.714572
0.714565
0.714558
0.714551
0.714544
0.714536
0.714529
0.714521
0.714513
0.714505
0.714497
0.714489
0.71448
0.714471
0.714463
0.714454
0.714445
0.714435
0.714426
0.714417
0.714407
0.714397
0.714388
0.714378
0.714369
0.714359
0.714349
0.714339
0.71433
0.71432
0.71431
0.7143
0.714291
0.712295
0.712434
0.712451
0.712472
0.712475
0.712478
0.71248
0.712482
0.712485
0.712489
0.712494
0.712499
0.712506
0.712513
0.712522
0.712531
0.712542
0.712553
0.712566
0.71258
0.712595
0.712611
0.712629
0.712648
0.712669
0.712692
0.712717
0.712744
0.712774
0.712806
0.712841
0.71288
0.712921
0.712966
0.713013
0.713064
0.713118
0.713175
0.713234
0.713296
0.713359
0.713423
0.713489
0.713554
0.713619
0.713683
0.713745
0.713805
0.713863
0.713917
0.713968
0.714014
0.714057
0.714095
0.714128
0.714158
0.714183
0.714205
0.714223
0.714239
0.714251
0.714262
0.714271
0.714278
0.714285
0.714291
0.714297
0.714303
0.71431
0.714316
0.714323
0.714331
0.714339
0.714348
0.714357
0.714368
0.714379
0.71439
0.714402
0.714415
0.714429
0.714442
0.714457
0.714472
0.714487
0.714502
0.714517
0.714533
0.714548
0.714563
0.714578
0.714593
0.714607
0.71462
0.714633
0.714644
0.714655
0.714665
0.714674
0.714682
0.714689
0.714695
0.7147
0.714703
0.714706
0.714709
0.71471
0.714711
0.714711
0.714711
0.71471
0.714709
0.714708
0.714707
0.714706
0.714705
0.714704
0.714703
0.714702
0.714701
0.714701
0.714701
0.714701
0.714702
0.714702
0.714703
0.714704
0.714705
0.714706
0.714707
0.714707
0.714708
0.714708
0.714708
0.714708
0.714707
0.714706
0.714705
0.714703
0.714701
0.714699
0.714696
0.714693
0.71469
0.714687
0.714683
0.714679
0.714676
0.714672
0.714668
0.714664
0.71466
0.714656
0.714652
0.714647
0.714643
0.714638
0.714634
0.714629
0.714624
0.714618
0.714613
0.714607
0.714601
0.714595
0.714589
0.714582
0.714576
0.714569
0.714562
0.714554
0.714547
0.714539
0.714531
0.714523
0.714515
0.714506
0.714498
0.714489
0.71448
0.714471
0.714462
0.714453
0.714444
0.714435
0.714425
0.714416
0.714406
0.714397
0.714387
0.714377
0.714368
0.714358
0.714349
0.714339
0.714329
0.71432
0.71431
0.7143
0.714291
0.713023
0.712966
0.712904
0.712837
0.712764
0.712687
0.7126
0.712481
0.713029
0.712983
0.71292
0.712851
0.712778
0.712699
0.712609
0.712512
0.713033
0.712994
0.712936
0.712871
0.712801
0.71273
0.712659
0.712589
0.713043
0.713009
0.712956
0.712895
0.712831
0.712767
0.712703
0.712645
0.713056
0.713024
0.712974
0.712918
0.712859
0.712802
0.712748
0.7127
0.71307
0.713037
0.712989
0.712935
0.712881
0.712829
0.712781
0.712739
0.713085
0.713048
0.712998
0.712945
0.712894
0.712846
0.712802
0.712763
0.713093
0.713046
0.712996
0.712946
0.712897
0.712852
0.712809
0.71277
0.71242
0.71244
0.71246
0.712471
0.712477
0.712481
0.712483
0.712486
0.712489
0.712493
0.712498
0.712504
0.712511
0.712519
0.712528
0.712538
0.712549
0.712562
0.712575
0.71259
0.712606
0.712624
0.712643
0.712664
0.712687
0.712712
0.712739
0.712768
0.7128
0.712835
0.712873
0.712913
0.712956
0.713003
0.713052
0.713104
0.713158
0.713215
0.713274
0.713334
0.713395
0.713457
0.713519
0.71358
0.713641
0.713699
0.713755
0.713809
0.713859
0.713905
0.713948
0.713987
0.714021
0.714052
0.714079
0.714102
0.714121
0.714138
0.714153
0.714165
0.714176
0.714186
0.714194
0.714203
0.714211
0.714219
0.714228
0.714236
0.714245
0.714255
0.714265
0.714276
0.714287
0.714299
0.714311
0.714324
0.714338
0.714351
0.714366
0.714381
0.714396
0.714412
0.714429
0.714445
0.714462
0.71448
0.714497
0.714515
0.714532
0.71455
0.714567
0.714584
0.7146
0.714616
0.714631
0.714646
0.714659
0.714672
0.714683
0.714694
0.714703
0.714711
0.714718
0.714724
0.714729
0.714733
0.714736
0.714738
0.714739
0.714739
0.714739
0.714739
0.714737
0.714736
0.714734
0.714733
0.714731
0.714729
0.714727
0.714726
0.714724
0.714723
0.714721
0.71472
0.714719
0.714718
0.714717
0.714716
0.714715
0.714713
0.714712
0.714711
0.714709
0.714707
0.714705
0.714702
0.7147
0.714697
0.714694
0.71469
0.714687
0.714683
0.71468
0.714676
0.714673
0.714669
0.714666
0.714663
0.714659
0.714656
0.714653
0.714651
0.714648
0.714645
0.714642
0.714638
0.714635
0.714632
0.714628
0.714624
0.714619
0.714615
0.71461
0.714604
0.714599
0.714593
0.714586
0.71458
0.714573
0.714565
0.714558
0.71455
0.714542
0.714534
0.714525
0.714517
0.714508
0.714499
0.71449
0.714481
0.714471
0.714462
0.714453
0.714443
0.714434
0.714424
0.714415
0.714405
0.714396
0.714386
0.714377
0.714367
0.714358
0.714348
0.714339
0.714329
0.714319
0.71431
0.7143
0.714291
0.712441
0.712451
0.712464
0.712476
0.712484
0.712489
0.712493
0.712496
0.7125
0.712504
0.712509
0.712515
0.712523
0.712531
0.712541
0.712552
0.712564
0.712578
0.712593
0.71261
0.712628
0.712648
0.712669
0.712693
0.712719
0.712746
0.712776
0.712809
0.712844
0.712881
0.712922
0.712965
0.713011
0.713059
0.71311
0.713163
0.713217
0.713274
0.713331
0.71339
0.713448
0.713506
0.713564
0.713619
0.713673
0.713725
0.713773
0.713818
0.71386
0.713898
0.713932
0.713963
0.713989
0.714013
0.714033
0.714051
0.714067
0.71408
0.714093
0.714104
0.714115
0.714126
0.714136
0.714147
0.714157
0.714168
0.714179
0.714191
0.714203
0.714215
0.714227
0.71424
0.714254
0.714268
0.714282
0.714296
0.714311
0.714327
0.714343
0.714359
0.714376
0.714393
0.71441
0.714428
0.714447
0.714465
0.714484
0.714503
0.714522
0.714541
0.71456
0.714579
0.714597
0.714615
0.714633
0.714649
0.714665
0.71468
0.714693
0.714706
0.714718
0.714728
0.714737
0.714745
0.714752
0.714757
0.714761
0.714764
0.714767
0.714768
0.714768
0.714768
0.714767
0.714766
0.714764
0.714762
0.714759
0.714757
0.714754
0.714751
0.714748
0.714745
0.714742
0.714739
0.714736
0.714733
0.71473
0.714727
0.714724
0.714721
0.714717
0.714714
0.71471
0.714706
0.714702
0.714697
0.714693
0.714688
0.714684
0.71468
0.714675
0.714671
0.714667
0.714663
0.714659
0.714656
0.714653
0.714651
0.714648
0.714646
0.714644
0.714642
0.71464
0.714638
0.714637
0.714635
0.714632
0.71463
0.714627
0.714624
0.714621
0.714617
0.714612
0.714607
0.714602
0.714596
0.71459
0.714584
0.714576
0.714569
0.714561
0.714553
0.714545
0.714536
0.714528
0.714519
0.714509
0.7145
0.714491
0.714481
0.714472
0.714462
0.714452
0.714443
0.714433
0.714424
0.714414
0.714404
0.714395
0.714385
0.714376
0.714366
0.714357
0.714348
0.714338
0.714329
0.714319
0.71431
0.7143
0.714291
0.712537
0.712513
0.712507
0.712506
0.712508
0.712509
0.712511
0.712513
0.712516
0.71252
0.712525
0.712532
0.71254
0.712549
0.71256
0.712572
0.712586
0.712601
0.712619
0.712638
0.712658
0.712681
0.712706
0.712733
0.712761
0.712793
0.712826
0.712862
0.712901
0.712942
0.712986
0.713031
0.71308
0.71313
0.713182
0.713235
0.713289
0.713345
0.7134
0.713455
0.713509
0.713562
0.713614
0.713663
0.713709
0.713752
0.713792
0.713828
0.713861
0.713891
0.713917
0.71394
0.713961
0.71398
0.713997
0.714012
0.714026
0.71404
0.714053
0.714065
0.714078
0.71409
0.714103
0.714115
0.714128
0.714141
0.714154
0.714167
0.714181
0.714195
0.714209
0.714223
0.714237
0.714252
0.714267
0.714282
0.714298
0.714314
0.714331
0.714348
0.714365
0.714383
0.714401
0.71442
0.714439
0.714458
0.714478
0.714498
0.714518
0.714538
0.714558
0.714578
0.714598
0.714617
0.714636
0.714654
0.714672
0.714688
0.714704
0.714718
0.714731
0.714743
0.714754
0.714763
0.714771
0.714778
0.714784
0.714788
0.714791
0.714793
0.714794
0.714794
0.714794
0.714792
0.71479
0.714788
0.714785
0.714782
0.714778
0.714774
0.71477
0.714766
0.714761
0.714757
0.714752
0.714747
0.714742
0.714737
0.714732
0.714727
0.714721
0.714716
0.71471
0.714704
0.714699
0.714693
0.714687
0.714681
0.714676
0.71467
0.714665
0.714661
0.714656
0.714652
0.714649
0.714646
0.714643
0.714641
0.714639
0.714638
0.714637
0.714636
0.714635
0.714634
0.714633
0.714632
0.714631
0.714629
0.714627
0.714625
0.714622
0.714619
0.714615
0.71461
0.714605
0.7146
0.714594
0.714587
0.71458
0.714572
0.714564
0.714556
0.714548
0.714539
0.714529
0.71452
0.714511
0.714501
0.714491
0.714482
0.714472
0.714462
0.714452
0.714442
0.714433
0.714423
0.714413
0.714404
0.714394
0.714385
0.714375
0.714366
0.714357
0.714347
0.714338
0.714328
0.714319
0.71431
0.7143
0.714291
0.712599
0.712571
0.712556
0.712549
0.712544
0.712542
0.71254
0.71254
0.712541
0.712544
0.712548
0.712554
0.712562
0.712572
0.712583
0.712597
0.712612
0.712629
0.712648
0.71267
0.712693
0.712719
0.712746
0.712776
0.712809
0.712843
0.712881
0.71292
0.712962
0.713006
0.713052
0.713101
0.71315
0.713202
0.713254
0.713307
0.71336
0.713412
0.713464
0.713515
0.713564
0.71361
0.713655
0.713696
0.713734
0.713769
0.713801
0.713831
0.713857
0.713881
0.713903
0.713923
0.713941
0.713958
0.713974
0.713989
0.714004
0.714018
0.714032
0.714047
0.714061
0.714075
0.714089
0.714103
0.714117
0.714131
0.714145
0.714159
0.714173
0.714187
0.714202
0.714216
0.714231
0.714246
0.714262
0.714277
0.714293
0.71431
0.714327
0.714344
0.714362
0.71438
0.714398
0.714418
0.714437
0.714457
0.714477
0.714498
0.714518
0.714539
0.71456
0.714581
0.714601
0.714622
0.714641
0.71466
0.714679
0.714696
0.714713
0.714728
0.714743
0.714756
0.714768
0.714778
0.714787
0.714795
0.714801
0.714806
0.71481
0.714813
0.714814
0.714815
0.714814
0.714813
0.714811
0.714808
0.714804
0.7148
0.714796
0.714791
0.714786
0.714781
0.714775
0.714769
0.714763
0.714757
0.714751
0.714744
0.714737
0.714731
0.714724
0.714717
0.71471
0.714702
0.714695
0.714689
0.714682
0.714676
0.714669
0.714664
0.714658
0.714653
0.714649
0.714645
0.714642
0.714639
0.714637
0.714635
0.714634
0.714633
0.714632
0.714632
0.714632
0.714631
0.714631
0.714631
0.71463
0.714629
0.714628
0.714626
0.714623
0.71462
0.714617
0.714613
0.714608
0.714602
0.714596
0.71459
0.714582
0.714575
0.714567
0.714558
0.714549
0.71454
0.714531
0.714521
0.714512
0.714502
0.714492
0.714482
0.714472
0.714462
0.714452
0.714442
0.714432
0.714422
0.714413
0.714403
0.714394
0.714384
0.714375
0.714366
0.714356
0.714347
0.714338
0.714328
0.714319
0.71431
0.7143
0.714291
0.71266
0.712631
0.712611
0.712597
0.712587
0.712579
0.712573
0.71257
0.712568
0.712569
0.712572
0.712577
0.712584
0.712594
0.712606
0.71262
0.712636
0.712655
0.712676
0.712699
0.712725
0.712753
0.712783
0.712816
0.712851
0.712889
0.712929
0.712971
0.713015
0.713061
0.713109
0.713158
0.713209
0.71326
0.713311
0.713361
0.713411
0.71346
0.713507
0.713553
0.713596
0.713638
0.713676
0.713712
0.713745
0.713775
0.713802
0.713827
0.713849
0.71387
0.71389
0.713909
0.713927
0.713945
0.713962
0.713979
0.713995
0.714011
0.714027
0.714042
0.714057
0.714071
0.714085
0.714099
0.714114
0.714128
0.714142
0.714156
0.71417
0.714185
0.7142
0.714214
0.714229
0.714245
0.71426
0.714276
0.714293
0.714309
0.714326
0.714344
0.714362
0.71438
0.714399
0.714418
0.714438
0.714458
0.714479
0.714499
0.71452
0.714542
0.714563
0.714584
0.714605
0.714626
0.714646
0.714666
0.714685
0.714703
0.71472
0.714736
0.714751
0.714765
0.714777
0.714788
0.714798
0.714806
0.714813
0.714819
0.714823
0.714826
0.714827
0.714828
0.714827
0.714826
0.714824
0.714821
0.714817
0.714812
0.714807
0.714802
0.714796
0.71479
0.714784
0.714777
0.71477
0.714762
0.714755
0.714747
0.71474
0.714732
0.714724
0.714716
0.714708
0.714701
0.714693
0.714686
0.714679
0.714672
0.714666
0.71466
0.714654
0.714649
0.714645
0.714641
0.714638
0.714636
0.714634
0.714632
0.714631
0.714631
0.71463
0.71463
0.71463
0.71463
0.71463
0.71463
0.71463
0.714629
0.714628
0.714627
0.714624
0.714622
0.714618
0.714614
0.714609
0.714604
0.714598
0.714591
0.714584
0.714576
0.714568
0.714559
0.71455
0.714541
0.714532
0.714522
0.714512
0.714502
0.714492
0.714482
0.714472
0.714462
0.714452
0.714442
0.714432
0.714422
0.714413
0.714403
0.714393
0.714384
0.714375
0.714365
0.714356
0.714347
0.714337
0.714328
0.714319
0.71431
0.7143
0.714291
0.712703
0.712673
0.71265
0.712632
0.712617
0.712605
0.712596
0.712589
0.712586
0.712585
0.712587
0.712591
0.712598
0.712608
0.71262
0.712635
0.712653
0.712672
0.712695
0.712719
0.712747
0.712776
0.712808
0.712843
0.712879
0.712918
0.71296
0.713003
0.713048
0.713095
0.713142
0.713191
0.713241
0.71329
0.713339
0.713388
0.713435
0.71348
0.713524
0.713566
0.713605
0.713641
0.713676
0.713707
0.713737
0.713764
0.71379
0.713815
0.713839
0.713862
0.713884
0.713905
0.713925
0.713943
0.713961
0.713978
0.713994
0.714009
0.714025
0.71404
0.714055
0.714069
0.714084
0.714098
0.714113
0.714127
0.714141
0.714156
0.71417
0.714185
0.7142
0.714215
0.71423
0.714245
0.714261
0.714277
0.714293
0.71431
0.714327
0.714345
0.714363
0.714382
0.714401
0.71442
0.71444
0.714461
0.714481
0.714502
0.714524
0.714545
0.714567
0.714588
0.714609
0.71463
0.714651
0.714671
0.71469
0.714709
0.714726
0.714742
0.714758
0.714772
0.714784
0.714795
0.714805
0.714814
0.714821
0.714826
0.71483
0.714833
0.714835
0.714835
0.714835
0.714833
0.71483
0.714827
0.714823
0.714818
0.714813
0.714807
0.7148
0.714794
0.714787
0.714779
0.714772
0.714764
0.714756
0.714748
0.71474
0.714731
0.714723
0.714715
0.714707
0.714699
0.714691
0.714684
0.714677
0.71467
0.714664
0.714658
0.714653
0.714648
0.714644
0.71464
0.714637
0.714635
0.714633
0.714632
0.714631
0.71463
0.71463
0.71463
0.71463
0.714631
0.714631
0.714631
0.714631
0.71463
0.714629
0.714627
0.714625
0.714622
0.714619
0.714615
0.71461
0.714605
0.714599
0.714592
0.714585
0.714577
0.714569
0.71456
0.714551
0.714541
0.714532
0.714522
0.714512
0.714502
0.714492
0.714482
0.714472
0.714462
0.714452
0.714442
0.714432
0.714422
0.714412
0.714403
0.714393
0.714384
0.714375
0.714365
0.714356
0.714347
0.714337
0.714328
0.714319
0.71431
0.7143
0.714291
0.712728
0.712698
0.712673
0.712651
0.712633
0.712618
0.712607
0.712599
0.712594
0.712592
0.712594
0.712598
0.712605
0.712615
0.712628
0.712643
0.712661
0.712681
0.712704
0.71273
0.712757
0.712788
0.71282
0.712855
0.712892
0.712932
0.712973
0.713016
0.713061
0.713107
0.713154
0.713202
0.713249
0.713297
0.713343
0.713389
0.713433
0.713476
0.713518
0.713558
0.713596
0.713633
0.713669
0.713702
0.713733
0.713763
0.71379
0.713815
0.713839
0.713861
0.713883
0.713903
0.713922
0.71394
0.713958
0.713975
0.713992
0.714008
0.714024
0.714039
0.714054
0.714069
0.714084
0.714098
0.714113
0.714127
0.714141
0.714156
0.71417
0.714185
0.7142
0.714215
0.71423
0.714246
0.714262
0.714278
0.714294
0.714311
0.714329
0.714346
0.714365
0.714383
0.714402
0.714422
0.714442
0.714463
0.714483
0.714505
0.714526
0.714548
0.714569
0.714591
0.714612
0.714633
0.714654
0.714674
0.714693
0.714711
0.714729
0.714745
0.714761
0.714775
0.714787
0.714798
0.714808
0.714817
0.714823
0.714829
0.714833
0.714836
0.714837
0.714838
0.714837
0.714835
0.714833
0.714829
0.714825
0.71482
0.714814
0.714808
0.714801
0.714794
0.714787
0.714779
0.714772
0.714764
0.714756
0.714747
0.714739
0.714731
0.714723
0.714714
0.714706
0.714698
0.714691
0.714684
0.714677
0.71467
0.714664
0.714658
0.714653
0.714648
0.714644
0.71464
0.714637
0.714635
0.714633
0.714632
0.714631
0.714631
0.714631
0.714631
0.714631
0.714631
0.714631
0.714631
0.714631
0.71463
0.714629
0.714628
0.714625
0.714623
0.714619
0.714615
0.71461
0.714605
0.714599
0.714592
0.714585
0.714577
0.714569
0.71456
0.714551
0.714541
0.714532
0.714522
0.714512
0.714502
0.714492
0.714482
0.714472
0.714462
0.714452
0.714442
0.714432
0.714422
0.714412
0.714403
0.714393
0.714384
0.714375
0.714365
0.714356
0.714347
0.714337
0.714328
0.714319
0.71431
0.7143
0.714291
0.712734
0.712703
0.712675
0.712651
0.712631
0.712615
0.712603
0.712595
0.71259
0.712588
0.712589
0.712594
0.712601
0.712611
0.712624
0.712639
0.712657
0.712677
0.7127
0.712725
0.712753
0.712783
0.712815
0.712849
0.712886
0.712925
0.712965
0.713008
0.713052
0.713097
0.713144
0.713191
0.713238
0.713286
0.713333
0.713379
0.713425
0.713469
0.713511
0.713553
0.713592
0.713629
0.713664
0.713697
0.713728
0.713757
0.713785
0.71381
0.713835
0.713858
0.71388
0.713901
0.713921
0.713939
0.713957
0.713975
0.713991
0.714008
0.714023
0.714039
0.714054
0.714069
0.714083
0.714098
0.714112
0.714127
0.714141
0.714156
0.714171
0.714185
0.7142
0.714216
0.714231
0.714247
0.714263
0.714279
0.714295
0.714312
0.71433
0.714348
0.714366
0.714385
0.714405
0.714424
0.714445
0.714465
0.714486
0.714508
0.714529
0.714551
0.714573
0.714594
0.714616
0.714637
0.714658
0.714678
0.714697
0.714715
0.714733
0.714749
0.714764
0.714778
0.714791
0.714802
0.714812
0.71482
0.714826
0.714832
0.714836
0.714838
0.714839
0.714839
0.714838
0.714836
0.714833
0.714829
0.714825
0.714819
0.714813
0.714807
0.7148
0.714793
0.714786
0.714778
0.71477
0.714762
0.714754
0.714746
0.714738
0.714729
0.714721
0.714713
0.714705
0.714698
0.71469
0.714683
0.714676
0.714669
0.714663
0.714658
0.714653
0.714648
0.714644
0.714641
0.714638
0.714636
0.714634
0.714633
0.714632
0.714632
0.714632
0.714632
0.714632
0.714632
0.714632
0.714632
0.714632
0.714631
0.71463
0.714628
0.714626
0.714623
0.71462
0.714615
0.71461
0.714605
0.714599
0.714592
0.714585
0.714577
0.714568
0.71456
0.714551
0.714541
0.714532
0.714522
0.714512
0.714502
0.714492
0.714482
0.714472
0.714462
0.714452
0.714442
0.714432
0.714422
0.714412
0.714403
0.714393
0.714384
0.714375
0.714365
0.714356
0.714347
0.714337
0.714328
0.714319
0.71431
0.7143
0.714291
)
;

boundaryField
{
    inlet
    {
        type            zeroGradient;
    }
    outlet
    {
        type            fixedValue;
        value           uniform 0.714286;
    }