/*--------------------------------*- C++ -*----------------------------------*\
| =========                 |                                                 |
| \\      /  F ield         | OpenFOAM: The Open Source CFD Toolbox           |
|  \\    /   O peration     | Version:  4.1                                   |
|   \\  /    A nd           | Web:      www.OpenFOAM.org                      |
|    \\/     M anipulation  |                                                 |
\*---------------------------------------------------------------------------*/
FoamFile
{
    version     2.0;
    format      ascii;
    class       volScalarField;
    location    "570";
    object      p;
}
// * * * * * * * * * * * * * * * * * * * * * * * * * * * * * * * * * * * * * //

dimensions      [1 -1 -2 0 0 0 0];

internalField   nonuniform List<scalar> 
1275
(
0.71447
0.714424
0.714353
0.714334
0.71424
0.713511
0.713546
0.713583
0.713622
0.713662
0.713703
0.713744
0.713783
0.713822
0.713857
0.71389
0.71392
0.713946
0.713969
0.713987
0.714002
0.714013
0.714021
0.714026
0.714028
0.714029
0.714027
0.714025
0.714022
0.714018
0.714014
0.714011
0.714007
0.714004
0.714001
0.713998
0.713996
0.713993
0.713992
0.71399
0.713988
0.713986
0.713984
0.713982
0.71398
0.713978
0.713976
0.713974
0.713973
0.713972
0.713971
0.713971
0.713972
0.713974
0.713978
0.713983
0.713989
0.713997
0.714006
0.714017
0.71403
0.714044
0.714059
0.714076
0.714094
0.714113
0.714133
0.714155
0.714177
0.7142
0.714223
0.714246
0.714268
0.71429
0.71431
0.714328
0.714343
0.714355
0.714363
0.714365
0.714362
0.714354
0.714339
0.714319
0.714293
0.714263
0.71423
0.714195
0.71416
0.714127
0.714099
0.714076
0.714061
0.714055
0.714058
0.714069
0.714089
0.714114
0.714143
0.714174
0.714204
0.714231
0.714255
0.714275
0.71429
0.714301
0.714309
0.714315
0.71432
0.714326
0.714334
0.714345
0.714359
0.714377
0.714399
0.714424
0.714451
0.71448
0.714509
0.714536
0.714559
0.714575
0.714584
0.714583
0.714572
0.714547
0.714514
0.714468
0.714424
0.714358
0.714335
0.714248
0.713472
0.713508
0.713548
0.71359
0.713635
0.713682
0.713729
0.713777
0.713823
0.713868
0.71391
0.713949
0.713985
0.714016
0.714042
0.714064
0.714082
0.714095
0.714104
0.71411
0.714112
0.714112
0.71411
0.714106
0.714101
0.714095
0.714089
0.714082
0.714076
0.714069
0.714063
0.714058
0.714052
0.714048
0.714043
0.714039
0.714035
0.714031
0.714027
0.714024
0.714021
0.714018
0.714016
0.714014
0.714013
0.714013
0.714013
0.714015
0.714017
0.714021
0.714026
0.714032
0.71404
0.714049
0.714059
0.714071
0.714084
0.714098
0.714113
0.714129
0.714147
0.714165
0.714183
0.714203
0.714223
0.714243
0.714263
0.714282
0.7143
0.714317
0.714331
0.714342
0.714349
0.714352
0.714351
0.714344
0.714331
0.714312
0.714288
0.714258
0.714224
0.714188
0.714149
0.714111
0.714075
0.714044
0.71402
0.714004
0.713999
0.714003
0.714017
0.71404
0.71407
0.714104
0.714139
0.714173
0.714204
0.71423
0.714251
0.714266
0.714276
0.714282
0.714285
0.714287
0.714289
0.714293
0.7143
0.714311
0.714326
0.714346
0.71437
0.714397
0.714427
0.714457
0.714487
0.714514
0.714537
0.714553
0.71456
0.714557
0.714542
0.714516
0.714478
0.714438
0.714378
0.714347
0.714266
0.713443
0.713481
0.713522
0.713567
0.713615
0.713667
0.713719
0.713773
0.713827
0.71388
0.713931
0.713978
0.714023
0.714063
0.714098
0.714128
0.714152
0.714172
0.714186
0.714196
0.714202
0.714204
0.714203
0.714199
0.714194
0.714186
0.714178
0.714169
0.71416
0.71415
0.714141
0.714132
0.714124
0.714115
0.714108
0.714101
0.714094
0.714088
0.714083
0.714078
0.714074
0.71407
0.714067
0.714065
0.714064
0.714063
0.714064
0.714065
0.714068
0.714071
0.714076
0.714082
0.714089
0.714097
0.714106
0.714116
0.714127
0.714139
0.714152
0.714165
0.71418
0.714195
0.714211
0.714228
0.714245
0.714262
0.714278
0.714294
0.714309
0.714323
0.714334
0.714342
0.714347
0.714347
0.714343
0.714333
0.714318
0.714297
0.714272
0.714241
0.714206
0.714168
0.714128
0.714088
0.71405
0.714018
0.713993
0.713977
0.713971
0.713975
0.71399
0.714014
0.714046
0.714081
0.714119
0.714154
0.714187
0.714214
0.714234
0.714248
0.714257
0.71426
0.71426
0.714259
0.714258
0.714259
0.714263
0.714272
0.714286
0.714305
0.714328
0.714356
0.714387
0.71442
0.714452
0.714484
0.714511
0.714534
0.714548
0.714553
0.714546
0.714529
0.714499
0.714461
0.714408
0.714366
0.714292
0.713428
0.713466
0.713508
0.713555
0.713606
0.71366
0.713717
0.713775
0.713835
0.713894
0.713952
0.714007
0.714059
0.714107
0.714149
0.714187
0.714219
0.714245
0.714265
0.71428
0.714289
0.714294
0.714295
0.714292
0.714287
0.714279
0.714269
0.714258
0.714247
0.714235
0.714222
0.71421
0.714199
0.714187
0.714177
0.714167
0.714158
0.714149
0.714142
0.714135
0.714129
0.714125
0.714121
0.714118
0.714115
0.714114
0.714114
0.714115
0.714117
0.71412
0.714124
0.714129
0.714134
0.714141
0.714148
0.714156
0.714165
0.714175
0.714185
0.714196
0.714208
0.71422
0.714233
0.714246
0.71426
0.714274
0.714288
0.714302
0.714314
0.714326
0.714334
0.71434
0.714343
0.714342
0.714337
0.714327
0.714312
0.714292
0.714266
0.714235
0.7142
0.714162
0.714122
0.714083
0.714046
0.714014
0.713989
0.713973
0.713967
0.713971
0.713986
0.71401
0.714041
0.714076
0.714112
0.714146
0.714177
0.714202
0.714221
0.714233
0.714239
0.714241
0.714239
0.714235
0.714233
0.714232
0.714236
0.714244
0.714257
0.714277
0.714301
0.71433
0.714363
0.714398
0.714434
0.71447
0.714501
0.714529
0.714549
0.714561
0.714562
0.714551
0.714528
0.714492
0.714444
0.714389
0.71432
0.713421
0.713459
0.713501
0.713549
0.713602
0.713658
0.713718
0.71378
0.713843
0.713907
0.71397
0.714031
0.714089
0.714143
0.714192
0.714236
0.714274
0.714305
0.71433
0.71435
0.714363
0.714371
0.714374
0.714373
0.714368
0.71436
0.71435
0.714338
0.714325
0.71431
0.714296
0.714281
0.714267
0.714253
0.71424
0.714228
0.714216
0.714206
0.714197
0.714188
0.714181
0.714175
0.71417
0.714166
0.714163
0.714162
0.714161
0.714161
0.714162
0.714164
0.714167
0.714171
0.714175
0.714179
0.714185
0.71419
0.714197
0.714204
0.714211
0.714219
0.714228
0.714238
0.714248
0.714259
0.71427
0.714282
0.714293
0.714304
0.714314
0.714324
0.714331
0.714337
0.71434
0.714339
0.714333
0.714322
0.714307
0.714287
0.714262
0.714232
0.714199
0.714163
0.714126
0.714089
0.714054
0.714024
0.714
0.713985
0.71398
0.713984
0.713998
0.714019
0.714047
0.714079
0.714112
0.714143
0.714171
0.714194
0.71421
0.71422
0.714223
0.714223
0.714219
0.714214
0.71421
0.714209
0.714212
0.714221
0.714236
0.714256
0.714283
0.714315
0.71435
0.714389
0.714428
0.714467
0.714502
0.714535
0.714559
0.714577
0.714582
0.714577
0.714558
0.714523
0.714478
0.714411
0.714344
0.713421
0.713459
0.713502
0.713551
0.713605
0.713662
0.713724
0.713788
0.713854
0.713921
0.713988
0.714053
0.714115
0.714173
0.714227
0.714275
0.714317
0.714353
0.714383
0.714405
0.714422
0.714432
0.714437
0.714437
0.714433
0.714426
0.714415
0.714402
0.714388
0.714372
0.714356
0.71434
0.714323
0.714307
0.714292
0.714278
0.714264
0.714252
0.714241
0.714231
0.714222
0.714215
0.714209
0.714204
0.7142
0.714197
0.714195
0.714195
0.714195
0.714196
0.714197
0.7142
0.714203
0.714206
0.71421
0.714214
0.714218
0.714223
0.714228
0.714234
0.714241
0.714247
0.714255
0.714263
0.714272
0.714281
0.714291
0.714301
0.714312
0.714321
0.714327
0.714331
0.714332
0.71433
0.714324
0.714314
0.7143
0.714281
0.714258
0.71423
0.714199
0.714165
0.714131
0.714097
0.714065
0.714038
0.714018
0.714004
0.713999
0.714003
0.714015
0.714033
0.714058
0.714085
0.714113
0.714141
0.714164
0.714183
0.714197
0.714205
0.714207
0.714206
0.714202
0.714197
0.714194
0.714193
0.714198
0.714208
0.714225
0.714248
0.714277
0.714311
0.71435
0.714391
0.714433
0.714476
0.714514
0.714551
0.714578
0.7146
0.714608
0.714605
0.714588
0.714552
0.714509
0.71443
0.714364
0.713425
0.713463
0.713507
0.713556
0.71361
0.713669
0.713732
0.713797
0.713865
0.713934
0.714002
0.714069
0.714134
0.714195
0.714252
0.714303
0.714348
0.714386
0.714418
0.714443
0.714461
0.714474
0.71448
0.714481
0.714478
0.71447
0.71446
0.714447
0.714431
0.714415
0.714398
0.71438
0.714362
0.714345
0.714328
0.714313
0.714298
0.714284
0.714272
0.714261
0.714252
0.714243
0.714236
0.714231
0.714226
0.714223
0.714221
0.71422
0.714219
0.714219
0.71422
0.714221
0.714223
0.714224
0.714226
0.714228
0.714231
0.714234
0.714237
0.714241
0.714246
0.714251
0.714257
0.714264
0.714273
0.714281
0.71429
0.714298
0.714306
0.714313
0.714319
0.714323
0.714325
0.714323
0.714318
0.714308
0.714293
0.714275
0.714252
0.714226
0.714198
0.714167
0.714136
0.714106
0.714078
0.714054
0.714035
0.714023
0.714018
0.71402
0.71403
0.714046
0.714066
0.714089
0.714114
0.714137
0.714158
0.714174
0.714186
0.714192
0.714194
0.714193
0.714189
0.714185
0.714183
0.714185
0.714191
0.714203
0.714222
0.714247
0.714279
0.714316
0.714357
0.714401
0.714445
0.71449
0.714531
0.714569
0.714599
0.714622
0.714632
0.71463
0.714614
0.714576
0.714532
0.714444
0.714376
0.713433
0.713472
0.713517
0.713566
0.713621
0.71368
0.713743
0.71381
0.713878
0.713948
0.714017
0.714085
0.714151
0.714213
0.714271
0.714323
0.714369
0.714409
0.714442
0.714468
0.714488
0.714501
0.714508
0.71451
0.714507
0.714499
0.714488
0.714475
0.714459
0.714442
0.714424
0.714405
0.714387
0.714368
0.714351
0.714334
0.714318
0.714303
0.71429
0.714278
0.714268
0.714258
0.714251
0.714244
0.714239
0.714235
0.714232
0.71423
0.714229
0.714228
0.714228
0.714229
0.71423
0.714231
0.714232
0.714234
0.714235
0.714238
0.71424
0.714244
0.714247
0.714251
0.714256
0.714261
0.714268
0.714276
0.714284
0.714293
0.714302
0.714309
0.714315
0.714318
0.714318
0.714315
0.714309
0.714299
0.714285
0.714267
0.714246
0.714222
0.714195
0.714167
0.714139
0.714111
0.714086
0.714064
0.714048
0.714037
0.714032
0.714034
0.714042
0.714055
0.714072
0.714092
0.714113
0.714133
0.714151
0.714166
0.714176
0.714183
0.714185
0.714185
0.714183
0.714182
0.714182
0.714186
0.714194
0.714209
0.71423
0.714257
0.71429
0.714329
0.714372
0.714417
0.714463
0.71451
0.714552
0.714591
0.714621
0.714645
0.714655
0.714653
0.714635
0.714596
0.714548
0.714456
0.714382
0.713441
0.713481
0.713525
0.713575
0.71363
0.71369
0.713753
0.713819
0.713888
0.713957
0.714027
0.714095
0.714161
0.714223
0.714281
0.714333
0.71438
0.71442
0.714453
0.71448
0.714499
0.714513
0.71452
0.714522
0.714518
0.714511
0.7145
0.714487
0.714471
0.714453
0.714435
0.714416
0.714397
0.714378
0.71436
0.714343
0.714327
0.714312
0.714298
0.714286
0.714275
0.714266
0.714258
0.714251
0.714246
0.714242
0.714238
0.714236
0.714235
0.714234
0.714233
0.714233
0.714234
0.714234
0.714234
0.714235
0.714236
0.714237
0.714239
0.714242
0.714245
0.71425
0.714255
0.714262
0.714269
0.714277
0.714285
0.714293
0.7143
0.714307
0.714311
0.714314
0.714314
0.714311
0.714304
0.714294
0.71428
0.714262
0.714242
0.714219
0.714193
0.714167
0.71414
0.714115
0.714092
0.714072
0.714056
0.714046
0.714042
0.714043
0.71405
0.714062
0.714077
0.714095
0.714113
0.714131
0.714147
0.71416
0.71417
0.714177
0.71418
0.714181
0.714181
0.714181
0.714184
0.714189
0.7142
0.714216
0.714238
0.714267
0.714302
0.714341
0.714385
0.714431
0.714478
0.714525
0.714567
0.714607
0.714637
0.71466
0.714669
0.714666
0.714646
0.714604
0.714554
0.714459
0.71438
0.713447
0.713488
0.713533
0.713583
0.713639
0.713698
0.713762
0.713828
0.713897
0.713966
0.714035
0.714104
0.714169
0.714231
0.714289
0.714341
0.714387
0.714427
0.71446
0.714486
0.714506
0.714519
0.714526
0.714528
0.714525
0.714517
0.714506
0.714492
0.714476
0.714458
0.71444
0.71442
0.714401
0.714382
0.714363
0.714345
0.714328
0.714313
0.714299
0.714286
0.714274
0.714264
0.714256
0.714248
0.714242
0.714237
0.714234
0.714231
0.714229
0.714228
0.714228
0.714228
0.714228
0.714229
0.71423
0.714231
0.714233
0.714235
0.714238
0.714241
0.714245
0.71425
0.714255
0.714261
0.714268
0.714276
0.714284
0.714292
0.714299
0.714305
0.71431
0.714312
0.714311
0.714307
0.7143
0.714289
0.714275
0.714258
0.714238
0.714215
0.71419
0.714165
0.714139
0.714115
0.714093
0.714074
0.71406
0.71405
0.714046
0.714047
0.714054
0.714065
0.714079
0.714095
0.714112
0.714128
0.714143
0.714156
0.714165
0.714172
0.714176
0.714179
0.71418
0.714183
0.714187
0.714194
0.714207
0.714224
0.714248
0.714277
0.714313
0.714353
0.714397
0.714443
0.71449
0.714537
0.714579
0.714619
0.714648
0.71467
0.714678
0.714674
0.714653
0.714609
0.714556
0.71446
0.714376
)
;

boundaryField
{
    inlet
    {
        type            zeroGradient;
    }
    outlet
    {
        type            fixedValue;
        value           uniform 0.714286;
    }
    walls
    {
        type            zeroGradient;
    }
    symwall
    {
        type            empty;
    }
    procBoundary3to1
    {
        type            processor;
        value           nonuniform List<scalar> 
128
(
0.714481
0.714433
0.714357
0.714338
0.714241
0.713564
0.713596
0.713629
0.713663
0.713697
0.713731
0.713763
0.713794
0.713824
0.71385
0.713874
0.713895
0.713913
0.713928
0.713939
0.713948
0.713954
0.713958
0.713961
0.713961
0.713961
0.71396
0.713958
0.713957
0.713955
0.713954
0.713952
0.713952
0.713951
0.713951
0.713951
0.713952
0.713952
0.713952
0.713953
0.713953
0.713953
0.713953
0.713952
0.713951
0.713949
0.713948
0.713946
0.713944
0.713942
0.713941
0.71394
0.713941
0.713942
0.713944
0.713948
0.713954
0.713961
0.71397
0.713981
0.713994
0.714008
0.714025
0.714042
0.714062
0.714082
0.714104
0.714127
0.714152
0.714177
0.714202
0.714228
0.714254
0.714279
0.714304
0.714326
0.714346
0.714363
0.714377
0.714385
0.714389
0.714386
0.714378
0.714365
0.714346
0.714322
0.714295
0.714265
0.714235
0.714206
0.714181
0.71416
0.714145
0.714138
0.714137
0.714145
0.714158
0.714176
0.714198
0.714221
0.714245
0.714267
0.714286
0.714303
0.714317
0.714329
0.714339
0.714348
0.714358
0.714368
0.714381
0.714396
0.714414
0.714436
0.71446
0.714487
0.714515
0.714544
0.71457
0.714594
0.714613
0.714624
0.714625
0.714617
0.714596
0.714564
0.714523
0.714523
)
;
    }
    procBoundary3to2
    {
        type            processor;
        value           nonuniform List<scalar> 10(0.713479 0.713438 0.713411 0.713396 0.713388 0.713388 0.713392 0.7134 0.713407 0.713412);
    }
}


// ************************************************************************* //
