/*--------------------------------*- C++ -*----------------------------------*\
| =========                 |                                                 |
| \\      /  F ield         | OpenFOAM: The Open Source CFD Toolbox           |
|  \\    /   O peration     | Version:  4.1                                   |
|   \\  /    A nd           | Web:      www.OpenFOAM.org                      |
|    \\/     M anipulation  |                                                 |
\*---------------------------------------------------------------------------*/
FoamFile
{
    version     2.0;
    format      ascii;
    class       volScalarField;
    location    "63";
    object      p;
}
// * * * * * * * * * * * * * * * * * * * * * * * * * * * * * * * * * * * * * //

dimensions      [1 -1 -2 0 0 0 0];

internalField   nonuniform List<scalar> 
3264
(
0.713315
0.713304
0.713286
0.71326
0.71323
0.713199
0.71317
0.713145
0.713127
0.713119
0.713123
0.713141
0.713175
0.713225
0.713293
0.713378
0.713481
0.7136
0.713736
0.713885
0.714048
0.714222
0.714405
0.714595
0.714788
0.714984
0.715178
0.715368
0.715552
0.715726
0.715888
0.716035
0.716165
0.716277
0.716369
0.716442
0.716496
0.716533
0.716555
0.716565
0.716564
0.716557
0.716544
0.716528
0.716511
0.716493
0.716475
0.716458
0.716441
0.716425
0.71641
0.716395
0.716381
0.716367
0.716353
0.716339
0.716325
0.716311
0.716297
0.716284
0.71627
0.716256
0.716242
0.716228
0.716214
0.7162
0.716186
0.716172
0.716158
0.716144
0.716129
0.716115
0.716101
0.716087
0.716073
0.716058
0.716044
0.71603
0.716016
0.716002
0.715987
0.715973
0.715959
0.715945
0.71593
0.715916
0.715902
0.715888
0.715873
0.715859
0.715845
0.715831
0.715816
0.715802
0.715788
0.715774
0.71576
0.715745
0.715731
0.715717
0.715703
0.715688
0.715674
0.71566
0.715646
0.715631
0.715617
0.715603
0.715589
0.715574
0.71556
0.715546
0.715532
0.715517
0.715503
0.715489
0.715475
0.715461
0.715446
0.715432
0.715418
0.715404
0.715389
0.715375
0.715361
0.715347
0.715332
0.715318
0.715304
0.71529
0.715275
0.715261
0.715247
0.715233
0.715219
0.715204
0.71519
0.715176
0.715162
0.715147
0.715133
0.715119
0.715105
0.71509
0.715076
0.715062
0.715048
0.715033
0.715019
0.715005
0.714991
0.714976
0.714962
0.714948
0.714934
0.71492
0.714905
0.714891
0.714877
0.714863
0.714848
0.714834
0.71482
0.714806
0.714791
0.714777
0.714763
0.714749
0.714734
0.71472
0.714706
0.714692
0.714678
0.714663
0.714649
0.714635
0.714621
0.714606
0.714592
0.714578
0.714564
0.714549
0.714535
0.714521
0.714507
0.714492
0.714478
0.714464
0.71445
0.714435
0.714421
0.714407
0.714393
0.714379
0.714364
0.71435
0.714336
0.714322
0.714307
0.714293
0.713331
0.71332
0.713304
0.713278
0.713247
0.713212
0.713177
0.713146
0.713123
0.713111
0.713111
0.713127
0.713158
0.713207
0.713273
0.713357
0.713458
0.713576
0.71371
0.713859
0.714021
0.714195
0.714377
0.714567
0.714761
0.714956
0.715151
0.715343
0.715528
0.715704
0.715868
0.716018
0.716152
0.716267
0.716363
0.71644
0.716497
0.716536
0.716559
0.716569
0.716568
0.71656
0.716547
0.71653
0.716512
0.716494
0.716476
0.716458
0.716442
0.716425
0.71641
0.716395
0.716381
0.716367
0.716353
0.716339
0.716325
0.716311
0.716298
0.716284
0.71627
0.716256
0.716242
0.716228
0.716214
0.7162
0.716186
0.716172
0.716158
0.716144
0.716129
0.716115
0.716101
0.716087
0.716073
0.716058
0.716044
0.71603
0.716016
0.716002
0.715987
0.715973
0.715959
0.715945
0.71593
0.715916
0.715902
0.715888
0.715873
0.715859
0.715845
0.715831
0.715816
0.715802
0.715788
0.715774
0.71576
0.715745
0.715731
0.715717
0.715703
0.715688
0.715674
0.71566
0.715646
0.715631
0.715617
0.715603
0.715589
0.715574
0.71556
0.715546
0.715532
0.715517
0.715503
0.715489
0.715475
0.715461
0.715446
0.715432
0.715418
0.715404
0.715389
0.715375
0.715361
0.715347
0.715332
0.715318
0.715304
0.71529
0.715275
0.715261
0.715247
0.715233
0.715219
0.715204
0.71519
0.715176
0.715162
0.715147
0.715133
0.715119
0.715105
0.71509
0.715076
0.715062
0.715048
0.715033
0.715019
0.715005
0.714991
0.714976
0.714962
0.714948
0.714934
0.71492
0.714905
0.714891
0.714877
0.714863
0.714848
0.714834
0.71482
0.714806
0.714791
0.714777
0.714763
0.714749
0.714734
0.71472
0.714706
0.714692
0.714678
0.714663
0.714649
0.714635
0.714621
0.714606
0.714592
0.714578
0.714564
0.714549
0.714535
0.714521
0.714507
0.714492
0.714478
0.714464
0.71445
0.714435
0.714421
0.714407
0.714393
0.714379
0.714364
0.71435
0.714336
0.714322
0.714307
0.714293
0.713343
0.713331
0.713311
0.713281
0.713243
0.713201
0.713162
0.713127
0.713101
0.713086
0.713085
0.713099
0.713129
0.713176
0.71324
0.713323
0.713423
0.71354
0.713673
0.71382
0.713982
0.714154
0.714336
0.714525
0.714718
0.714914
0.715109
0.715301
0.715488
0.715667
0.715835
0.715989
0.716127
0.716248
0.716349
0.716429
0.71649
0.716531
0.716556
0.716567
0.716568
0.71656
0.716547
0.716531
0.716513
0.716494
0.716476
0.716458
0.716442
0.716426
0.71641
0.716395
0.716381
0.716367
0.716353
0.716339
0.716325
0.716311
0.716298
0.716284
0.71627
0.716256
0.716242
0.716228
0.716214
0.7162
0.716186
0.716172
0.716158
0.716144
0.716129
0.716115
0.716101
0.716087
0.716073
0.716058
0.716044
0.71603
0.716016
0.716002
0.715987
0.715973
0.715959
0.715945
0.71593
0.715916
0.715902
0.715888
0.715873
0.715859
0.715845
0.715831
0.715816
0.715802
0.715788
0.715774
0.71576
0.715745
0.715731
0.715717
0.715703
0.715688
0.715674
0.71566
0.715646
0.715631
0.715617
0.715603
0.715589
0.715574
0.71556
0.715546
0.715532
0.715517
0.715503
0.715489
0.715475
0.715461
0.715446
0.715432
0.715418
0.715404
0.715389
0.715375
0.715361
0.715347
0.715332
0.715318
0.715304
0.71529
0.715275
0.715261
0.715247
0.715233
0.715219
0.715204
0.71519
0.715176
0.715162
0.715147
0.715133
0.715119
0.715105
0.71509
0.715076
0.715062
0.715048
0.715033
0.715019
0.715005
0.714991
0.714976
0.714962
0.714948
0.714934
0.71492
0.714905
0.714891
0.714877
0.714863
0.714848
0.714834
0.71482
0.714806
0.714791
0.714777
0.714763
0.714749
0.714734
0.71472
0.714706
0.714692
0.714678
0.714663
0.714649
0.714635
0.714621
0.714606
0.714592
0.714578
0.714564
0.714549
0.714535
0.714521
0.714507
0.714492
0.714478
0.714464
0.71445
0.714435
0.714421
0.714407
0.714393
0.714379
0.714364
0.71435
0.714336
0.714322
0.714307
0.714293
0.713341
0.713332
0.71331
0.713275
0.713232
0.713186
0.713142
0.713104
0.713075
0.713057
0.713054
0.713065
0.713092
0.713137
0.7132
0.71328
0.713378
0.713492
0.713623
0.713769
0.713928
0.714099
0.714279
0.714466
0.714659
0.714853
0.715048
0.715241
0.715429
0.71561
0.715781
0.71594
0.716084
0.71621
0.716318
0.716405
0.716471
0.716517
0.716546
0.716559
0.716561
0.716555
0.716543
0.716528
0.716511
0.716493
0.716475
0.716458
0.716442
0.716426
0.716411
0.716396
0.716382
0.716368
0.716354
0.71634
0.716326
0.716312
0.716298
0.716284
0.71627
0.716256
0.716242
0.716228
0.716214
0.7162
0.716186
0.716172
0.716158
0.716144
0.716129
0.716115
0.716101
0.716087
0.716073
0.716058
0.716044
0.71603
0.716016
0.716002
0.715987
0.715973
0.715959
0.715945
0.71593
0.715916
0.715902
0.715888
0.715873
0.715859
0.715845
0.715831
0.715816
0.715802
0.715788
0.715774
0.71576
0.715745
0.715731
0.715717
0.715703
0.715688
0.715674
0.71566
0.715646
0.715631
0.715617
0.715603
0.715589
0.715574
0.71556
0.715546
0.715532
0.715517
0.715503
0.715489
0.715475
0.715461
0.715446
0.715432
0.715418
0.715404
0.715389
0.715375
0.715361
0.715347
0.715332
0.715318
0.715304
0.71529
0.715275
0.715261
0.715247
0.715233
0.715219
0.715204
0.71519
0.715176
0.715162
0.715147
0.715133
0.715119
0.715105
0.71509
0.715076
0.715062
0.715048
0.715033
0.715019
0.715005
0.714991
0.714976
0.714962
0.714948
0.714934
0.71492
0.714905
0.714891
0.714877
0.714863
0.714848
0.714834
0.71482
0.714806
0.714791
0.714777
0.714763
0.714749
0.714734
0.71472
0.714706
0.714692
0.714678
0.714663
0.714649
0.714635
0.714621
0.714606
0.714592
0.714578
0.714564
0.714549
0.714535
0.714521
0.714507
0.714492
0.714478
0.714464
0.71445
0.714435
0.714421
0.714407
0.714393
0.714379
0.714364
0.71435
0.714336
0.714322
0.714307
0.714293
0.713335
0.71333
0.713307
0.713271
0.713224
0.713175
0.713129
0.713088
0.713057
0.713037
0.71303
0.713039
0.713064
0.713106
0.713166
0.713244
0.713339
0.713451
0.71358
0.713723
0.71388
0.714048
0.714225
0.71441
0.7146
0.714792
0.714985
0.715176
0.715363
0.715544
0.715717
0.715879
0.716029
0.716162
0.716276
0.71637
0.716443
0.716495
0.716529
0.716546
0.716551
0.716546
0.716536
0.716522
0.716507
0.71649
0.716474
0.716458
0.716442
0.716427
0.716412
0.716397
0.716383
0.716368
0.716354
0.71634
0.716326
0.716312
0.716299
0.716285
0.716271
0.716257
0.716243
0.716228
0.716214
0.7162
0.716186
0.716172
0.716158
0.716144
0.716129
0.716115
0.716101
0.716087
0.716073
0.716058
0.716044
0.71603
0.716016
0.716002
0.715987
0.715973
0.715959
0.715945
0.71593
0.715916
0.715902
0.715888
0.715873
0.715859
0.715845
0.715831
0.715816
0.715802
0.715788
0.715774
0.71576
0.715745
0.715731
0.715717
0.715703
0.715688
0.715674
0.71566
0.715646
0.715631
0.715617
0.715603
0.715589
0.715574
0.71556
0.715546
0.715532
0.715517
0.715503
0.715489
0.715475
0.715461
0.715446
0.715432
0.715418
0.715404
0.715389
0.715375
0.715361
0.715347
0.715332
0.715318
0.715304
0.71529
0.715275
0.715261
0.715247
0.715233
0.715219
0.715204
0.71519
0.715176
0.715162
0.715147
0.715133
0.715119
0.715105
0.71509
0.715076
0.715062
0.715048
0.715033
0.715019
0.715005
0.714991
0.714976
0.714962
0.714948
0.714934
0.71492
0.714905
0.714891
0.714877
0.714863
0.714848
0.714834
0.71482
0.714806
0.714791
0.714777
0.714763
0.714749
0.714734
0.71472
0.714706
0.714692
0.714678
0.714663
0.714649
0.714635
0.714621
0.714606
0.714592
0.714578
0.714564
0.714549
0.714535
0.714521
0.714507
0.714492
0.714478
0.714464
0.71445
0.714435
0.714421
0.714407
0.714393
0.714379
0.714364
0.71435
0.714336
0.714322
0.714307
0.714293
0.713303
0.713321
0.713303
0.713274
0.713229
0.71318
0.713132
0.713088
0.713054
0.713031
0.713021
0.713027
0.713049
0.713088
0.713145
0.71322
0.713312
0.713422
0.713547
0.713688
0.713841
0.714005
0.714178
0.714358
0.714543
0.71473
0.714918
0.715104
0.715287
0.715464
0.715635
0.715797
0.715948
0.716087
0.71621
0.716315
0.716398
0.716461
0.716503
0.716527
0.716537
0.716536
0.716528
0.716516
0.716502
0.716487
0.716472
0.716457
0.716442
0.716427
0.716412
0.716398
0.716383
0.716369
0.716355
0.716341
0.716327
0.716313
0.716299
0.716285
0.716271
0.716257
0.716243
0.716229
0.716215
0.7162
0.716186
0.716172
0.716158
0.716144
0.71613
0.716115
0.716101
0.716087
0.716073
0.716058
0.716044
0.71603
0.716016
0.716002
0.715987
0.715973
0.715959
0.715945
0.71593
0.715916
0.715902
0.715888
0.715873
0.715859
0.715845
0.715831
0.715816
0.715802
0.715788
0.715774
0.71576
0.715745
0.715731
0.715717
0.715703
0.715688
0.715674
0.71566
0.715646
0.715631
0.715617
0.715603
0.715589
0.715574
0.71556
0.715546
0.715532
0.715517
0.715503
0.715489
0.715475
0.715461
0.715446
0.715432
0.715418
0.715404
0.715389
0.715375
0.715361
0.715347
0.715332
0.715318
0.715304
0.71529
0.715275
0.715261
0.715247
0.715233
0.715219
0.715204
0.71519
0.715176
0.715162
0.715147
0.715133
0.715119
0.715105
0.71509
0.715076
0.715062
0.715048
0.715033
0.715019
0.715005
0.714991
0.714976
0.714962
0.714948
0.714934
0.71492
0.714905
0.714891
0.714877
0.714863
0.714848
0.714834
0.71482
0.714806
0.714791
0.714777
0.714763
0.714749
0.714734
0.71472
0.714706
0.714692
0.714678
0.714663
0.714649
0.714635
0.714621
0.714606
0.714592
0.714578
0.714564
0.714549
0.714535
0.714521
0.714507
0.714492
0.714478
0.714464
0.71445
0.714435
0.714421
0.714407
0.714393
0.714379
0.714364
0.71435
0.714336
0.714322
0.714307
0.714293
0.713323
0.713349
0.713334
0.713303
0.713255
0.713203
0.713151
0.713104
0.713066
0.71304
0.713028
0.713031
0.71305
0.713087
0.713142
0.713215
0.713305
0.713411
0.713534
0.71367
0.713818
0.713976
0.714143
0.714316
0.714492
0.71467
0.714848
0.715024
0.715197
0.715365
0.715528
0.715684
0.715832
0.715971
0.7161
0.716215
0.716314
0.716394
0.716454
0.716493
0.716513
0.71652
0.716517
0.716508
0.716496
0.716483
0.716469
0.716455
0.716441
0.716427
0.716413
0.716398
0.716384
0.71637
0.716356
0.716342
0.716328
0.716314
0.7163
0.716286
0.716271
0.716257
0.716243
0.716229
0.716215
0.716201
0.716186
0.716172
0.716158
0.716144
0.71613
0.716115
0.716101
0.716087
0.716073
0.716058
0.716044
0.71603
0.716016
0.716002
0.715987
0.715973
0.715959
0.715945
0.71593
0.715916
0.715902
0.715888
0.715873
0.715859
0.715845
0.715831
0.715816
0.715802
0.715788
0.715774
0.71576
0.715745
0.715731
0.715717
0.715703
0.715688
0.715674
0.71566
0.715646
0.715631
0.715617
0.715603
0.715589
0.715574
0.71556
0.715546
0.715532
0.715517
0.715503
0.715489
0.715475
0.715461
0.715446
0.715432
0.715418
0.715404
0.715389
0.715375
0.715361
0.715347
0.715332
0.715318
0.715304
0.71529
0.715275
0.715261
0.715247
0.715233
0.715219
0.715204
0.71519
0.715176
0.715162
0.715147
0.715133
0.715119
0.715105
0.71509
0.715076
0.715062
0.715048
0.715033
0.715019
0.715005
0.714991
0.714976
0.714962
0.714948
0.714934
0.71492
0.714905
0.714891
0.714877
0.714863
0.714848
0.714834
0.71482
0.714806
0.714791
0.714777
0.714763
0.714749
0.714734
0.71472
0.714706
0.714692
0.714678
0.714663
0.714649
0.714635
0.714621
0.714606
0.714592
0.714578
0.714564
0.714549
0.714535
0.714521
0.714507
0.714492
0.714478
0.714464
0.71445
0.714435
0.714421
0.714407
0.714393
0.714379
0.714364
0.71435
0.714336
0.714322
0.714307
0.714293
0.713171
0.713334
0.713343
0.713335
0.71329
0.713237
0.713183
0.713134
0.713094
0.713066
0.713053
0.713055
0.713074
0.71311
0.713164
0.713236
0.713324
0.713428
0.713546
0.713677
0.713819
0.713969
0.714125
0.714286
0.714449
0.714612
0.714774
0.714933
0.715088
0.71524
0.715388
0.715533
0.715673
0.71581
0.715942
0.716067
0.716182
0.716285
0.716369
0.716431
0.716472
0.716493
0.7165
0.716497
0.716489
0.716479
0.716467
0.716454
0.71644
0.716427
0.716413
0.716399
0.716385
0.716371
0.716357
0.716343
0.716329
0.716314
0.7163
0.716286
0.716272
0.716258
0.716243
0.716229
0.716215
0.716201
0.716187
0.716172
0.716158
0.716144
0.71613
0.716115
0.716101
0.716087
0.716073
0.716058
0.716044
0.71603
0.716016
0.716002
0.715987
0.715973
0.715959
0.715945
0.71593
0.715916
0.715902
0.715888
0.715873
0.715859
0.715845
0.715831
0.715816
0.715802
0.715788
0.715774
0.71576
0.715745
0.715731
0.715717
0.715703
0.715688
0.715674
0.71566
0.715646
0.715631
0.715617
0.715603
0.715589
0.715574
0.71556
0.715546
0.715532
0.715517
0.715503
0.715489
0.715475
0.715461
0.715446
0.715432
0.715418
0.715404
0.715389
0.715375
0.715361
0.715347
0.715332
0.715318
0.715304
0.71529
0.715275
0.715261
0.715247
0.715233
0.715219
0.715204
0.71519
0.715176
0.715162
0.715147
0.715133
0.715119
0.715105
0.71509
0.715076
0.715062
0.715048
0.715033
0.715019
0.715005
0.714991
0.714976
0.714962
0.714948
0.714934
0.71492
0.714905
0.714891
0.714877
0.714863
0.714848
0.714834
0.71482
0.714806
0.714791
0.714777
0.714763
0.714749
0.714734
0.71472
0.714706
0.714692
0.714678
0.714663
0.714649
0.714635
0.714621
0.714606
0.714592
0.714578
0.714564
0.714549
0.714535
0.714521
0.714507
0.714492
0.714478
0.714464
0.71445
0.714435
0.714421
0.714407
0.714393
0.714379
0.714364
0.71435
0.714336
0.714322
0.714307
0.714293
0.713971
0.713914
0.713849
0.713779
0.713702
0.713619
0.713525
0.713393
0.71398
0.713932
0.713867
0.713795
0.713718
0.713635
0.713538
0.713431
0.713988
0.713947
0.713888
0.71382
0.713749
0.713673
0.713598
0.713523
0.714002
0.713968
0.713914
0.713852
0.713787
0.713722
0.713657
0.713597
0.714019
0.713987
0.713939
0.713883
0.713825
0.713769
0.713716
0.71367
0.714038
0.714006
0.713959
0.713907
0.713856
0.713807
0.713764
0.713726
0.714056
0.714021
0.713973
0.713923
0.713876
0.713832
0.713794
0.713761
0.714067
0.714021
0.713973
0.713926
0.713881
0.71384
0.713804
0.713773
0.713311
0.713344
0.713362
0.713347
0.713311
0.713263
0.713214
0.713169
0.713133
0.713109
0.713099
0.713105
0.713127
0.713167
0.713223
0.713295
0.713383
0.713484
0.713598
0.713722
0.713855
0.713993
0.714134
0.714278
0.71442
0.714561
0.714699
0.714834
0.714965
0.715094
0.715223
0.715351
0.715482
0.715614
0.71575
0.715887
0.716021
0.716148
0.71626
0.71635
0.716415
0.716455
0.716476
0.716482
0.71648
0.716473
0.716464
0.716452
0.71644
0.716427
0.716414
0.7164
0.716386
0.716372
0.716358
0.716344
0.716329
0.716315
0.716301
0.716287
0.716272
0.716258
0.716244
0.716229
0.716215
0.716201
0.716187
0.716172
0.716158
0.716144
0.71613
0.716115
0.716101
0.716087
0.716073
0.716059
0.716044
0.71603
0.716016
0.716002
0.715987
0.715973
0.715959
0.715945
0.71593
0.715916
0.715902
0.715888
0.715873
0.715859
0.715845
0.715831
0.715816
0.715802
0.715788
0.715774
0.71576
0.715745
0.715731
0.715717
0.715703
0.715688
0.715674
0.71566
0.715646
0.715631
0.715617
0.715603
0.715589
0.715574
0.71556
0.715546
0.715532
0.715517
0.715503
0.715489
0.715475
0.715461
0.715446
0.715432
0.715418
0.715404
0.715389
0.715375
0.715361
0.715347
0.715332
0.715318
0.715304
0.71529
0.715275
0.715261
0.715247
0.715233
0.715219
0.715204
0.71519
0.715176
0.715162
0.715147
0.715133
0.715119
0.715105
0.71509
0.715076
0.715062
0.715048
0.715033
0.715019
0.715005
0.714991
0.714976
0.714962
0.714948
0.714934
0.71492
0.714905
0.714891
0.714877
0.714863
0.714848
0.714834
0.71482
0.714806
0.714791
0.714777
0.714763
0.714749
0.714734
0.71472
0.714706
0.714692
0.714678
0.714663
0.714649
0.714635
0.714621
0.714606
0.714592
0.714578
0.714564
0.714549
0.714535
0.714521
0.714507
0.714492
0.714478
0.714464
0.71445
0.714435
0.714421
0.714407
0.714393
0.714379
0.714364
0.71435
0.714336
0.714322
0.714307
0.714293
0.713345
0.713352
0.713361
0.713357
0.713335
0.713303
0.713268
0.713235
0.71321
0.713195
0.713194
0.713208
0.713237
0.713282
0.713342
0.713415
0.713501
0.713599
0.713705
0.713819
0.713937
0.714057
0.714177
0.714295
0.714409
0.71452
0.714626
0.71473
0.714833
0.714937
0.715045
0.71516
0.715285
0.715419
0.715563
0.715715
0.715869
0.716019
0.716155
0.71627
0.716356
0.716414
0.716449
0.716465
0.71647
0.716467
0.716461
0.716451
0.71644
0.716427
0.716414
0.716401
0.716387
0.716373
0.716359
0.716344
0.71633
0.716316
0.716301
0.716287
0.716273
0.716258
0.716244
0.71623
0.716215
0.716201
0.716187
0.716173
0.716158
0.716144
0.71613
0.716116
0.716101
0.716087
0.716073
0.716059
0.716044
0.71603
0.716016
0.716002
0.715987
0.715973
0.715959
0.715945
0.71593
0.715916
0.715902
0.715888
0.715873
0.715859
0.715845
0.715831
0.715816
0.715802
0.715788
0.715774
0.71576
0.715745
0.715731
0.715717
0.715703
0.715688
0.715674
0.71566
0.715646
0.715631
0.715617
0.715603
0.715589
0.715574
0.71556
0.715546
0.715532
0.715517
0.715503
0.715489
0.715475
0.715461
0.715446
0.715432
0.715418
0.715404
0.715389
0.715375
0.715361
0.715347
0.715332
0.715318
0.715304
0.71529
0.715275
0.715261
0.715247
0.715233
0.715219
0.715204
0.71519
0.715176
0.715162
0.715147
0.715133
0.715119
0.715105
0.71509
0.715076
0.715062
0.715048
0.715033
0.715019
0.715005
0.714991
0.714976
0.714962
0.714948
0.714934
0.71492
0.714905
0.714891
0.714877
0.714863
0.714848
0.714834
0.71482
0.714806
0.714791
0.714777
0.714763
0.714749
0.714734
0.71472
0.714706
0.714692
0.714678
0.714663
0.714649
0.714635
0.714621
0.714606
0.714592
0.714578
0.714564
0.714549
0.714535
0.714521
0.714507
0.714492
0.714478
0.714464
0.71445
0.714435
0.714421
0.714407
0.714393
0.714379
0.714364
0.71435
0.714336
0.714322
0.714307
0.714293
0.713464
0.713437
0.713426
0.713416
0.7134
0.713379
0.713358
0.713341
0.71333
0.71333
0.713342
0.713367
0.713405
0.713457
0.713521
0.713594
0.713677
0.713767
0.713862
0.71396
0.714057
0.714152
0.714242
0.714327
0.714406
0.71448
0.714552
0.714624
0.714702
0.714789
0.714889
0.715002
0.715131
0.715274
0.71543
0.715597
0.715767
0.715932
0.716084
0.716213
0.716312
0.716382
0.716426
0.71645
0.716461
0.716463
0.716458
0.71645
0.71644
0.716428
0.716416
0.716402
0.716388
0.716374
0.71636
0.716345
0.716331
0.716316
0.716302
0.716288
0.716273
0.716259
0.716244
0.71623
0.716216
0.716201
0.716187
0.716173
0.716158
0.716144
0.71613
0.716116
0.716101
0.716087
0.716073
0.716059
0.716044
0.71603
0.716016
0.716002
0.715987
0.715973
0.715959
0.715945
0.71593
0.715916
0.715902
0.715888
0.715873
0.715859
0.715845
0.715831
0.715816
0.715802
0.715788
0.715774
0.71576
0.715745
0.715731
0.715717
0.715703
0.715688
0.715674
0.71566
0.715646
0.715631
0.715617
0.715603
0.715589
0.715574
0.71556
0.715546
0.715532
0.715517
0.715503
0.715489
0.715475
0.715461
0.715446
0.715432
0.715418
0.715404
0.715389
0.715375
0.715361
0.715347
0.715332
0.715318
0.715304
0.71529
0.715275
0.715261
0.715247
0.715233
0.715219
0.715204
0.71519
0.715176
0.715162
0.715147
0.715133
0.715119
0.715105
0.71509
0.715076
0.715062
0.715048
0.715033
0.715019
0.715005
0.714991
0.714976
0.714962
0.714948
0.714934
0.71492
0.714905
0.714891
0.714877
0.714863
0.714848
0.714834
0.71482
0.714806
0.714791
0.714777
0.714763
0.714749
0.714734
0.71472
0.714706
0.714692
0.714678
0.714663
0.714649
0.714635
0.714621
0.714606
0.714592
0.714578
0.714564
0.714549
0.714535
0.714521
0.714507
0.714492
0.714478
0.714464
0.71445
0.714435
0.714421
0.714407
0.714393
0.714379
0.714364
0.71435
0.714336
0.714322
0.714307
0.714293
0.713549
0.713521
0.713505
0.713494
0.713484
0.713475
0.713468
0.713465
0.71347
0.713485
0.713512
0.71355
0.713599
0.713659
0.713727
0.7138
0.713876
0.713955
0.714033
0.714108
0.714177
0.71424
0.714296
0.714345
0.71439
0.714435
0.714484
0.71454
0.714608
0.714693
0.714795
0.714917
0.715057
0.715213
0.71538
0.715555
0.715731
0.715901
0.716055
0.716185
0.716288
0.716362
0.716411
0.71644
0.716455
0.71646
0.716457
0.716451
0.716441
0.71643
0.716417
0.716404
0.71639
0.716375
0.716361
0.716346
0.716332
0.716317
0.716303
0.716288
0.716274
0.716259
0.716245
0.71623
0.716216
0.716201
0.716187
0.716173
0.716158
0.716144
0.71613
0.716116
0.716101
0.716087
0.716073
0.716059
0.716044
0.71603
0.716016
0.716002
0.715987
0.715973
0.715959
0.715945
0.71593
0.715916
0.715902
0.715888
0.715873
0.715859
0.715845
0.715831
0.715816
0.715802
0.715788
0.715774
0.71576
0.715745
0.715731
0.715717
0.715703
0.715688
0.715674
0.71566
0.715646
0.715631
0.715617
0.715603
0.715589
0.715574
0.71556
0.715546
0.715532
0.715517
0.715503
0.715489
0.715475
0.715461
0.715446
0.715432
0.715418
0.715404
0.715389
0.715375
0.715361
0.715347
0.715332
0.715318
0.715304
0.71529
0.715275
0.715261
0.715247
0.715233
0.715219
0.715204
0.71519
0.715176
0.715162
0.715147
0.715133
0.715119
0.715105
0.71509
0.715076
0.715062
0.715048
0.715033
0.715019
0.715005
0.714991
0.714976
0.714962
0.714948
0.714934
0.71492
0.714905
0.714891
0.714877
0.714863
0.714848
0.714834
0.71482
0.714806
0.714791
0.714777
0.714763
0.714749
0.714734
0.71472
0.714706
0.714692
0.714678
0.714663
0.714649
0.714635
0.714621
0.714606
0.714592
0.714578
0.714564
0.714549
0.714535
0.714521
0.714507
0.714492
0.714478
0.714464
0.71445
0.714435
0.714421
0.714407
0.714393
0.714379
0.714364
0.71435
0.714336
0.714322
0.714307
0.714293
0.713634
0.713609
0.713594
0.713585
0.71358
0.713579
0.713583
0.713593
0.713612
0.71364
0.713678
0.713728
0.713786
0.713851
0.713917
0.713981
0.714043
0.714104
0.714162
0.714216
0.714261
0.714299
0.714327
0.714348
0.714366
0.71439
0.714431
0.714491
0.714572
0.714671
0.714786
0.714917
0.715063
0.715221
0.715389
0.715562
0.715735
0.7159
0.716049
0.716175
0.716276
0.71635
0.716402
0.716434
0.716451
0.716458
0.716457
0.716452
0.716442
0.716431
0.716418
0.716405
0.716391
0.716376
0.716362
0.716347
0.716332
0.716318
0.716303
0.716288
0.716274
0.716259
0.716245
0.71623
0.716216
0.716202
0.716187
0.716173
0.716159
0.716144
0.71613
0.716116
0.716101
0.716087
0.716073
0.716059
0.716044
0.71603
0.716016
0.716002
0.715987
0.715973
0.715959
0.715945
0.71593
0.715916
0.715902
0.715888
0.715873
0.715859
0.715845
0.715831
0.715816
0.715802
0.715788
0.715774
0.71576
0.715745
0.715731
0.715717
0.715703
0.715688
0.715674
0.71566
0.715646
0.715631
0.715617
0.715603
0.715589
0.715574
0.71556
0.715546
0.715532
0.715517
0.715503
0.715489
0.715475
0.715461
0.715446
0.715432
0.715418
0.715404
0.715389
0.715375
0.715361
0.715347
0.715332
0.715318
0.715304
0.71529
0.715275
0.715261
0.715247
0.715233
0.715219
0.715204
0.71519
0.715176
0.715162
0.715147
0.715133
0.715119
0.715105
0.71509
0.715076
0.715062
0.715048
0.715033
0.715019
0.715005
0.714991
0.714976
0.714962
0.714948
0.714934
0.71492
0.714905
0.714891
0.714877
0.714863
0.714848
0.714834
0.71482
0.714806
0.714791
0.714777
0.714763
0.714749
0.714734
0.71472
0.714706
0.714692
0.714678
0.714663
0.714649
0.714635
0.714621
0.714606
0.714592
0.714578
0.714564
0.714549
0.714535
0.714521
0.714507
0.714492
0.714478
0.714464
0.71445
0.714435
0.714421
0.714407
0.714393
0.714379
0.714364
0.71435
0.714336
0.714322
0.714307
0.714293
0.713697
0.713676
0.713664
0.713657
0.713657
0.713662
0.713673
0.713691
0.713717
0.713751
0.713795
0.713848
0.71391
0.713975
0.71404
0.7141
0.714155
0.714206
0.714245
0.714267
0.714273
0.714273
0.714282
0.714305
0.714341
0.714389
0.714448
0.714517
0.7146
0.714698
0.714812
0.714943
0.715089
0.715247
0.715413
0.715583
0.715751
0.715909
0.716051
0.716173
0.71627
0.716344
0.716396
0.716429
0.716448
0.716457
0.716457
0.716452
0.716443
0.716432
0.716419
0.716406
0.716392
0.716377
0.716362
0.716348
0.716333
0.716318
0.716303
0.716289
0.716274
0.71626
0.716245
0.716231
0.716216
0.716202
0.716187
0.716173
0.716159
0.716144
0.71613
0.716116
0.716101
0.716087
0.716073
0.716059
0.716044
0.71603
0.716016
0.716002
0.715987
0.715973
0.715959
0.715945
0.71593
0.715916
0.715902
0.715888
0.715873
0.715859
0.715845
0.715831
0.715816
0.715802
0.715788
0.715774
0.71576
0.715745
0.715731
0.715717
0.715703
0.715688
0.715674
0.71566
0.715646
0.715631
0.715617
0.715603
0.715589
0.715574
0.71556
0.715546
0.715532
0.715517
0.715503
0.715489
0.715475
0.715461
0.715446
0.715432
0.715418
0.715404
0.715389
0.715375
0.715361
0.715347
0.715332
0.715318
0.715304
0.71529
0.715275
0.715261
0.715247
0.715233
0.715219
0.715204
0.71519
0.715176
0.715162
0.715147
0.715133
0.715119
0.715105
0.71509
0.715076
0.715062
0.715048
0.715033
0.715019
0.715005
0.714991
0.714976
0.714962
0.714948
0.714934
0.71492
0.714905
0.714891
0.714877
0.714863
0.714848
0.714834
0.71482
0.714806
0.714791
0.714777
0.714763
0.714749
0.714734
0.71472
0.714706
0.714692
0.714678
0.714663
0.714649
0.714635
0.714621
0.714606
0.714592
0.714578
0.714564
0.714549
0.714535
0.714521
0.714507
0.714492
0.714478
0.714464
0.71445
0.714435
0.714421
0.714407
0.714393
0.714379
0.714364
0.71435
0.714336
0.714322
0.714307
0.714293
0.713736
0.713718
0.713706
0.713701
0.713703
0.713711
0.713727
0.713749
0.713779
0.713818
0.713867
0.713926
0.713992
0.714056
0.714103
0.714129
0.714143
0.71416
0.714185
0.714215
0.714247
0.714278
0.714307
0.714336
0.714369
0.714409
0.714462
0.71453
0.714615
0.714717
0.714835
0.714968
0.715115
0.715272
0.715436
0.715601
0.715763
0.715916
0.716052
0.716169
0.716264
0.716336
0.716389
0.716423
0.716444
0.716453
0.716455
0.716451
0.716442
0.716432
0.716419
0.716406
0.716392
0.716377
0.716363
0.716348
0.716333
0.716318
0.716304
0.716289
0.716274
0.71626
0.716245
0.716231
0.716216
0.716202
0.716187
0.716173
0.716159
0.716144
0.71613
0.716116
0.716101
0.716087
0.716073
0.716059
0.716044
0.71603
0.716016
0.716002
0.715987
0.715973
0.715959
0.715945
0.71593
0.715916
0.715902
0.715888
0.715873
0.715859
0.715845
0.715831
0.715816
0.715802
0.715788
0.715774
0.71576
0.715745
0.715731
0.715717
0.715703
0.715688
0.715674
0.71566
0.715646
0.715631
0.715617
0.715603
0.715589
0.715574
0.71556
0.715546
0.715532
0.715517
0.715503
0.715489
0.715475
0.715461
0.715446
0.715432
0.715418
0.715404
0.715389
0.715375
0.715361
0.715347
0.715332
0.715318
0.715304
0.71529
0.715275
0.715261
0.715247
0.715233
0.715219
0.715204
0.71519
0.715176
0.715162
0.715147
0.715133
0.715119
0.715105
0.71509
0.715076
0.715062
0.715048
0.715033
0.715019
0.715005
0.714991
0.714976
0.714962
0.714948
0.714934
0.71492
0.714905
0.714891
0.714877
0.714863
0.714848
0.714834
0.71482
0.714806
0.714791
0.714777
0.714763
0.714749
0.714734
0.71472
0.714706
0.714692
0.714678
0.714663
0.714649
0.714635
0.714621
0.714606
0.714592
0.714578
0.714564
0.714549
0.714535
0.714521
0.714507
0.714492
0.714478
0.714464
0.71445
0.714435
0.714421
0.714407
0.714393
0.714379
0.714364
0.71435
0.714336
0.714322
0.714307
0.714293
0.713748
0.713729
0.713717
0.713711
0.713712
0.713719
0.713733
0.713753
0.713777
0.713808
0.713846
0.713892
0.713945
0.713999
0.714049
0.714093
0.714133
0.714171
0.714205
0.714233
0.714254
0.714275
0.714298
0.714328
0.714366
0.714414
0.714474
0.714547
0.714635
0.714738
0.714857
0.71499
0.715136
0.715292
0.715454
0.715616
0.715774
0.715922
0.716055
0.716168
0.71626
0.716332
0.716383
0.716418
0.716439
0.71645
0.716452
0.716449
0.716441
0.716431
0.716419
0.716406
0.716392
0.716377
0.716363
0.716348
0.716333
0.716318
0.716304
0.716289
0.716274
0.71626
0.716245
0.716231
0.716216
0.716202
0.716187
0.716173
0.716159
0.716144
0.71613
0.716116
0.716101
0.716087
0.716073
0.716059
0.716044
0.71603
0.716016
0.716002
0.715987
0.715973
0.715959
0.715945
0.71593
0.715916
0.715902
0.715888
0.715873
0.715859
0.715845
0.715831
0.715816
0.715802
0.715788
0.715774
0.71576
0.715745
0.715731
0.715717
0.715703
0.715688
0.715674
0.71566
0.715646
0.715631
0.715617
0.715603
0.715589
0.715574
0.71556
0.715546
0.715532
0.715517
0.715503
0.715489
0.715475
0.715461
0.715446
0.715432
0.715418
0.715404
0.715389
0.715375
0.715361
0.715347
0.715332
0.715318
0.715304
0.71529
0.715275
0.715261
0.715247
0.715233
0.715219
0.715204
0.71519
0.715176
0.715162
0.715147
0.715133
0.715119
0.715105
0.71509
0.715076
0.715062
0.715048
0.715033
0.715019
0.715005
0.714991
0.714976
0.714962
0.714948
0.714934
0.71492
0.714905
0.714891
0.714877
0.714863
0.714848
0.714834
0.71482
0.714806
0.714791
0.714777
0.714763
0.714749
0.714734
0.71472
0.714706
0.714692
0.714678
0.714663
0.714649
0.714635
0.714621
0.714606
0.714592
0.714578
0.714564
0.714549
0.714535
0.714521
0.714507
0.714492
0.714478
0.714464
0.71445
0.714435
0.714421
0.714407
0.714393
0.714379
0.714364
0.71435
0.714336
0.714322
0.714307
0.714293
)
;

boundaryField
{
    inlet
    {
        type            zeroGradient;
    }
    outlet
    {