/*--------------------------------*- C++ -*----------------------------------*\
| =========                 |                                                 |
| \\      /  F ield         | OpenFOAM: The Open Source CFD Toolbox           |
|  \\    /   O peration     | Version:  4.1                                   |
|   \\  /    A nd           | Web:      www.OpenFOAM.org                      |
|    \\/     M anipulation  |                                                 |
\*---------------------------------------------------------------------------*/
FoamFile
{
    version     2.0;
    format      ascii;
    class       volScalarField;
    location    "773";
    object      p;
}
// * * * * * * * * * * * * * * * * * * * * * * * * * * * * * * * * * * * * * //

dimensions      [1 -1 -2 0 0 0 0];

internalField   nonuniform List<scalar> 
3264
(
0.712509
0.712507
0.712506
0.712506
0.712506
0.712506
0.712507
0.712509
0.712512
0.712515
0.71252
0.712525
0.712531
0.712539
0.712547
0.712556
0.712567
0.712578
0.71259
0.712604
0.712618
0.712634
0.712651
0.712669
0.712688
0.712708
0.712729
0.712751
0.712775
0.712799
0.712825
0.712852
0.712879
0.712909
0.712939
0.71297
0.713003
0.713036
0.713071
0.713107
0.713144
0.713182
0.713222
0.713262
0.713303
0.713345
0.713388
0.713431
0.713476
0.71352
0.713566
0.713612
0.713658
0.713704
0.71375
0.713796
0.713841
0.713887
0.713932
0.713976
0.714019
0.714061
0.714102
0.714142
0.714181
0.714218
0.714254
0.714288
0.71432
0.714351
0.714381
0.714408
0.714434
0.714458
0.71448
0.714501
0.71452
0.714538
0.714554
0.714569
0.714583
0.714595
0.714606
0.714616
0.714625
0.714633
0.714641
0.714647
0.714653
0.714659
0.714663
0.714668
0.714672
0.714675
0.714678
0.714681
0.714684
0.714686
0.714688
0.71469
0.714692
0.714694
0.714695
0.714696
0.714698
0.714699
0.7147
0.714701
0.714702
0.714702
0.714703
0.714703
0.714704
0.714704
0.714704
0.714704
0.714704
0.714704
0.714703
0.714703
0.714702
0.714701
0.7147
0.714699
0.714698
0.714697
0.714695
0.714694
0.714692
0.71469
0.714688
0.714686
0.714683
0.714681
0.714678
0.714675
0.714672
0.714669
0.714666
0.714663
0.714659
0.714656
0.714652
0.714648
0.714644
0.71464
0.714635
0.714631
0.714626
0.714622
0.714617
0.714612
0.714607
0.714602
0.714597
0.714592
0.714586
0.714581
0.714575
0.714569
0.714564
0.714558
0.714552
0.714546
0.71454
0.714534
0.714527
0.714521
0.714514
0.714508
0.714501
0.714495
0.714488
0.714481
0.714475
0.714468
0.714461
0.714454
0.714447
0.71444
0.714432
0.714425
0.714418
0.714411
0.714403
0.714396
0.714389
0.714381
0.714374
0.714366
0.714359
0.714351
0.714343
0.714336
0.714328
0.71432
0.714313
0.714305
0.714297
0.71429
0.712511
0.712509
0.712508
0.712508
0.712508
0.712509
0.71251
0.712512
0.712514
0.712517
0.712522
0.712527
0.712533
0.71254
0.712548
0.712558
0.712568
0.712579
0.712591
0.712605
0.712619
0.712635
0.712652
0.712669
0.712688
0.712708
0.712729
0.712751
0.712775
0.712799
0.712825
0.712851
0.712879
0.712908
0.712938
0.71297
0.713002
0.713036
0.71307
0.713106
0.713143
0.713181
0.71322
0.71326
0.713301
0.713343
0.713385
0.713429
0.713473
0.713518
0.713563
0.713609
0.713654
0.713701
0.713747
0.713792
0.713838
0.713883
0.713928
0.713972
0.714015
0.714057
0.714098
0.714138
0.714177
0.714214
0.71425
0.714284
0.714317
0.714348
0.714377
0.714405
0.71443
0.714455
0.714477
0.714498
0.714517
0.714535
0.714551
0.714566
0.71458
0.714592
0.714604
0.714614
0.714623
0.714631
0.714639
0.714646
0.714652
0.714657
0.714662
0.714666
0.71467
0.714674
0.714677
0.71468
0.714683
0.714685
0.714688
0.71469
0.714691
0.714693
0.714695
0.714696
0.714697
0.714699
0.7147
0.714701
0.714701
0.714702
0.714703
0.714703
0.714704
0.714704
0.714704
0.714704
0.714704
0.714704
0.714703
0.714703
0.714702
0.714701
0.714701
0.714699
0.714698
0.714697
0.714695
0.714694
0.714692
0.71469
0.714688
0.714686
0.714683
0.714681
0.714678
0.714675
0.714672
0.714669
0.714666
0.714663
0.714659
0.714656
0.714652
0.714648
0.714644
0.71464
0.714635
0.714631
0.714626
0.714622
0.714617
0.714612
0.714607
0.714602
0.714597
0.714592
0.714586
0.714581
0.714575
0.714569
0.714564
0.714558
0.714552
0.714546
0.71454
0.714534
0.714527
0.714521
0.714515
0.714508
0.714501
0.714495
0.714488
0.714481
0.714475
0.714468
0.714461
0.714454
0.714447
0.71444
0.714432
0.714425
0.714418
0.714411
0.714403
0.714396
0.714389
0.714381
0.714374
0.714366
0.714359
0.714351
0.714343
0.714336
0.714328
0.71432
0.714313
0.714305
0.714297
0.714289
0.712512
0.71251
0.712509
0.712508
0.712508
0.712508
0.712509
0.712511
0.712513
0.712516
0.712521
0.712526
0.712532
0.712539
0.712547
0.712556
0.712567
0.712578
0.71259
0.712604
0.712618
0.712634
0.71265
0.712668
0.712687
0.712707
0.712728
0.71275
0.712773
0.712798
0.712823
0.71285
0.712878
0.712907
0.712937
0.712968
0.713
0.713034
0.713068
0.713104
0.713141
0.713179
0.713218
0.713258
0.713299
0.71334
0.713383
0.713427
0.713471
0.713515
0.713561
0.713606
0.713652
0.713698
0.713744
0.71379
0.713836
0.713881
0.713925
0.713969
0.714013
0.714055
0.714096
0.714136
0.714175
0.714212
0.714248
0.714282
0.714314
0.714345
0.714375
0.714402
0.714428
0.714452
0.714475
0.714496
0.714515
0.714533
0.714549
0.714564
0.714578
0.71459
0.714602
0.714612
0.714621
0.714629
0.714637
0.714644
0.71465
0.714655
0.71466
0.714665
0.714669
0.714673
0.714676
0.714679
0.714682
0.714684
0.714687
0.714689
0.714691
0.714693
0.714694
0.714696
0.714697
0.714698
0.7147
0.714701
0.714701
0.714702
0.714703
0.714703
0.714704
0.714704
0.714704
0.714704
0.714704
0.714704
0.714704
0.714703
0.714702
0.714702
0.714701
0.7147
0.714699
0.714697
0.714696
0.714694
0.714692
0.71469
0.714688
0.714686
0.714684
0.714681
0.714678
0.714676
0.714673
0.714669
0.714666
0.714663
0.714659
0.714656
0.714652
0.714648
0.714644
0.71464
0.714635
0.714631
0.714627
0.714622
0.714617
0.714612
0.714607
0.714602
0.714597
0.714592
0.714586
0.714581
0.714575
0.71457
0.714564
0.714558
0.714552
0.714546
0.71454
0.714534
0.714527
0.714521
0.714515
0.714508
0.714502
0.714495
0.714488
0.714481
0.714475
0.714468
0.714461
0.714454
0.714447
0.71444
0.714433
0.714425
0.714418
0.714411
0.714403
0.714396
0.714389
0.714381
0.714374
0.714366
0.714359
0.714351
0.714343
0.714336
0.714328
0.71432
0.714313
0.714305
0.714297
0.714289
0.712506
0.712506
0.712505
0.712505
0.712505
0.712506
0.712507
0.712508
0.712511
0.712514
0.712518
0.712523
0.71253
0.712537
0.712545
0.712554
0.712564
0.712576
0.712588
0.712602
0.712616
0.712632
0.712648
0.712666
0.712685
0.712705
0.712726
0.712748
0.712771
0.712795
0.712821
0.712848
0.712875
0.712904
0.712934
0.712965
0.712998
0.713031
0.713066
0.713101
0.713138
0.713176
0.713215
0.713255
0.713295
0.713337
0.71338
0.713423
0.713467
0.713512
0.713557
0.713602
0.713648
0.713694
0.71374
0.713786
0.713831
0.713877
0.713921
0.713965
0.714008
0.71405
0.714091
0.714131
0.71417
0.714207
0.714242
0.714277
0.714309
0.71434
0.714369
0.714397
0.714422
0.714446
0.714469
0.71449
0.714509
0.714527
0.714543
0.714558
0.714572
0.714585
0.714596
0.714606
0.714616
0.714624
0.714632
0.714639
0.714645
0.714651
0.714656
0.714661
0.714665
0.714669
0.714673
0.714676
0.714679
0.714682
0.714685
0.714687
0.714689
0.714691
0.714693
0.714695
0.714696
0.714698
0.714699
0.7147
0.714701
0.714702
0.714703
0.714703
0.714704
0.714704
0.714704
0.714704
0.714704
0.714704
0.714704
0.714703
0.714703
0.714702
0.714701
0.7147
0.714699
0.714698
0.714696
0.714694
0.714693
0.714691
0.714689
0.714686
0.714684
0.714681
0.714679
0.714676
0.714673
0.71467
0.714667
0.714663
0.71466
0.714656
0.714652
0.714648
0.714644
0.71464
0.714636
0.714631
0.714627
0.714622
0.714617
0.714612
0.714607
0.714602
0.714597
0.714592
0.714586
0.714581
0.714575
0.71457
0.714564
0.714558
0.714552
0.714546
0.71454
0.714534
0.714527
0.714521
0.714515
0.714508
0.714502
0.714495
0.714488
0.714482
0.714475
0.714468
0.714461
0.714454
0.714447
0.71444
0.714433
0.714425
0.714418
0.714411
0.714404
0.714396
0.714389
0.714381
0.714374
0.714366
0.714359
0.714351
0.714343
0.714336
0.714328
0.71432
0.714312
0.714305
0.714297
0.714289
0.712504
0.712504
0.712501
0.712501
0.7125
0.712501
0.712502
0.712503
0.712506
0.71251
0.712514
0.71252
0.712526
0.712533
0.712542
0.712551
0.712562
0.712573
0.712585
0.712599
0.712614
0.712629
0.712646
0.712664
0.712683
0.712702
0.712724
0.712746
0.712769
0.712793
0.712819
0.712845
0.712873
0.712902
0.712932
0.712963
0.712995
0.713029
0.713063
0.713099
0.713136
0.713173
0.713212
0.713252
0.713293
0.713335
0.713377
0.71342
0.713464
0.713509
0.713554
0.713599
0.713645
0.713691
0.713737
0.713782
0.713828
0.713873
0.713917
0.71396
0.714003
0.714045
0.714086
0.714125
0.714163
0.7142
0.714235
0.714269
0.714301
0.714332
0.714361
0.714388
0.714413
0.714437
0.714459
0.71448
0.714499
0.714517
0.714533
0.714548
0.714562
0.714575
0.714586
0.714597
0.714606
0.714615
0.714623
0.71463
0.714637
0.714643
0.714649
0.714654
0.714659
0.714663
0.714667
0.714671
0.714674
0.714677
0.71468
0.714683
0.714686
0.714688
0.71469
0.714692
0.714694
0.714696
0.714697
0.714699
0.7147
0.714701
0.714702
0.714703
0.714703
0.714704
0.714704
0.714704
0.714705
0.714704
0.714704
0.714704
0.714703
0.714703
0.714702
0.714701
0.7147
0.714698
0.714697
0.714695
0.714693
0.714691
0.714689
0.714687
0.714685
0.714682
0.714679
0.714677
0.714674
0.71467
0.714667
0.714664
0.71466
0.714657
0.714653
0.714649
0.714645
0.71464
0.714636
0.714632
0.714627
0.714622
0.714618
0.714613
0.714608
0.714603
0.714597
0.714592
0.714587
0.714581
0.714576
0.71457
0.714564
0.714558
0.714552
0.714546
0.71454
0.714534
0.714528
0.714521
0.714515
0.714508
0.714502
0.714495
0.714489
0.714482
0.714475
0.714468
0.714461
0.714454
0.714447
0.71444
0.714433
0.714426
0.714418
0.714411
0.714404
0.714396
0.714389
0.714381
0.714374
0.714366
0.714359
0.714351
0.714343
0.714336
0.714328
0.71432
0.714312
0.714304
0.714296
0.714288
0.712472
0.712487
0.712486
0.712492
0.712493
0.712496
0.712497
0.7125
0.712503
0.712507
0.712512
0.712517
0.712524
0.712531
0.71254
0.712549
0.71256
0.712571
0.712584
0.712597
0.712612
0.712628
0.712645
0.712662
0.712681
0.712701
0.712722
0.712745
0.712768
0.712792
0.712818
0.712844
0.712872
0.712901
0.712931
0.712962
0.712994
0.713028
0.713062
0.713098
0.713135
0.713173
0.713211
0.713251
0.713292
0.713334
0.713376
0.713419
0.713463
0.713508
0.713552
0.713598
0.713643
0.713688
0.713734
0.713779
0.713824
0.713868
0.713912
0.713955
0.713997
0.714038
0.714078
0.714117
0.714154
0.71419
0.714225
0.714258
0.714289
0.714319
0.714347
0.714374
0.714399
0.714422
0.714444
0.714464
0.714483
0.714501
0.714517
0.714532
0.714546
0.714558
0.71457
0.714581
0.714591
0.7146
0.714609
0.714616
0.714624
0.71463
0.714637
0.714642
0.714648
0.714653
0.714657
0.714662
0.714666
0.71467
0.714673
0.714677
0.71468
0.714683
0.714685
0.714688
0.71469
0.714692
0.714694
0.714696
0.714698
0.714699
0.7147
0.714702
0.714702
0.714703
0.714704
0.714704
0.714704
0.714705
0.714704
0.714704
0.714704
0.714703
0.714702
0.714701
0.7147
0.714699
0.714698
0.714696
0.714694
0.714692
0.71469
0.714688
0.714686
0.714683
0.71468
0.714677
0.714674
0.714671
0.714668
0.714664
0.714661
0.714657
0.714653
0.714649
0.714645
0.714641
0.714637
0.714632
0.714628
0.714623
0.714618
0.714613
0.714608
0.714603
0.714598
0.714593
0.714587
0.714582
0.714576
0.71457
0.714564
0.714559
0.714553
0.714547
0.71454
0.714534
0.714528
0.714522
0.714515
0.714509
0.714502
0.714495
0.714489
0.714482
0.714475
0.714468
0.714461
0.714454
0.714447
0.71444
0.714433
0.714426
0.714419
0.714411
0.714404
0.714396
0.714389
0.714382
0.714374
0.714366
0.714359
0.714351
0.714343
0.714336
0.714328
0.71432
0.714312
0.714304
0.714296
0.714288
0.712471
0.712487
0.712486
0.712489
0.71249
0.712492
0.712494
0.712497
0.712501
0.712505
0.71251
0.712516
0.712523
0.712531
0.712539
0.712549
0.71256
0.712571
0.712584
0.712598
0.712612
0.712628
0.712645
0.712663
0.712682
0.712702
0.712723
0.712745
0.712769
0.712793
0.712819
0.712846
0.712873
0.712902
0.712933
0.712964
0.712996
0.71303
0.713065
0.7131
0.713137
0.713175
0.713214
0.713254
0.713295
0.713336
0.713378
0.713421
0.713465
0.713509
0.713554
0.713598
0.713643
0.713688
0.713733
0.713777
0.713821
0.713865
0.713908
0.71395
0.713991
0.714031
0.714069
0.714107
0.714143
0.714178
0.714211
0.714243
0.714273
0.714302
0.714329
0.714355
0.714379
0.714401
0.714423
0.714442
0.714461
0.714478
0.714494
0.714509
0.714523
0.714536
0.714548
0.714559
0.71457
0.71458
0.714589
0.714597
0.714605
0.714613
0.71462
0.714626
0.714633
0.714639
0.714644
0.714649
0.714654
0.714659
0.714664
0.714668
0.714672
0.714675
0.714679
0.714682
0.714685
0.714688
0.71469
0.714693
0.714695
0.714697
0.714698
0.7147
0.714701
0.714702
0.714703
0.714704
0.714704
0.714705
0.714705
0.714705
0.714704
0.714704
0.714703
0.714702
0.714701
0.7147
0.714699
0.714697
0.714695
0.714693
0.714691
0.714689
0.714687
0.714684
0.714681
0.714678
0.714675
0.714672
0.714669
0.714665
0.714662
0.714658
0.714654
0.71465
0.714646
0.714642
0.714637
0.714633
0.714628
0.714624
0.714619
0.714614
0.714609
0.714604
0.714598
0.714593
0.714588
0.714582
0.714576
0.714571
0.714565
0.714559
0.714553
0.714547
0.714541
0.714535
0.714528
0.714522
0.714515
0.714509
0.714502
0.714496
0.714489
0.714482
0.714475
0.714469
0.714462
0.714455
0.714448
0.71444
0.714433
0.714426
0.714419
0.714412
0.714404
0.714397
0.714389
0.714382
0.714374
0.714367
0.714359
0.714351
0.714344
0.714336
0.714328
0.71432
0.714312
0.714304
0.714296
0.714287
0.712317
0.712455
0.712472
0.712493
0.712496
0.712499
0.712501
0.712503
0.712506
0.71251
0.712514
0.71252
0.712526
0.712534
0.712542
0.712552
0.712562
0.712574
0.712587
0.7126
0.712615
0.712631
0.712648
0.712666
0.712685
0.712705
0.712727
0.712749
0.712773
0.712797
0.712823
0.71285
0.712878
0.712908
0.712938
0.71297
0.713002
0.713036
0.713071
0.713107
0.713144
0.713182
0.713221
0.713261
0.713302
0.713343
0.713385
0.713428
0.713471
0.713515
0.713559
0.713603
0.713647
0.713691
0.713734
0.713778
0.713821
0.713863
0.713904
0.713945
0.713984
0.714022
0.71406
0.714095
0.71413
0.714163
0.714195
0.714225
0.714254
0.714281
0.714307
0.714331
0.714354
0.714376
0.714396
0.714416
0.714434
0.714451
0.714467
0.714482
0.714496
0.714509
0.714521
0.714533
0.714544
0.714555
0.714565
0.714574
0.714583
0.714592
0.7146
0.714608
0.714615
0.714622
0.714629
0.714635
0.714641
0.714647
0.714652
0.714657
0.714662
0.714667
0.714671
0.714675
0.714679
0.714682
0.714686
0.714689
0.714691
0.714694
0.714696
0.714698
0.7147
0.714701
0.714702
0.714703
0.714704
0.714705
0.714705
0.714705
0.714705
0.714704
0.714704
0.714703
0.714702
0.714701
0.7147
0.714698
0.714696
0.714695
0.714693
0.71469
0.714688
0.714685
0.714683
0.71468
0.714677
0.714673
0.71467
0.714667
0.714663
0.714659
0.714655
0.714651
0.714647
0.714643
0.714638
0.714634
0.714629
0.714624
0.71462
0.714615
0.714609
0.714604
0.714599
0.714594
0.714588
0.714583
0.714577
0.714571
0.714565
0.714559
0.714553
0.714547
0.714541
0.714535
0.714529
0.714522
0.714516
0.714509
0.714503
0.714496
0.714489
0.714483
0.714476
0.714469
0.714462
0.714455
0.714448
0.714441
0.714434
0.714427
0.714419
0.714412
0.714405
0.714397
0.71439
0.714382
0.714375
0.714367
0.714359
0.714352
0.714344
0.714336
0.714328
0.71432
0.714312
0.714304
0.714296
0.714288
0.713039
0.712983
0.712921
0.712854
0.712781
0.712704
0.712618
0.7125
0.713045
0.712999
0.712936
0.712867
0.712795
0.712717
0.712627
0.712531
0.713049
0.71301
0.712952
0.712887
0.712818
0.712747
0.712676
0.712607
0.713059
0.713025
0.712972
0.712911
0.712847
0.712783
0.712719
0.712661
0.713071
0.713039
0.71299
0.712933
0.712874
0.712817
0.712763
0.712714
0.713085
0.713052
0.713004
0.71295
0.712895
0.712843
0.712795
0.712752
0.7131
0.713063
0.713013
0.71296
0.712908
0.71286
0.712816
0.712775
0.713108
0.71306
0.71301
0.71296
0.712911
0.712865
0.712822
0.712782
0.71244
0.712461
0.712481
0.712492
0.712498
0.712501
0.712504
0.712506
0.712509
0.712513
0.712518
0.712523
0.71253
0.712538
0.712546
0.712556
0.712567
0.712578
0.712591
0.712605
0.71262
0.712636
0.712654
0.712672
0.712691
0.712712
0.712734
0.712757
0.712781
0.712806
0.712832
0.71286
0.712888
0.712918
0.712949
0.712981
0.713014
0.713048
0.713083
0.71312
0.713157
0.713195
0.713234
0.713274
0.713315
0.713356
0.713398
0.71344
0.713483
0.713526
0.713569
0.713612
0.713655
0.713697
0.71374
0.713781
0.713823
0.713863
0.713902
0.713941
0.713978
0.714015
0.71405
0.714083
0.714116
0.714147
0.714177
0.714205
0.714232
0.714258
0.714282
0.714305
0.714327
0.714348
0.714368
0.714387
0.714404
0.714421
0.714437
0.714452
0.714467
0.714481
0.714494
0.714506
0.714518
0.71453
0.714541
0.714551
0.714561
0.714571
0.71458
0.714589
0.714598
0.714606
0.714614
0.714621
0.714628
0.714635
0.714641
0.714647
0.714653
0.714659
0.714664
0.714669
0.714673
0.714677
0.714681
0.714685
0.714688
0.714691
0.714694
0.714696
0.714698
0.7147
0.714702
0.714703
0.714704
0.714705
0.714705
0.714705
0.714705
0.714705
0.714705
0.714704
0.714703
0.714702
0.714701
0.714699
0.714698
0.714696
0.714694
0.714692
0.714689
0.714687
0.714684
0.714681
0.714678
0.714675
0.714671
0.714668
0.714664
0.71466
0.714656
0.714652
0.714648
0.714644
0.714639
0.714635
0.71463
0.714625
0.71462
0.714615
0.71461
0.714605
0.7146
0.714594
0.714589
0.714583
0.714578
0.714572
0.714566
0.71456
0.714554
0.714548
0.714542
0.714535
0.714529
0.714523
0.714516
0.71451
0.714503
0.714497
0.71449
0.714483
0.714476
0.714469
0.714462
0.714455
0.714448
0.714441
0.714434
0.714427
0.71442
0.714412
0.714405
0.714398
0.71439
0.714383
0.714375
0.714367
0.71436
0.714352
0.714344
0.714337
0.714329
0.714321
0.714313
0.714305
0.714296
0.714288
0.71246
0.712471
0.712484
0.712496
0.712504
0.712508
0.712512
0.712514
0.712517
0.712521
0.712526
0.712531
0.712537
0.712545
0.712554
0.712563
0.712574
0.712586
0.712599
0.712613
0.712629
0.712645
0.712663
0.712682
0.712702
0.712723
0.712745
0.712769
0.712793
0.712819
0.712846
0.712874
0.712903
0.712934
0.712965
0.712998
0.713031
0.713066
0.713102
0.713138
0.713176
0.713214
0.713253
0.713293
0.713334
0.713375
0.713416
0.713458
0.713499
0.713541
0.713583
0.713625
0.713666
0.713707
0.713748
0.713788
0.713827
0.713865
0.713902
0.713938
0.713973
0.714007
0.71404
0.714072
0.714102
0.714131
0.714159
0.714185
0.714211
0.714235
0.714258
0.71428
0.714301
0.714321
0.714341
0.714359
0.714377
0.714394
0.71441
0.714425
0.71444
0.714455
0.714469
0.714482
0.714495
0.714507
0.714519
0.714531
0.714542
0.714553
0.714563
0.714573
0.714583
0.714592
0.714601
0.714609
0.714617
0.714625
0.714632
0.714639
0.714646
0.714652
0.714658
0.714663
0.714668
0.714673
0.714678
0.714682
0.714685
0.714689
0.714692
0.714695
0.714697
0.714699
0.714701
0.714703
0.714704
0.714705
0.714706
0.714706
0.714706
0.714706
0.714706
0.714705
0.714705
0.714703
0.714702
0.714701
0.714699
0.714697
0.714695
0.714693
0.714691
0.714688
0.714685
0.714682
0.714679
0.714676
0.714672
0.714669
0.714665
0.714661
0.714657
0.714653
0.714649
0.714645
0.71464
0.714636
0.714631
0.714626
0.714621
0.714616
0.714611
0.714606
0.7146
0.714595
0.714589
0.714584
0.714578
0.714572
0.714567
0.714561
0.714555
0.714548
0.714542
0.714536
0.71453
0.714523
0.714517
0.71451
0.714504
0.714497
0.71449
0.714484
0.714477
0.71447
0.714463
0.714456
0.714449
0.714442
0.714435
0.714427
0.71442
0.714413
0.714405
0.714398
0.714391
0.714383
0.714375
0.714368
0.71436
0.714353
0.714345
0.714337
0.714329
0.714321
0.714313
0.714305
0.714297
0.714289
0.712554
0.712531
0.712524
0.712524
0.712525
0.712526
0.712527
0.712528
0.71253
0.712533
0.712537
0.712542
0.712548
0.712555
0.712564
0.712573
0.712584
0.712597
0.71261
0.712625
0.71264
0.712657
0.712676
0.712695
0.712716
0.712737
0.71276
0.712785
0.71281
0.712836
0.712864
0.712893
0.712923
0.712954
0.712986
0.713019
0.713053
0.713088
0.713124
0.713161
0.713199
0.713237
0.713276
0.713316
0.713356
0.713396
0.713437
0.713478
0.713518
0.713559
0.7136
0.71364
0.713679
0.713718
0.713757
0.713794
0.713831
0.713867
0.713902
0.713936
0.713969
0.714
0.714031
0.71406
0.714089
0.714116
0.714142
0.714167
0.714191
0.714215
0.714237
0.714258
0.714279
0.714299
0.714318
0.714337
0.714354
0.714372
0.714388
0.714405
0.71442
0.714435
0.71445
0.714464
0.714478
0.714491
0.714504
0.714517
0.714529
0.71454
0.714551
0.714562
0.714573
0.714582
0.714592
0.714601
0.71461
0.714618
0.714626
0.714634
0.714641
0.714648
0.714654
0.71466
0.714665
0.714671
0.714675
0.71468
0.714684
0.714688
0.714691
0.714694
0.714697
0.714699
0.714701
0.714703
0.714704
0.714705
0.714706
0.714707
0.714707
0.714707
0.714707
0.714706
0.714706
0.714705
0.714703
0.714702
0.7147
0.714698
0.714696
0.714694
0.714692
0.714689
0.714686
0.714683
0.71468
0.714677
0.714674
0.71467
0.714666
0.714662
0.714658
0.714654
0.71465
0.714646
0.714641
0.714636
0.714632
0.714627
0.714622
0.714617
0.714612
0.714606
0.714601
0.714596
0.71459
0.714584
0.714579
0.714573
0.714567
0.714561
0.714555
0.714549
0.714543
0.714537
0.71453
0.714524
0.714517
0.714511
0.714504
0.714498
0.714491
0.714484
0.714477
0.71447
0.714463
0.714456
0.714449
0.714442
0.714435
0.714428
0.714421
0.714413
0.714406
0.714398
0.714391
0.714383
0.714376
0.714368
0.714361
0.714353
0.714345
0.714337
0.714329
0.714322
0.714314
0.714306
0.714298
0.71429
0.712615
0.712587
0.712572
0.712564
0.712559
0.712555
0.712552
0.712551
0.71255
0.712551
0.712553
0.712557
0.712562
0.712569
0.712577
0.712586
0.712597
0.712609
0.712622
0.712637
0.712653
0.712671
0.712689
0.712709
0.71273
0.712753
0.712776
0.712801
0.712827
0.712855
0.712883
0.712912
0.712943
0.712974
0.713007
0.713041
0.713075
0.713111
0.713147
0.713184
0.713221
0.71326
0.713298
0.713337
0.713377
0.713416
0.713456
0.713496
0.713535
0.713574
0.713613
0.713652
0.713689
0.713727
0.713763
0.713799
0.713834
0.713867
0.7139
0.713932
0.713963
0.713993
0.714022
0.71405
0.714077
0.714103
0.714129
0.714153
0.714177
0.714199
0.714221
0.714243
0.714263
0.714283
0.714303
0.714322
0.71434
0.714358
0.714375
0.714391
0.714408
0.714423
0.714439
0.714453
0.714468
0.714482
0.714495
0.714508
0.714521
0.714533
0.714544
0.714556
0.714567
0.714577
0.714587
0.714597
0.714606
0.714614
0.714623
0.714631
0.714638
0.714645
0.714652
0.714658
0.714664
0.714669
0.714674
0.714679
0.714683
0.714687
0.714691
0.714694
0.714697
0.714699
0.714701
0.714703
0.714705
0.714706
0.714707
0.714708
0.714708
0.714708
0.714708
0.714707
0.714707
0.714706
0.714704
0.714703
0.714701
0.7147
0.714697
0.714695
0.714693
0.71469
0.714687
0.714684
0.714681
0.714678
0.714674
0.714671
0.714667
0.714663
0.714659
0.714655
0.714651
0.714646
0.714642
0.714637
0.714632
0.714628
0.714623
0.714617
0.714612
0.714607
0.714602
0.714596
0.714591
0.714585
0.714579
0.714573
0.714568
0.714562
0.714556
0.714549
0.714543
0.714537
0.714531
0.714524
0.714518
0.714511
0.714505
0.714498
0.714491
0.714484
0.714478
0.714471
0.714464
0.714457
0.71445
0.714443
0.714435
0.714428
0.714421
0.714414
0.714406
0.714399
0.714391
0.714384
0.714376
0.714369
0.714361
0.714353
0.714345
0.714338
0.71433
0.714322
0.714314
0.714306
0.714298
0.714291
0.712675
0.712645
0.712624
0.712609
0.712598
0.712589
0.712582
0.712576
0.712572
0.71257
0.71257
0.712572
0.712576
0.712582
0.712589
0.712598
0.712608
0.71262
0.712633
0.712648
0.712665
0.712682
0.712701
0.712722
0.712743
0.712766
0.71279
0.712816
0.712842
0.71287
0.712899
0.712929
0.71296
0.712992
0.713025
0.713058
0.713093
0.713128
0.713165
0.713201
0.713239
0.713277
0.713315
0.713353
0.713392
0.71343
0.713469
0.713508
0.713546
0.713584
0.713621
0.713658
0.713695
0.71373
0.713765
0.713799
0.713833
0.713865
0.713897
0.713928
0.713958
0.713987
0.714015
0.714042
0.714069
0.714095
0.71412
0.714144
0.714167
0.71419
0.714212
0.714234
0.714254
0.714275
0.714294
0.714314
0.714332
0.71435
0.714368
0.714385
0.714401
0.714417
0.714433
0.714448
0.714463
0.714477
0.714491
0.714504
0.714517
0.714529
0.714541
0.714553
0.714564
0.714574
0.714585
0.714594
0.714604
0.714613
0.714621
0.714629
0.714637
0.714644
0.714651
0.714657
0.714663
0.714669
0.714674
0.714679
0.714683
0.714687
0.714691
0.714694
0.714697
0.7147
0.714702
0.714704
0.714705
0.714707
0.714707
0.714708
0.714709
0.714709
0.714708
0.714708
0.714707
0.714706
0.714705
0.714704
0.714702
0.7147
0.714698
0.714696
0.714693
0.714691
0.714688
0.714685
0.714682
0.714679
0.714675
0.714671
0.714668
0.714664
0.71466
0.714656
0.714651
0.714647
0.714642
0.714638
0.714633
0.714628
0.714623
0.714618
0.714613
0.714607
0.714602
0.714597
0.714591
0.714585
0.71458
0.714574
0.714568
0.714562
0.714556
0.71455
0.714544
0.714537
0.714531
0.714525
0.714518
0.714512
0.714505
0.714498
0.714492
0.714485
0.714478
0.714471
0.714464
0.714457
0.71445
0.714443
0.714436
0.714428
0.714421
0.714414
0.714406
0.714399
0.714392
0.714384
0.714376
0.714369
0.714361
0.714353
0.714346
0.714338
0.71433
0.714322
0.714314
0.714306
0.714298
0.714291
0.712716
0.712686
0.712662
0.712642
0.712626
0.712612
0.712601
0.712592
0.712586
0.712582
0.71258
0.712581
0.712584
0.712588
0.712595
0.712604
0.712614
0.712626
0.712639
0.712654
0.712671
0.712689
0.712708
0.712729
0.712751
0.712774
0.712798
0.712824
0.712851
0.712879
0.712908
0.712938
0.712969
0.713001
0.713034
0.713067
0.713102
0.713137
0.713173
0.71321
0.713247
0.713284
0.713322
0.713359
0.713397
0.713435
0.713473
0.713511
0.713548
0.713585
0.713622
0.713658
0.713694
0.713729
0.713763
0.713796
0.713829
0.713861
0.713892
0.713923
0.713953
0.713981
0.71401
0.714037
0.714063
0.714089
0.714114
0.714139
0.714162
0.714185
0.714208
0.714229
0.71425
0.714271
0.714291
0.71431
0.714329
0.714347
0.714365
0.714382
0.714399
0.714415
0.714431
0.714446
0.714461
0.714475
0.714489
0.714502
0.714515
0.714528
0.71454
0.714552
0.714563
0.714574
0.714584
0.714594
0.714603
0.714612
0.714621
0.714629
0.714637
0.714644
0.714651
0.714657
0.714663
0.714669
0.714674
0.714679
0.714683
0.714688
0.714691
0.714695
0.714697
0.7147
0.714702
0.714704
0.714706
0.714707
0.714708
0.714709
0.714709
0.714709
0.714709
0.714709
0.714708
0.714707
0.714706
0.714704
0.714703
0.714701
0.714699
0.714697
0.714694
0.714691
0.714689
0.714686
0.714682
0.714679
0.714676
0.714672
0.714668
0.714664
0.71466
0.714656
0.714652
0.714647
0.714643
0.714638
0.714633
0.714628
0.714623
0.714618
0.714613
0.714608
0.714602
0.714597
0.714591
0.714586
0.71458
0.714574
0.714568
0.714562
0.714556
0.71455
0.714544
0.714538
0.714531
0.714525
0.714518
0.714512
0.714505
0.714499
0.714492
0.714485
0.714478
0.714471
0.714464
0.714457
0.71445
0.714443
0.714436
0.714429
0.714421
0.714414
0.714407
0.714399
0.714392
0.714384
0.714377
0.714369
0.714361
0.714354
0.714346
0.714338
0.71433
0.714322
0.714314
0.714307
0.714298
0.714291
0.71274
0.712709
0.712683
0.71266
0.71264
0.712624
0.71261
0.7126
0.712592
0.712587
0.712584
0.712584
0.712587
0.712591
0.712598
0.712606
0.712616
0.712628
0.712642
0.712657
0.712673
0.712691
0.712711
0.712732
0.712754
0.712777
0.712801
0.712827
0.712854
0.712882
0.712911
0.712941
0.712972
0.713004
0.713036
0.71307
0.713104
0.713139
0.713175
0.713211
0.713248
0.713285
0.713322
0.71336
0.713397
0.713435
0.713472
0.713509
0.713547
0.713583
0.71362
0.713656
0.713691
0.713726
0.71376
0.713793
0.713826
0.713858
0.71389
0.71392
0.71395
0.713979
0.714007
0.714034
0.714061
0.714087
0.714112
0.714137
0.71416
0.714183
0.714206
0.714228
0.714249
0.714269
0.714289
0.714309
0.714328
0.714346
0.714364
0.714381
0.714398
0.714414
0.71443
0.714445
0.71446
0.714474
0.714488
0.714502
0.714515
0.714528
0.71454
0.714551
0.714563
0.714573
0.714584
0.714594
0.714603
0.714612
0.714621
0.714629
0.714637
0.714644
0.714651
0.714657
0.714663
0.714669
0.714674
0.714679
0.714684
0.714688
0.714691
0.714695
0.714698
0.7147
0.714703
0.714705
0.714706
0.714707
0.714708
0.714709
0.714709
0.71471
0.714709
0.714709
0.714708
0.714707
0.714706
0.714705
0.714703
0.714701
0.714699
0.714697
0.714694
0.714692
0.714689
0.714686
0.714683
0.714679
0.714676
0.714672
0.714669
0.714665
0.714661
0.714656
0.714652
0.714648
0.714643
0.714638
0.714634
0.714629
0.714624
0.714619
0.714613
0.714608
0.714603
0.714597
0.714592
0.714586
0.71458
0.714574
0.714568
0.714562
0.714556
0.71455
0.714544
0.714538
0.714531
0.714525
0.714519
0.714512
0.714505
0.714499
0.714492
0.714485
0.714478
0.714471
0.714464
0.714457
0.71445
0.714443
0.714436
0.714429
0.714422
0.714414
0.714407
0.714399
0.714392
0.714384
0.714377
0.714369
0.714361
0.714354
0.714346
0.714338
0.71433
0.714322
0.714314
0.714307
0.714298
0.714291
0.712746
0.712713
0.712685
0.71266
0.712638
0.71262
0.712606
0.712595
0.712587
0.712582
0.712579
0.712579
0.712582
0.712586
0.712593
0.712601
0.712612
0.712624
0.712637
0.712652
0.712669
0.712687
0.712706
0.712727
0.712749
0.712772
0.712797
0.712823
0.712849
0.712877
0.712906
0.712936
0.712967
0.712999
0.713032
0.713065
0.713099
0.713134
0.71317
0.713206
0.713243
0.71328
0.713317
0.713354
0.713392
0.71343
0.713467
0.713505
0.713542
0.713579
0.713615
0.713651
0.713687
0.713722
0.713756
0.71379
0.713823
0.713855
0.713886
0.713917
0.713947
0.713976
0.714004
0.714032
0.714059
0.714085
0.71411
0.714135
0.714159
0.714182
0.714205
0.714226
0.714248
0.714268
0.714289
0.714308
0.714327
0.714345
0.714363
0.714381
0.714398
0.714414
0.71443
0.714445
0.71446
0.714475
0.714489
0.714502
0.714515
0.714528
0.71454
0.714552
0.714563
0.714574
0.714584
0.714594
0.714604
0.714613
0.714622
0.71463
0.714638
0.714645
0.714652
0.714658
0.714664
0.71467
0.714675
0.71468
0.714685
0.714689
0.714692
0.714696
0.714699
0.714701
0.714703
0.714705
0.714707
0.714708
0.714709
0.71471
0.71471
0.71471
0.71471
0.71471
0.714709
0.714708
0.714707
0.714705
0.714704
0.714702
0.7147
0.714698
0.714695
0.714692
0.71469
0.714687
0.714683
0.71468
0.714677
0.714673
0.714669
0.714665
0.714661
0.714657
0.714653
0.714648
0.714644
0.714639
0.714634
0.714629
0.714624
0.714619
0.714614
0.714608
0.714603
0.714598
0.714592
0.714586
0.714581
0.714575
0.714569
0.714563
0.714557
0.714551
0.714544
0.714538
0.714532
0.714525
0.714519
0.714512
0.714506
0.714499
0.714492
0.714485
0.714479
0.714472
0.714465
0.714458
0.714451
0.714443
0.714436
0.714429
0.714422
0.714414
0.714407
0.7144
0.714392
0.714385
0.714377
0.714369
0.714362
0.714354
0.714346
0.714338
0.714331
0.714323
0.714315
0.714307
0.714298
0.714291
)
;

boundaryField
{
    inlet
    {
        type            zeroGradient;
    }
    outlet
    {