/*--------------------------------*- C++ -*----------------------------------*\
| =========                 |                                                 |
| \\      /  F ield         | OpenFOAM: The Open Source CFD Toolbox           |
|  \\    /   O peration     | Version:  4.1                                   |
|   \\  /    A nd           | Web:      www.OpenFOAM.org                      |
|    \\/     M anipulation  |                                                 |
\*---------------------------------------------------------------------------*/
FoamFile
{
    version     2.0;
    format      ascii;
    class       volScalarField;
    location    "3120";
    object      p;
}
// * * * * * * * * * * * * * * * * * * * * * * * * * * * * * * * * * * * * * //

dimensions      [1 -1 -2 0 0 0 0];

internalField   nonuniform List<scalar> 
1275
(
0.711996
0.711995
0.711995
0.711995
0.711994
0.711994
0.711993
0.711993
0.711993
0.711993
0.711992
0.711993
0.711992
0.711993
0.711993
0.711994
0.711994
0.711995
0.711995
0.711996
0.711997
0.711998
0.712
0.712001
0.712003
0.712004
0.712006
0.712008
0.71201
0.712013
0.712015
0.712018
0.71202
0.712023
0.712026
0.71203
0.712033
0.712037
0.71204
0.712044
0.712048
0.712053
0.712057
0.712062
0.712066
0.712071
0.712076
0.712082
0.712087
0.712093
0.712099
0.712105
0.712111
0.712117
0.712124
0.712131
0.712138
0.712145
0.712153
0.71216
0.712168
0.712177
0.712186
0.712195
0.712204
0.712214
0.712224
0.712235
0.712246
0.712258
0.712271
0.712285
0.712299
0.712315
0.712332
0.71235
0.71237
0.712391
0.712414
0.71244
0.712467
0.712498
0.712531
0.712566
0.712605
0.712647
0.712692
0.71274
0.712791
0.712845
0.712902
0.71296
0.713021
0.713082
0.713145
0.713207
0.713268
0.713328
0.713386
0.713441
0.713493
0.713541
0.713584
0.713623
0.713656
0.713685
0.713708
0.713727
0.71374
0.71375
0.713754
0.713755
0.713753
0.713748
0.713739
0.713729
0.713717
0.713703
0.713689
0.713674
0.713658
0.713642
0.711995
0.711994
0.711994
0.711994
0.711993
0.711994
0.711993
0.711994
0.711993
0.711994
0.711993
0.711994
0.711993
0.711994
0.711994
0.711994
0.711995
0.711995
0.711996
0.711997
0.711998
0.711999
0.712
0.712002
0.712003
0.712005
0.712007
0.712009
0.712011
0.712013
0.712016
0.712018
0.712021
0.712024
0.712027
0.71203
0.712034
0.712037
0.712041
0.712045
0.712049
0.712053
0.712057
0.712062
0.712067
0.712072
0.712077
0.712082
0.712088
0.712093
0.712099
0.712105
0.712111
0.712118
0.712124
0.712131
0.712138
0.712146
0.712153
0.712161
0.712169
0.712178
0.712187
0.712196
0.712205
0.712215
0.712225
0.712236
0.712248
0.71226
0.712273
0.712286
0.712301
0.712316
0.712333
0.712351
0.71237
0.712391
0.712414
0.712439
0.712466
0.712496
0.712528
0.712564
0.712602
0.712643
0.712687
0.712735
0.712786
0.712839
0.712895
0.712954
0.713014
0.713076
0.713138
0.7132
0.713262
0.713322
0.71338
0.713435
0.713487
0.713535
0.713578
0.713617
0.713651
0.713679
0.713703
0.713721
0.713735
0.713744
0.713749
0.713751
0.713748
0.713743
0.713735
0.713725
0.713713
0.713699
0.713685
0.71367
0.713655
0.713639
0.711998
0.711997
0.711996
0.711996
0.711995
0.711995
0.711994
0.711994
0.711993
0.711994
0.711993
0.711993
0.711993
0.711993
0.711993
0.711994
0.711994
0.711995
0.711996
0.711997
0.711998
0.711999
0.712
0.712001
0.712003
0.712005
0.712006
0.712008
0.712011
0.712013
0.712015
0.712018
0.712021
0.712024
0.712027
0.71203
0.712033
0.712037
0.712041
0.712045
0.712049
0.712053
0.712057
0.712062
0.712067
0.712072
0.712077
0.712082
0.712087
0.712093
0.712099
0.712105
0.712111
0.712118
0.712124
0.712131
0.712138
0.712146
0.712153
0.712161
0.712169
0.712177
0.712186
0.712195
0.712205
0.712215
0.712225
0.712236
0.712247
0.712259
0.712272
0.712285
0.712299
0.712315
0.712331
0.712349
0.712368
0.712389
0.712411
0.712436
0.712463
0.712492
0.712524
0.712559
0.712597
0.712638
0.712682
0.712729
0.71278
0.712833
0.712889
0.712948
0.713008
0.71307
0.713132
0.713194
0.713256
0.713316
0.713374
0.713429
0.713481
0.713529
0.713572
0.713611
0.713644
0.713673
0.713696
0.713715
0.713728
0.713737
0.713742
0.713743
0.713741
0.713735
0.713727
0.713717
0.713705
0.713692
0.713678
0.713663
0.713648
0.713633
0.711993
0.711994
0.711992
0.711994
0.711993
0.711994
0.711993
0.711994
0.711993
0.711994
0.711993
0.711994
0.711993
0.711994
0.711994
0.711994
0.711995
0.711995
0.711996
0.711997
0.711998
0.711999
0.712
0.712001
0.712003
0.712005
0.712006
0.712008
0.712011
0.712013
0.712015
0.712018
0.712021
0.712024
0.712027
0.71203
0.712033
0.712037
0.712041
0.712045
0.712049
0.712053
0.712057
0.712062
0.712067
0.712072
0.712077
0.712082
0.712087
0.712093
0.712099
0.712105
0.712111
0.712118
0.712124
0.712131
0.712138
0.712146
0.712153
0.712161
0.712169
0.712177
0.712186
0.712195
0.712205
0.712214
0.712225
0.712235
0.712247
0.712258
0.712271
0.712284
0.712298
0.712313
0.712329
0.712346
0.712365
0.712385
0.712407
0.712432
0.712458
0.712487
0.712518
0.712552
0.71259
0.71263
0.712674
0.712721
0.712771
0.712825
0.712881
0.712939
0.712999
0.71306
0.713122
0.713184
0.713245
0.713305
0.713362
0.713417
0.713468
0.713515
0.713557
0.713595
0.713628
0.713656
0.713678
0.713696
0.713709
0.713718
0.713722
0.713723
0.713721
0.713715
0.713707
0.713697
0.713686
0.713673
0.71366
0.713645
0.713631
0.713616
0.711999
0.711999
0.711997
0.711997
0.711995
0.711995
0.711993
0.711994
0.711992
0.711993
0.711992
0.711992
0.711992
0.711992
0.711992
0.711993
0.711993
0.711994
0.711995
0.711996
0.711996
0.711998
0.711999
0.712
0.712002
0.712004
0.712006
0.712008
0.71201
0.712012
0.712014
0.712017
0.71202
0.712023
0.712026
0.712029
0.712033
0.712036
0.71204
0.712044
0.712048
0.712052
0.712057
0.712061
0.712066
0.712071
0.712076
0.712081
0.712087
0.712092
0.712098
0.712104
0.712111
0.712117
0.712124
0.71213
0.712138
0.712145
0.712152
0.71216
0.712168
0.712177
0.712185
0.712194
0.712203
0.712213
0.712223
0.712234
0.712245
0.712257
0.712269
0.712282
0.712296
0.71231
0.712326
0.712343
0.712362
0.712382
0.712404
0.712428
0.712454
0.712483
0.712514
0.712548
0.712586
0.712626
0.71267
0.712717
0.712767
0.71282
0.712876
0.712934
0.712993
0.713054
0.713115
0.713175
0.713235
0.713293
0.713349
0.713402
0.713451
0.713496
0.713537
0.713573
0.713604
0.71363
0.713651
0.713667
0.713679
0.713687
0.713691
0.713691
0.713688
0.713683
0.713675
0.713665
0.713654
0.713642
0.713629
0.713616
0.713603
0.713589
0.711988
0.71199
0.711987
0.711992
0.711989
0.711992
0.71199
0.711992
0.711991
0.711992
0.711991
0.711992
0.711992
0.711992
0.711992
0.711993
0.711993
0.711994
0.711994
0.711995
0.711996
0.711997
0.711999
0.712
0.712001
0.712003
0.712005
0.712007
0.712009
0.712011
0.712014
0.712017
0.712019
0.712022
0.712025
0.712029
0.712032
0.712036
0.712039
0.712043
0.712047
0.712052
0.712056
0.712061
0.712065
0.71207
0.712075
0.712081
0.712086
0.712092
0.712098
0.712104
0.71211
0.712116
0.712123
0.71213
0.712137
0.712144
0.712152
0.712159
0.712168
0.712176
0.712184
0.712193
0.712203
0.712212
0.712222
0.712233
0.712244
0.712255
0.712267
0.71228
0.712294
0.712309
0.712325
0.712342
0.71236
0.71238
0.712402
0.712426
0.712453
0.712481
0.712513
0.712547
0.712585
0.712625
0.712669
0.712715
0.712765
0.712817
0.712872
0.712929
0.712987
0.713046
0.713105
0.713163
0.713221
0.713276
0.713329
0.713379
0.713425
0.713467
0.713504
0.713537
0.713565
0.713589
0.713607
0.713622
0.713632
0.713638
0.713641
0.71364
0.713637
0.713632
0.713624
0.713615
0.713605
0.713594
0.713583
0.713571
0.713559
0.713548
0.711999
0.711999
0.711995
0.711996
0.711992
0.711993
0.71199
0.711991
0.711989
0.71199
0.711989
0.711989
0.711989
0.71199
0.71199
0.71199
0.711991
0.711992
0.711993
0.711994
0.711995
0.711996
0.711997
0.711999
0.712
0.712002
0.712004
0.712006
0.712008
0.712011
0.712013
0.712016
0.712019
0.712022
0.712025
0.712028
0.712031
0.712035
0.712039
0.712043
0.712047
0.712051
0.712056
0.71206
0.712065
0.71207
0.712075
0.71208
0.712086
0.712091
0.712097
0.712103
0.712109
0.712116
0.712122
0.712129
0.712136
0.712144
0.712151
0.712159
0.712167
0.712175
0.712184
0.712193
0.712202
0.712211
0.712221
0.712232
0.712243
0.712255
0.712267
0.71228
0.712294
0.712309
0.712325
0.712343
0.712362
0.712382
0.712405
0.712429
0.712456
0.712485
0.712517
0.712552
0.71259
0.71263
0.712674
0.71272
0.712769
0.71282
0.712874
0.712928
0.712984
0.71304
0.713096
0.713151
0.713205
0.713256
0.713305
0.71335
0.713391
0.713428
0.713462
0.71349
0.713514
0.713534
0.713549
0.713561
0.713569
0.713573
0.713575
0.713573
0.71357
0.713565
0.713558
0.71355
0.713541
0.713532
0.713522
0.713513
0.713503
0.713494
0.711967
0.711981
0.711976
0.711987
0.711983
0.711989
0.711987
0.71199
0.711989
0.71199
0.711989
0.71199
0.71199
0.711991
0.711991
0.711991
0.711992
0.711992
0.711993
0.711994
0.711995
0.711996
0.711997
0.711999
0.712
0.712002
0.712004
0.712006
0.712008
0.712011
0.712013
0.712016
0.712018
0.712021
0.712024
0.712028
0.712031
0.712035
0.712039
0.712043
0.712047
0.712051
0.712055
0.71206
0.712065
0.71207
0.712075
0.71208
0.712085
0.712091
0.712097
0.712103
0.712109
0.712116
0.712122
0.712129
0.712136
0.712144
0.712151
0.712159
0.712167
0.712175
0.712184
0.712193
0.712203
0.712213
0.712223
0.712234
0.712245
0.712257
0.71227
0.712284
0.712298
0.712314
0.712331
0.712349
0.712368
0.71239
0.712413
0.712438
0.712466
0.712496
0.712528
0.712564
0.712601
0.712642
0.712685
0.71273
0.712778
0.712828
0.712879
0.71293
0.712983
0.713035
0.713086
0.713136
0.713184
0.71323
0.713272
0.713312
0.713347
0.713379
0.713406
0.713429
0.713449
0.713464
0.713476
0.713485
0.71349
0.713493
0.713493
0.713491
0.713488
0.713484
0.713478
0.713472
0.713465
0.713458
0.713451
0.713444
0.713437
0.713431
0.711991
0.711998
0.711991
0.711992
0.711988
0.711989
0.711986
0.711987
0.711986
0.711987
0.711987
0.711988
0.711987
0.711988
0.711989
0.711989
0.71199
0.711991
0.711992
0.711993
0.711994
0.711995
0.711997
0.711998
0.712
0.712002
0.712004
0.712006
0.712008
0.71201
0.712013
0.712016
0.712019
0.712022
0.712025
0.712028
0.712031
0.712035
0.712039
0.712043
0.712047
0.712051
0.712056
0.71206
0.712065
0.71207
0.712075
0.712081
0.712086
0.712092
0.712098
0.712104
0.71211
0.712117
0.712124
0.712131
0.712138
0.712146
0.712153
0.712161
0.71217
0.712179
0.712188
0.712197
0.712207
0.712218
0.712229
0.71224
0.712252
0.712265
0.712279
0.712294
0.712309
0.712326
0.712344
0.712363
0.712384
0.712407
0.712432
0.712458
0.712487
0.712518
0.712551
0.712587
0.712624
0.712664
0.712707
0.71275
0.712796
0.712843
0.71289
0.712938
0.712985
0.713032
0.713077
0.713121
0.713162
0.713201
0.713236
0.713268
0.713297
0.713322
0.713343
0.713361
0.713375
0.713387
0.713395
0.7134
0.713404
0.713405
0.713405
0.713403
0.713401
0.713397
0.713394
0.713389
0.713385
0.713381
0.713376
0.713372
0.713369
0.713365
0.711889
0.71197
0.711965
0.711989
0.711984
0.711992
0.711989
0.711993
0.711991
0.711993
0.711991
0.711992
0.711992
0.711992
0.711992
0.711993
0.711993
0.711994
0.711994
0.711995
0.711996
0.711997
0.711998
0.712
0.712001
0.712003
0.712005
0.712007
0.712009
0.712011
0.712014
0.712017
0.712019
0.712022
0.712025
0.712029
0.712032
0.712036
0.71204
0.712044
0.712048
0.712053
0.712057
0.712062
0.712066
0.712072
0.712077
0.712083
0.712088
0.712094
0.712101
0.712107
0.712114
0.712121
0.712128
0.712135
0.712143
0.712151
0.712159
0.712168
0.712177
0.712187
0.712196
0.712207
0.712218
0.712229
0.712241
0.712254
0.712268
0.712282
0.712297
0.712313
0.712331
0.712349
0.712369
0.71239
0.712413
0.712437
0.712463
0.712491
0.712521
0.712552
0.712586
0.712621
0.712659
0.712697
0.712738
0.712779
0.712821
0.712864
0.712907
0.712949
0.71299
0.71303
0.713068
0.713105
0.713138
0.713169
0.713197
0.713221
0.713243
0.713261
0.713277
0.713289
0.713299
0.713307
0.713313
0.713316
0.713318
0.713319
0.713319
0.713319
0.713317
0.713316
0.713314
0.713312
0.713311
0.713309
0.713308
0.713307
0.713307
0.713307
0.712247
0.712205
0.712197
0.712156
0.712144
0.7121
0.712085
0.712034
0.712024
0.711951
0.711969
0.711995
0.711989
0.711994
0.711989
0.711992
0.711988
0.71199
0.711988
0.71199
0.711989
0.71199
0.71199
0.71199
0.711991
0.711991
0.711992
0.711993
0.711994
0.711995
0.711996
0.711997
0.711999
0.712
0.712002
0.712004
0.712006
0.712008
0.71201
0.712012
0.712015
0.712018
0.712021
0.712024
0.712027
0.712031
0.712034
0.712038
0.712042
0.712046
0.712051
0.712055
0.71206
0.712065
0.712071
)
;

boundaryField
{
    inlet
    {
        type            zeroGradient;
    }
    outlet
    {
        type            fixedValue;
        value           nonuniform 0();
    }
    walls
    {
        type            zeroGradient;
    }
    symwall
    {
        type            empty;
    }
    procBoundary0to1
    {
        type            processor;
        value           nonuniform List<scalar> 10(0.713627 0.713624 0.713618 0.713602 0.713576 0.713537 0.713485 0.713425 0.713363 0.713308);
    }
    procBoundary0to2
    {
        type            processor;
        value           nonuniform List<scalar> 
133
(
0.712076
0.712082
0.712088
0.712094
0.7121
0.712107
0.712114
0.712121
0.712129
0.712137
0.712145
0.712154
0.712163
0.712172
0.712182
0.712192
0.712203
0.712214
0.712226
0.712239
0.712252
0.712266
0.71228
0.712296
0.712312
0.712329
0.712347
0.712367
0.712387
0.712409
0.712432
0.712457
0.712483
0.71251
0.712539
0.71257
0.712602
0.712635
0.71267
0.712706
0.712742
0.71278
0.712817
0.712855
0.712892
0.712929
0.712965
0.712999
0.713031
0.713062
0.71309
0.713116
0.713139
0.71316
0.713177
0.713193
0.713206
0.713216
0.713225
0.713232
0.713237
0.713241
0.713244
0.713246
0.713247
0.713248
0.713249
0.71325
0.71325
0.713251
0.713252
0.713253
0.713254
0.713256
0.713257
0.71326
0.713262
0.712256
0.712208
0.712201
0.712158
0.712146
0.712102
0.712086
0.712035
0.71202
0.711952
0.711928
0.711979
0.711972
0.711994
0.711989
0.711998
0.711994
0.711997
0.711995
0.711996
0.711995
0.711995
0.711994
0.711995
0.711994
0.711995
0.711995
0.711996
0.711996
0.711997
0.711998
0.711999
0.712
0.712002
0.712003
0.712005
0.712007
0.712009
0.712012
0.712014
0.712017
0.71202
0.712023
0.712027
0.71203
0.712034
0.712038
0.712042
0.712046
0.712051
0.712056
0.712061
0.712066
0.712072
0.712076
0.712077
)
;
    }
}


// ************************************************************************* //
