/*--------------------------------*- C++ -*----------------------------------*\
| =========                 |                                                 |
| \\      /  F ield         | OpenFOAM: The Open Source CFD Toolbox           |
|  \\    /   O peration     | Version:  4.1                                   |
|   \\  /    A nd           | Web:      www.OpenFOAM.org                      |
|    \\/     M anipulation  |                                                 |
\*---------------------------------------------------------------------------*/
FoamFile
{
    version     2.0;
    format      ascii;
    class       volScalarField;
    location    "217";
    object      p;
}
// * * * * * * * * * * * * * * * * * * * * * * * * * * * * * * * * * * * * * //

dimensions      [1 -1 -2 0 0 0 0];

internalField   nonuniform List<scalar> 
3264
(
0.712557
0.712555
0.712554
0.712553
0.712553
0.712553
0.712554
0.712555
0.712556
0.712558
0.712561
0.712564
0.712567
0.712572
0.712577
0.712583
0.712591
0.712599
0.71261
0.712622
0.712637
0.712654
0.712675
0.712699
0.712728
0.712761
0.712799
0.712842
0.71289
0.712944
0.713004
0.713069
0.71314
0.713216
0.713296
0.713381
0.713469
0.71356
0.713652
0.713746
0.713839
0.713932
0.714022
0.71411
0.714193
0.714272
0.714346
0.714413
0.714474
0.714528
0.714575
0.714616
0.714649
0.714675
0.714696
0.714711
0.714721
0.714727
0.714729
0.714729
0.714726
0.714723
0.714718
0.714713
0.714708
0.714703
0.714699
0.714695
0.714692
0.71469
0.714689
0.714688
0.714687
0.714686
0.714686
0.714685
0.714685
0.714684
0.714683
0.714682
0.714682
0.714681
0.71468
0.71468
0.714679
0.71468
0.714681
0.714683
0.714687
0.714692
0.714699
0.714707
0.714718
0.714731
0.714747
0.714764
0.714783
0.714804
0.714827
0.714851
0.714875
0.714901
0.714926
0.714951
0.714976
0.714999
0.715022
0.715042
0.71506
0.715077
0.71509
0.715102
0.71511
0.715116
0.71512
0.715121
0.71512
0.715116
0.715111
0.715104
0.715096
0.715086
0.715076
0.715065
0.715053
0.715041
0.715029
0.715017
0.715006
0.714994
0.714983
0.714972
0.714961
0.714951
0.714941
0.714931
0.714921
0.714912
0.714902
0.714893
0.714883
0.714874
0.714865
0.714855
0.714845
0.714836
0.714826
0.714816
0.714806
0.714796
0.714786
0.714776
0.714766
0.714756
0.714746
0.714736
0.714725
0.714715
0.714705
0.714695
0.714685
0.714675
0.714665
0.714654
0.714644
0.714634
0.714624
0.714614
0.714604
0.714594
0.714584
0.714574
0.714564
0.714553
0.714543
0.714533
0.714523
0.714513
0.714503
0.714493
0.714483
0.714473
0.714463
0.714453
0.714442
0.714432
0.714422
0.714412
0.714402
0.714392
0.714382
0.714372
0.714362
0.714352
0.714342
0.714331
0.714321
0.714311
0.714301
0.714291
0.712558
0.712557
0.712556
0.712556
0.712556
0.712556
0.712556
0.712558
0.712559
0.712561
0.712564
0.712567
0.712571
0.712575
0.71258
0.712587
0.712594
0.712602
0.712613
0.712625
0.712639
0.712656
0.712676
0.7127
0.712727
0.712759
0.712796
0.712838
0.712886
0.712939
0.712998
0.713062
0.713132
0.713207
0.713287
0.713371
0.713459
0.713549
0.713641
0.713735
0.713828
0.71392
0.714011
0.714098
0.714182
0.714261
0.714335
0.714403
0.714464
0.714518
0.714566
0.714606
0.71464
0.714667
0.714688
0.714704
0.714715
0.714721
0.714724
0.714725
0.714724
0.714721
0.714717
0.714713
0.714709
0.714706
0.714702
0.7147
0.714697
0.714695
0.714694
0.714692
0.714691
0.71469
0.71469
0.714689
0.714688
0.714687
0.714687
0.714686
0.714684
0.714683
0.714682
0.714681
0.714681
0.714681
0.714681
0.714683
0.714686
0.714691
0.714697
0.714706
0.714716
0.714729
0.714744
0.71476
0.714779
0.7148
0.714823
0.714846
0.714871
0.714896
0.714922
0.714947
0.714972
0.714996
0.715018
0.715039
0.715058
0.715074
0.715089
0.7151
0.715109
0.715116
0.71512
0.715121
0.71512
0.715117
0.715112
0.715105
0.715096
0.715087
0.715076
0.715065
0.715054
0.715042
0.71503
0.715018
0.715006
0.714994
0.714983
0.714972
0.714961
0.714951
0.714941
0.714931
0.714921
0.714912
0.714902
0.714893
0.714883
0.714874
0.714864
0.714855
0.714845
0.714836
0.714826
0.714816
0.714806
0.714796
0.714786
0.714776
0.714766
0.714756
0.714746
0.714736
0.714725
0.714715
0.714705
0.714695
0.714685
0.714675
0.714665
0.714654
0.714644
0.714634
0.714624
0.714614
0.714604
0.714594
0.714584
0.714574
0.714564
0.714553
0.714543
0.714533
0.714523
0.714513
0.714503
0.714493
0.714483
0.714473
0.714463
0.714453
0.714442
0.714432
0.714422
0.714412
0.714402
0.714392
0.714382
0.714372
0.714362
0.714352
0.714342
0.714331
0.714321
0.714311
0.714301
0.714291
0.71256
0.712558
0.712557
0.712556
0.712556
0.712556
0.712556
0.712557
0.712559
0.712561
0.712563
0.712566
0.71257
0.712575
0.71258
0.712586
0.712593
0.712601
0.71261
0.712622
0.712636
0.712652
0.712671
0.712694
0.712721
0.712752
0.712788
0.71283
0.712877
0.712929
0.712988
0.713052
0.713122
0.713196
0.713276
0.71336
0.713447
0.713537
0.71363
0.713723
0.713816
0.713908
0.713998
0.714086
0.714169
0.714248
0.714321
0.714389
0.71445
0.714504
0.714551
0.714592
0.714625
0.714652
0.714673
0.714689
0.7147
0.714706
0.71471
0.714711
0.71471
0.714707
0.714704
0.714701
0.714698
0.714696
0.714694
0.714693
0.714692
0.714692
0.714692
0.714692
0.714692
0.714692
0.714692
0.714691
0.71469
0.714689
0.714688
0.714687
0.714686
0.714684
0.714683
0.714682
0.714681
0.714681
0.714681
0.714683
0.714686
0.71469
0.714696
0.714704
0.714714
0.714726
0.714741
0.714758
0.714777
0.714797
0.71482
0.714844
0.714868
0.714894
0.714919
0.714945
0.71497
0.714994
0.715016
0.715037
0.715056
0.715073
0.715087
0.715099
0.715109
0.715115
0.715119
0.715121
0.71512
0.715117
0.715112
0.715105
0.715097
0.715087
0.715077
0.715066
0.715054
0.715042
0.71503
0.715018
0.715006
0.714994
0.714983
0.714972
0.714961
0.714951
0.714941
0.714931
0.714921
0.714912
0.714902
0.714893
0.714883
0.714874
0.714865
0.714855
0.714845
0.714836
0.714826
0.714816
0.714806
0.714796
0.714786
0.714776
0.714766
0.714756
0.714746
0.714736
0.714725
0.714715
0.714705
0.714695
0.714685
0.714675
0.714665
0.714654
0.714644
0.714634
0.714624
0.714614
0.714604
0.714594
0.714584
0.714574
0.714564
0.714553
0.714543
0.714533
0.714523
0.714513
0.714503
0.714493
0.714483
0.714473
0.714463
0.714453
0.714442
0.714432
0.714422
0.714412
0.714402
0.714392
0.714382
0.714372
0.714362
0.714352
0.714342
0.714331
0.714321
0.714311
0.714301
0.714291
0.712554
0.712554
0.712553
0.712553
0.712553
0.712554
0.712554
0.712555
0.712557
0.712559
0.712562
0.712565
0.712569
0.712573
0.712578
0.712584
0.712591
0.712598
0.712607
0.712618
0.712631
0.712647
0.712665
0.712687
0.712713
0.712743
0.712779
0.71282
0.712866
0.712918
0.712976
0.713039
0.713108
0.713183
0.713262
0.713345
0.713432
0.713521
0.713613
0.713705
0.713797
0.713888
0.713977
0.714063
0.714145
0.714223
0.714295
0.71436
0.71442
0.714472
0.714518
0.714557
0.714589
0.714614
0.714634
0.714649
0.714659
0.714666
0.714669
0.714671
0.71467
0.714669
0.714668
0.714666
0.714665
0.714665
0.714666
0.714668
0.71467
0.714673
0.714676
0.714679
0.714683
0.714686
0.714688
0.71469
0.714692
0.714692
0.714692
0.714691
0.71469
0.714688
0.714686
0.714685
0.714684
0.714683
0.714683
0.714684
0.714687
0.71469
0.714696
0.714704
0.714713
0.714725
0.71474
0.714756
0.714775
0.714795
0.714817
0.714841
0.714865
0.714891
0.714916
0.714941
0.714966
0.71499
0.715012
0.715033
0.715052
0.715069
0.715084
0.715096
0.715105
0.715112
0.715116
0.715118
0.715117
0.715114
0.71511
0.715103
0.715095
0.715086
0.715076
0.715065
0.715053
0.715042
0.71503
0.715018
0.715006
0.714994
0.714983
0.714972
0.714962
0.714951
0.714941
0.714931
0.714922
0.714912
0.714903
0.714893
0.714884
0.714874
0.714865
0.714855
0.714845
0.714836
0.714826
0.714816
0.714806
0.714796
0.714786
0.714776
0.714766
0.714756
0.714746
0.714736
0.714725
0.714715
0.714705
0.714695
0.714685
0.714675
0.714665
0.714654
0.714644
0.714634
0.714624
0.714614
0.714604
0.714594
0.714584
0.714574
0.714564
0.714553
0.714543
0.714533
0.714523
0.714513
0.714503
0.714493
0.714483
0.714473
0.714463
0.714453
0.714442
0.714432
0.714422
0.714412
0.714402
0.714392
0.714382
0.714372
0.714362
0.714352
0.714342
0.714331
0.714321
0.714311
0.714301
0.714291
0.712552
0.712552
0.712549
0.71255
0.712548
0.712549
0.71255
0.712551
0.712553
0.712556
0.712559
0.712562
0.712566
0.712571
0.712576
0.712581
0.712588
0.712595
0.712604
0.712614
0.712627
0.712642
0.71266
0.712681
0.712707
0.712737
0.712772
0.712812
0.712858
0.71291
0.712967
0.713031
0.713099
0.713173
0.713251
0.713334
0.713419
0.713507
0.713597
0.713687
0.713778
0.713866
0.713953
0.714036
0.714115
0.714189
0.714257
0.714319
0.714375
0.714424
0.714465
0.714501
0.714529
0.714552
0.714569
0.714582
0.71459
0.714595
0.714598
0.714599
0.714599
0.714599
0.714599
0.714599
0.714601
0.714604
0.714608
0.714614
0.71462
0.714628
0.714637
0.714645
0.714654
0.714663
0.714671
0.714678
0.714683
0.714688
0.714692
0.714694
0.714695
0.714695
0.714695
0.714694
0.714692
0.714691
0.714691
0.714692
0.714693
0.714697
0.714702
0.714709
0.714718
0.71473
0.714744
0.71476
0.714778
0.714797
0.714819
0.714842
0.714866
0.71489
0.714915
0.71494
0.714964
0.714987
0.715009
0.715029
0.715047
0.715064
0.715078
0.71509
0.715099
0.715106
0.71511
0.715112
0.715111
0.715109
0.715105
0.715099
0.715091
0.715083
0.715073
0.715063
0.715052
0.71504
0.715029
0.715017
0.715006
0.714995
0.714984
0.714973
0.714962
0.714952
0.714942
0.714932
0.714922
0.714913
0.714903
0.714893
0.714884
0.714874
0.714865
0.714855
0.714846
0.714836
0.714826
0.714816
0.714806
0.714796
0.714786
0.714776
0.714766
0.714756
0.714746
0.714735
0.714725
0.714715
0.714705
0.714695
0.714685
0.714675
0.714665
0.714654
0.714644
0.714634
0.714624
0.714614
0.714604
0.714594
0.714584
0.714574
0.714564
0.714553
0.714543
0.714533
0.714523
0.714513
0.714503
0.714493
0.714483
0.714473
0.714463
0.714453
0.714442
0.714432
0.714422
0.714412
0.714402
0.714392
0.714382
0.714372
0.714362
0.714352
0.714342
0.714331
0.714321
0.714311
0.714301
0.714291
0.71252
0.712535
0.712535
0.712541
0.712542
0.712544
0.712546
0.712549
0.712551
0.712554
0.712557
0.712561
0.712565
0.71257
0.712575
0.712581
0.712587
0.712594
0.712603
0.712613
0.712625
0.71264
0.712658
0.71268
0.712705
0.712735
0.71277
0.712811
0.712857
0.712908
0.712965
0.713028
0.713096
0.713169
0.713246
0.713327
0.713411
0.713497
0.713584
0.713671
0.713758
0.713843
0.713925
0.714003
0.714077
0.714145
0.714208
0.714264
0.714314
0.714356
0.714392
0.714422
0.714445
0.714463
0.714476
0.714485
0.714491
0.714494
0.714496
0.714497
0.714497
0.714498
0.7145
0.714504
0.714508
0.714515
0.714524
0.714534
0.714546
0.71456
0.714574
0.71459
0.714605
0.714621
0.714636
0.714651
0.714664
0.714676
0.714686
0.714694
0.7147
0.714705
0.714708
0.714709
0.71471
0.71471
0.714711
0.714711
0.714713
0.714716
0.71472
0.714726
0.714734
0.714745
0.714757
0.714772
0.714789
0.714807
0.714828
0.714849
0.714871
0.714894
0.714918
0.714941
0.714963
0.714985
0.715006
0.715025
0.715042
0.715057
0.71507
0.715081
0.71509
0.715096
0.7151
0.715102
0.715102
0.7151
0.715096
0.715091
0.715085
0.715077
0.715068
0.715059
0.715049
0.715038
0.715028
0.715017
0.715006
0.714995
0.714984
0.714974
0.714963
0.714953
0.714943
0.714933
0.714923
0.714913
0.714904
0.714894
0.714885
0.714875
0.714865
0.714855
0.714846
0.714836
0.714826
0.714816
0.714806
0.714796
0.714786
0.714776
0.714766
0.714756
0.714746
0.714735
0.714725
0.714715
0.714705
0.714695
0.714685
0.714675
0.714665
0.714654
0.714644
0.714634
0.714624
0.714614
0.714604
0.714594
0.714584
0.714574
0.714564
0.714553
0.714543
0.714533
0.714523
0.714513
0.714503
0.714493
0.714483
0.714473
0.714463
0.714453
0.714442
0.714432
0.714422
0.714412
0.714402
0.714392
0.714382
0.714372
0.714362
0.714352
0.714342
0.714331
0.714321
0.714311
0.714301
0.714291
0.712519
0.712536
0.712534
0.712538
0.712538
0.712541
0.712543
0.712546
0.71255
0.712553
0.712557
0.712561
0.712566
0.71257
0.712576
0.712581
0.712588
0.712596
0.712605
0.712615
0.712628
0.712644
0.712662
0.712684
0.712711
0.712742
0.712778
0.712819
0.712865
0.712917
0.712975
0.713037
0.713105
0.713177
0.713253
0.713332
0.713414
0.713496
0.71358
0.713663
0.713745
0.713824
0.713899
0.713971
0.714037
0.714098
0.714152
0.7142
0.714241
0.714276
0.714304
0.714327
0.714344
0.714356
0.714364
0.71437
0.714373
0.714375
0.714376
0.714377
0.714378
0.714381
0.714386
0.714393
0.714401
0.714412
0.714425
0.714441
0.714459
0.714478
0.714499
0.714521
0.714544
0.714568
0.714591
0.714614
0.714635
0.714655
0.714674
0.71469
0.714704
0.714715
0.714724
0.714731
0.714737
0.71474
0.714743
0.714746
0.714748
0.714751
0.714755
0.71476
0.714767
0.714776
0.714786
0.714799
0.714814
0.71483
0.714848
0.714866
0.714886
0.714907
0.714927
0.714948
0.714968
0.714987
0.715005
0.715021
0.715037
0.71505
0.715062
0.715071
0.715079
0.715085
0.715088
0.71509
0.71509
0.715089
0.715086
0.715081
0.715076
0.715069
0.715062
0.715053
0.715045
0.715035
0.715026
0.715016
0.715005
0.714995
0.714985
0.714975
0.714965
0.714955
0.714944
0.714934
0.714925
0.714915
0.714905
0.714895
0.714885
0.714875
0.714866
0.714856
0.714846
0.714836
0.714826
0.714816
0.714806
0.714796
0.714786
0.714776
0.714766
0.714756
0.714745
0.714735
0.714725
0.714715
0.714705
0.714695
0.714685
0.714675
0.714665
0.714654
0.714644
0.714634
0.714624
0.714614
0.714604
0.714594
0.714584
0.714574
0.714564
0.714553
0.714543
0.714533
0.714523
0.714513
0.714503
0.714493
0.714483
0.714473
0.714463
0.714453
0.714442
0.714432
0.714422
0.714412
0.714402
0.714392
0.714382
0.714372
0.714362
0.714352
0.714342
0.714331
0.714321
0.714311
0.714301
0.714291
0.712363
0.712503
0.71252
0.712541
0.712545
0.712548
0.71255
0.712553
0.712555
0.712558
0.712562
0.712566
0.71257
0.712575
0.712581
0.712587
0.712595
0.712603
0.712613
0.712625
0.712639
0.712656
0.712677
0.712701
0.712729
0.712762
0.7128
0.712842
0.71289
0.712944
0.713002
0.713065
0.713132
0.713203
0.713277
0.713354
0.713432
0.713511
0.71359
0.713667
0.713742
0.713813
0.71388
0.713943
0.713999
0.71405
0.714094
0.714132
0.714164
0.714189
0.714209
0.714224
0.714234
0.714242
0.714246
0.714249
0.714251
0.714253
0.714255
0.714258
0.714262
0.714268
0.714276
0.714287
0.714299
0.714315
0.714333
0.714353
0.714376
0.714401
0.714427
0.714456
0.714485
0.714515
0.714546
0.714576
0.714606
0.714634
0.71466
0.714685
0.714707
0.714726
0.714743
0.714757
0.714769
0.714778
0.714786
0.714792
0.714797
0.714801
0.714806
0.714811
0.714816
0.714824
0.714832
0.714842
0.714853
0.714866
0.71488
0.714895
0.714911
0.714928
0.714944
0.714961
0.714977
0.714992
0.715006
0.71502
0.715032
0.715043
0.715052
0.71506
0.715066
0.715071
0.715074
0.715076
0.715076
0.715075
0.715073
0.71507
0.715066
0.71506
0.715054
0.715048
0.71504
0.715032
0.715023
0.715014
0.715005
0.714996
0.714986
0.714976
0.714966
0.714956
0.714946
0.714936
0.714926
0.714916
0.714906
0.714896
0.714886
0.714876
0.714866
0.714856
0.714846
0.714836
0.714826
0.714816
0.714806
0.714796
0.714786
0.714776
0.714766
0.714755
0.714745
0.714735
0.714725
0.714715
0.714705
0.714695
0.714685
0.714675
0.714665
0.714654
0.714644
0.714634
0.714624
0.714614
0.714604
0.714594
0.714584
0.714574
0.714564
0.714553
0.714543
0.714533
0.714523
0.714513
0.714503
0.714493
0.714483
0.714473
0.714463
0.714453
0.714442
0.714432
0.714422
0.714412
0.714402
0.714392
0.714382
0.714372
0.714362
0.714352
0.714342
0.714331
0.714321
0.714311
0.714301
0.714291
0.713098
0.713042
0.712979
0.712912
0.712839
0.712761
0.712673
0.712553
0.713105
0.713058
0.712995
0.712926
0.712853
0.712774
0.712683
0.712585
0.713109
0.71307
0.713012
0.712946
0.712877
0.712805
0.712734
0.712663
0.71312
0.713086
0.713033
0.712972
0.712908
0.712843
0.71278
0.712722
0.713133
0.713101
0.713052
0.712995
0.712936
0.712879
0.712826
0.712778
0.713147
0.713115
0.713067
0.713013
0.712959
0.712908
0.71286
0.712818
0.713163
0.713126
0.713076
0.713024
0.712973
0.712926
0.712882
0.712843
0.713171
0.713124
0.713074
0.713025
0.712977
0.712931
0.712889
0.712851
0.712489
0.712509
0.71253
0.712541
0.712547
0.712551
0.712554
0.712557
0.71256
0.712563
0.712568
0.712572
0.712578
0.712584
0.712591
0.712599
0.712608
0.712619
0.712632
0.712646
0.712663
0.712684
0.712707
0.712735
0.712766
0.712803
0.712843
0.712889
0.712939
0.712994
0.713054
0.713117
0.713184
0.713254
0.713326
0.7134
0.713473
0.713547
0.713618
0.713687
0.713753
0.713815
0.713871
0.713922
0.713967
0.714006
0.714039
0.714066
0.714088
0.714104
0.714117
0.714126
0.714133
0.714137
0.714141
0.714144
0.714147
0.714151
0.714156
0.714162
0.71417
0.714179
0.714191
0.714205
0.714221
0.71424
0.714261
0.714285
0.714312
0.714341
0.714372
0.714405
0.714439
0.714475
0.714511
0.714547
0.714583
0.714618
0.714652
0.714684
0.714713
0.71474
0.714764
0.714785
0.714804
0.714819
0.714832
0.714843
0.714851
0.714859
0.714865
0.714871
0.714876
0.714882
0.714889
0.714896
0.714904
0.714913
0.714923
0.714933
0.714944
0.714955
0.714967
0.714978
0.714989
0.715
0.71501
0.715019
0.715028
0.715035
0.715042
0.715048
0.715052
0.715056
0.715059
0.715061
0.715061
0.715061
0.71506
0.715058
0.715055
0.715052
0.715047
0.715042
0.715036
0.715029
0.715021
0.715014
0.715005
0.714996
0.714987
0.714978
0.714968
0.714958
0.714948
0.714938
0.714928
0.714918
0.714907
0.714897
0.714887
0.714877
0.714867
0.714856
0.714846
0.714836
0.714826
0.714816
0.714806
0.714796
0.714786
0.714775
0.714765
0.714755
0.714745
0.714735
0.714725
0.714715
0.714705
0.714695
0.714685
0.714675
0.714664
0.714654
0.714644
0.714634
0.714624
0.714614
0.714604
0.714594
0.714584
0.714574
0.714564
0.714553
0.714543
0.714533
0.714523
0.714513
0.714503
0.714493
0.714483
0.714473
0.714463
0.714453
0.714442
0.714432
0.714422
0.714412
0.714402
0.714392
0.714382
0.714372
0.714362
0.714352
0.714342
0.714331
0.714321
0.714311
0.714301
0.714291
0.712512
0.712521
0.712534
0.712547
0.712555
0.712561
0.712565
0.712569
0.712573
0.712577
0.712583
0.712589
0.712596
0.712604
0.712613
0.712624
0.712636
0.71265
0.712667
0.712685
0.712707
0.712732
0.71276
0.712793
0.712829
0.71287
0.712914
0.712964
0.713017
0.713074
0.713135
0.713198
0.713264
0.713332
0.7134
0.713469
0.713536
0.713601
0.713664
0.713722
0.713777
0.713826
0.71387
0.713908
0.713941
0.713968
0.71399
0.714007
0.714021
0.714032
0.71404
0.714048
0.714054
0.71406
0.714066
0.714072
0.714078
0.714085
0.714094
0.714103
0.714113
0.714126
0.71414
0.714156
0.714174
0.714195
0.714219
0.714245
0.714273
0.714305
0.714338
0.714374
0.714412
0.714451
0.714491
0.714531
0.714572
0.714612
0.714651
0.714688
0.714724
0.714757
0.714787
0.714814
0.714839
0.71486
0.714878
0.714893
0.714905
0.714916
0.714924
0.714931
0.714937
0.714942
0.714947
0.714952
0.714957
0.714962
0.714967
0.714973
0.714978
0.714984
0.714991
0.714997
0.715002
0.715008
0.715014
0.715019
0.715023
0.715028
0.715032
0.715036
0.715039
0.715042
0.715044
0.715046
0.715048
0.715048
0.715048
0.715048
0.715046
0.715044
0.715041
0.715037
0.715032
0.715027
0.71502
0.715013
0.715005
0.714997
0.714988
0.714979
0.71497
0.71496
0.71495
0.71494
0.71493
0.714919
0.714909
0.714898
0.714888
0.714878
0.714867
0.714857
0.714847
0.714836
0.714826
0.714816
0.714806
0.714796
0.714785
0.714775
0.714765
0.714755
0.714745
0.714735
0.714725
0.714715
0.714705
0.714695
0.714685
0.714675
0.714664
0.714654
0.714644
0.714634
0.714624
0.714614
0.714604
0.714594
0.714584
0.714574
0.714564
0.714553
0.714543
0.714533
0.714523
0.714513
0.714503
0.714493
0.714483
0.714473
0.714463
0.714453
0.714442
0.714432
0.714422
0.714412
0.714402
0.714392
0.714382
0.714372
0.714362
0.714352
0.714342
0.714331
0.714321
0.714311
0.714301
0.714291
0.71261
0.712586
0.71258
0.712581
0.712583
0.712585
0.712588
0.712591
0.712595
0.7126
0.712606
0.712614
0.712623
0.712634
0.712646
0.71266
0.712677
0.712696
0.712717
0.712741
0.712768
0.712799
0.712833
0.712871
0.712913
0.712959
0.713008
0.713061
0.713118
0.713176
0.713237
0.7133
0.713363
0.713426
0.713489
0.71355
0.713609
0.713664
0.713715
0.713761
0.713802
0.713838
0.713868
0.713894
0.713916
0.713934
0.713949
0.713962
0.713973
0.713983
0.713993
0.714002
0.71401
0.714019
0.714028
0.714037
0.714046
0.714055
0.714066
0.714076
0.714088
0.714102
0.714117
0.714134
0.714153
0.714174
0.714199
0.714226
0.714255
0.714288
0.714323
0.71436
0.7144
0.714441
0.714483
0.714526
0.71457
0.714613
0.714656
0.714698
0.714737
0.714775
0.714809
0.714841
0.71487
0.714895
0.714917
0.714936
0.714952
0.714965
0.714975
0.714983
0.71499
0.714994
0.714998
0.715001
0.715003
0.715004
0.715006
0.715007
0.715008
0.715009
0.715011
0.715012
0.715013
0.715014
0.715016
0.715017
0.715019
0.715021
0.715023
0.715025
0.715028
0.71503
0.715032
0.715035
0.715037
0.715038
0.715039
0.71504
0.715039
0.715038
0.715036
0.715033
0.71503
0.715025
0.715019
0.715013
0.715006
0.714998
0.71499
0.714981
0.714971
0.714962
0.714952
0.714941
0.714931
0.71492
0.71491
0.714899
0.714889
0.714878
0.714868
0.714857
0.714847
0.714836
0.714826
0.714816
0.714806
0.714795
0.714785
0.714775
0.714765
0.714755
0.714745
0.714735
0.714725
0.714715
0.714705
0.714695
0.714685
0.714675
0.714664
0.714654
0.714644
0.714634
0.714624
0.714614
0.714604
0.714594
0.714584
0.714574
0.714564
0.714553
0.714543
0.714533
0.714523
0.714513
0.714503
0.714493
0.714483
0.714473
0.714463
0.714453
0.714442
0.714432
0.714422
0.714412
0.714402
0.714392
0.714382
0.714372
0.714362
0.714352
0.714342
0.714331
0.714321
0.714311
0.714301
0.714291
0.712675
0.712648
0.712633
0.712627
0.712623
0.712622
0.712622
0.712624
0.712627
0.712632
0.712638
0.712647
0.712658
0.712671
0.712686
0.712704
0.712725
0.712748
0.712775
0.712804
0.712837
0.712874
0.712914
0.712957
0.713005
0.713055
0.713109
0.713165
0.713223
0.713282
0.713341
0.713401
0.713459
0.713516
0.713571
0.713622
0.713669
0.713712
0.71375
0.713784
0.713813
0.713839
0.713861
0.713881
0.713898
0.713912
0.713925
0.713936
0.713947
0.713959
0.71397
0.713982
0.713994
0.714005
0.714016
0.714026
0.714037
0.714047
0.714058
0.714069
0.714081
0.714095
0.71411
0.714127
0.714146
0.714168
0.714193
0.71422
0.71425
0.714283
0.714319
0.714357
0.714398
0.71444
0.714484
0.714529
0.714575
0.71462
0.714665
0.714709
0.714751
0.714791
0.714829
0.714864
0.714895
0.714924
0.714948
0.71497
0.714988
0.715002
0.715014
0.715022
0.715029
0.715033
0.715035
0.715036
0.715036
0.715035
0.715033
0.715031
0.715029
0.715026
0.715024
0.715021
0.715019
0.715018
0.715016
0.715015
0.715015
0.715015
0.715016
0.715018
0.715019
0.715022
0.715024
0.715026
0.715029
0.715031
0.715033
0.715034
0.715035
0.715034
0.715033
0.715031
0.715028
0.715024
0.715019
0.715013
0.715006
0.714999
0.714991
0.714982
0.714973
0.714963
0.714953
0.714943
0.714932
0.714921
0.714911
0.7149
0.714889
0.714879
0.714868
0.714857
0.714847
0.714836
0.714826
0.714816
0.714806
0.714795
0.714785
0.714775
0.714765
0.714755
0.714745
0.714735
0.714725
0.714715
0.714705
0.714695
0.714685
0.714675
0.714664
0.714654
0.714644
0.714634
0.714624
0.714614
0.714604
0.714594
0.714584
0.714574
0.714564
0.714553
0.714543
0.714533
0.714523
0.714513
0.714503
0.714493
0.714483
0.714473
0.714463
0.714453
0.714442
0.714432
0.714422
0.714412
0.714402
0.714392
0.714382
0.714372
0.714362
0.714352
0.714342
0.714331
0.714321
0.714311
0.714301
0.714291
0.712739
0.712711
0.712692
0.712679
0.71267
0.712664
0.712661
0.71266
0.712661
0.712665
0.712671
0.712681
0.712693
0.712708
0.712726
0.712747
0.712771
0.712798
0.712829
0.712863
0.712901
0.712943
0.712987
0.713035
0.713086
0.71314
0.713196
0.713252
0.713309
0.713366
0.713421
0.713475
0.713526
0.713575
0.713621
0.713664
0.713703
0.713738
0.713767
0.713793
0.713814
0.713832
0.713848
0.713863
0.713878
0.713894
0.71391
0.713925
0.713941
0.713955
0.713968
0.71398
0.713992
0.714003
0.714014
0.714024
0.714034
0.714045
0.714056
0.714067
0.71408
0.714094
0.714109
0.714127
0.714146
0.714169
0.714193
0.714221
0.714252
0.714285
0.714322
0.71436
0.714402
0.714445
0.714489
0.714535
0.714582
0.714628
0.714674
0.71472
0.714763
0.714805
0.714844
0.71488
0.714913
0.714943
0.714969
0.714991
0.71501
0.715026
0.715038
0.715046
0.715053
0.715056
0.715058
0.715058
0.715056
0.715053
0.715049
0.715045
0.71504
0.715035
0.715031
0.715026
0.715022
0.715019
0.715016
0.715014
0.715012
0.715012
0.715012
0.715013
0.715015
0.715017
0.715019
0.715022
0.715025
0.715027
0.715029
0.715031
0.715032
0.715032
0.715031
0.71503
0.715027
0.715023
0.715019
0.715013
0.715007
0.714999
0.714991
0.714983
0.714973
0.714964
0.714954
0.714943
0.714933
0.714922
0.714911
0.7149
0.71489
0.714879
0.714868
0.714857
0.714847
0.714836
0.714826
0.714816
0.714805
0.714795
0.714785
0.714775
0.714765
0.714755
0.714745
0.714735
0.714725
0.714715
0.714705
0.714695
0.714685
0.714675
0.714664
0.714654
0.714644
0.714634
0.714624
0.714614
0.714604
0.714594
0.714584
0.714574
0.714564
0.714553
0.714543
0.714533
0.714523
0.714513
0.714503
0.714493
0.714483
0.714473
0.714463
0.714453
0.714442
0.714432
0.714422
0.714412
0.714402
0.714392
0.714382
0.714372
0.714362
0.714352
0.714342
0.714331
0.714321
0.714311
0.714301
0.714291
0.712783
0.712755
0.712733
0.712717
0.712704
0.712694
0.712688
0.712684
0.712684
0.712687
0.712694
0.712704
0.712717
0.712733
0.712753
0.712777
0.712803
0.712834
0.712867
0.712904
0.712945
0.712989
0.713036
0.713086
0.713138
0.713192
0.713247
0.713303
0.713358
0.713412
0.713463
0.713512
0.713557
0.713599
0.713637
0.713671
0.713701
0.713727
0.71375
0.713772
0.713795
0.713818
0.71384
0.71386
0.713879
0.713896
0.713912
0.713926
0.713939
0.713953
0.713965
0.713977
0.713989
0.714001
0.714012
0.714023
0.714034
0.714045
0.714056
0.714068
0.714081
0.714096
0.714112
0.71413
0.71415
0.714173
0.714198
0.714226
0.714257
0.714291
0.714328
0.714367
0.714409
0.714452
0.714497
0.714543
0.71459
0.714637
0.714684
0.714729
0.714773
0.714815
0.714855
0.714891
0.714925
0.714955
0.714981
0.715004
0.715023
0.715038
0.71505
0.715059
0.715064
0.715067
0.715068
0.715067
0.715065
0.715061
0.715056
0.715051
0.715045
0.715039
0.715033
0.715028
0.715023
0.715019
0.715016
0.715013
0.715011
0.715011
0.715011
0.715011
0.715013
0.715015
0.715017
0.71502
0.715023
0.715025
0.715028
0.71503
0.715031
0.715031
0.715031
0.715029
0.715027
0.715023
0.715018
0.715013
0.715007
0.714999
0.714991
0.714983
0.714974
0.714964
0.714954
0.714943
0.714933
0.714922
0.714911
0.714901
0.71489
0.714879
0.714868
0.714858
0.714847
0.714837
0.714826
0.714816
0.714806
0.714795
0.714785
0.714775
0.714765
0.714755
0.714745
0.714735
0.714725
0.714715
0.714705
0.714695
0.714685
0.714674
0.714664
0.714654
0.714644
0.714634
0.714624
0.714614
0.714604
0.714594
0.714584
0.714574
0.714564
0.714553
0.714543
0.714533
0.714523
0.714513
0.714503
0.714493
0.714483
0.714473
0.714463
0.714453
0.714442
0.714432
0.714422
0.714412
0.714402
0.714392
0.714382
0.714372
0.714362
0.714352
0.714342
0.714331
0.714321
0.714311
0.714301
0.714291
0.71281
0.712781
0.712757
0.712738
0.712722
0.71271
0.712702
0.712697
0.712696
0.712699
0.712706
0.712716
0.71273
0.712747
0.712768
0.712793
0.712821
0.712853
0.712888
0.712926
0.712967
0.713012
0.713059
0.713109
0.713161
0.713214
0.713267
0.713319
0.713369
0.713416
0.713461
0.713503
0.713543
0.713582
0.713621
0.713657
0.713692
0.713723
0.713752
0.713777
0.7138
0.713821
0.71384
0.713858
0.713875
0.713892
0.713907
0.713923
0.713937
0.713951
0.713964
0.713977
0.713989
0.714
0.714012
0.714023
0.714034
0.714045
0.714056
0.714069
0.714082
0.714097
0.714114
0.714132
0.714153
0.714176
0.714202
0.714231
0.714262
0.714296
0.714333
0.714372
0.714414
0.714458
0.714503
0.714549
0.714596
0.714643
0.714689
0.714735
0.714778
0.71482
0.71486
0.714896
0.714929
0.714959
0.714985
0.715008
0.715027
0.715042
0.715054
0.715062
0.715068
0.71507
0.715071
0.71507
0.715067
0.715063
0.715058
0.715052
0.715046
0.71504
0.715034
0.715029
0.715024
0.715019
0.715016
0.715013
0.715011
0.715011
0.71501
0.715011
0.715013
0.715015
0.715017
0.71502
0.715022
0.715025
0.715027
0.715029
0.71503
0.71503
0.71503
0.715028
0.715026
0.715022
0.715018
0.715013
0.715006
0.714999
0.714991
0.714982
0.714973
0.714964
0.714954
0.714943
0.714933
0.714922
0.714911
0.714901
0.71489
0.714879
0.714868
0.714858
0.714847
0.714837
0.714826
0.714816
0.714806
0.714795
0.714785
0.714775
0.714765
0.714755
0.714745
0.714735
0.714725
0.714715
0.714705
0.714695
0.714685
0.714674
0.714664
0.714654
0.714644
0.714634
0.714624
0.714614
0.714604
0.714594
0.714584
0.714574
0.714564
0.714553
0.714543
0.714533
0.714523
0.714513
0.714503
0.714493
0.714483
0.714473
0.714463
0.714453
0.714442
0.714432
0.714422
0.714412
0.714402
0.714392
0.714382
0.714372
0.714362
0.714352
0.714342
0.714331
0.714321
0.714311
0.714301
0.714291
0.712816
0.712786
0.71276
0.712739
0.712721
0.712708
0.712698
0.712693
0.712692
0.712695
0.712702
0.712712
0.712726
0.712744
0.712765
0.712789
0.712817
0.712848
0.712882
0.712919
0.71296
0.713003
0.713049
0.713097
0.713146
0.713198
0.71325
0.713302
0.713353
0.713403
0.71345
0.713496
0.713539
0.713581
0.71362
0.713656
0.713688
0.713718
0.713744
0.713769
0.713793
0.713815
0.713836
0.713856
0.713874
0.713891
0.713907
0.713922
0.713936
0.71395
0.713963
0.713975
0.713987
0.713999
0.71401
0.714021
0.714032
0.714044
0.714056
0.714069
0.714082
0.714098
0.714115
0.714134
0.714155
0.714179
0.714205
0.714234
0.714266
0.714301
0.714338
0.714378
0.71442
0.714464
0.714509
0.714555
0.714602
0.714649
0.714696
0.714741
0.714785
0.714826
0.714865
0.714902
0.714935
0.714964
0.71499
0.715012
0.71503
0.715045
0.715056
0.715064
0.715069
0.715071
0.715072
0.71507
0.715067
0.715062
0.715057
0.715052
0.715045
0.715039
0.715034
0.715028
0.715023
0.715019
0.715016
0.715013
0.715012
0.715011
0.715011
0.715012
0.715013
0.715015
0.715018
0.71502
0.715023
0.715026
0.715028
0.715029
0.715031
0.715031
0.71503
0.715029
0.715026
0.715022
0.715018
0.715012
0.715006
0.714999
0.714991
0.714982
0.714973
0.714964
0.714954
0.714943
0.714933
0.714922
0.714911
0.714901
0.71489
0.714879
0.714868
0.714858
0.714847
0.714837
0.714826
0.714816
0.714806
0.714795
0.714785
0.714775
0.714765
0.714755
0.714745
0.714735
0.714725
0.714715
0.714705
0.714695
0.714685
0.714674
0.714664
0.714654
0.714644
0.714634
0.714624
0.714614
0.714604
0.714594
0.714584
0.714574
0.714564
0.714553
0.714543
0.714533
0.714523
0.714513
0.714503
0.714493
0.714483
0.714473
0.714463
0.714453
0.714442
0.714432
0.714422
0.714412
0.714402
0.714392
0.714382
0.714372
0.714362
0.714352
0.714342
0.714331
0.714321
0.714311
0.714301
0.714291
)
;
