/*--------------------------------*- C++ -*----------------------------------*\
| =========                 |                                                 |
| \\      /  F ield         | OpenFOAM: The Open Source CFD Toolbox           |
|  \\    /   O peration     | Version:  4.1                                   |
|   \\  /    A nd           | Web:      www.OpenFOAM.org                      |
|    \\/     M anipulation  |                                                 |
\*---------------------------------------------------------------------------*/
FoamFile
{
    version     2.0;
    format      ascii;
    class       volVectorField;
    location    "217";
    object      U;
}
// * * * * * * * * * * * * * * * * * * * * * * * * * * * * * * * * * * * * * //

dimensions      [0 1 -1 0 0 0 0];

internalField   nonuniform List<vector> 
3264
(
(1.41216e-07 -2.55833e-06 0)
(-0.000110405 2.51916e-05 0)
(-0.000339419 4.21918e-05 0)
(-0.000602407 4.40648e-05 0)
(-0.000883659 4.51647e-05 0)
(-0.00117365 4.36107e-05 0)
(-0.00146694 4.39625e-05 0)
(-0.00176664 4.3919e-05 0)
(-0.0020702 4.48486e-05 0)
(-0.00238127 4.59997e-05 0)
(-0.00270049 4.79939e-05 0)
(-0.00303167 5.08072e-05 0)
(-0.0033775 5.48396e-05 0)
(-0.0037418 6.02919e-05 0)
(-0.00412777 6.74555e-05 0)
(-0.00453854 7.6515e-05 0)
(-0.00497634 8.75964e-05 0)
(-0.0054425 0.000100685 0)
(-0.0059369 0.000115607 0)
(-0.00645787 0.000131995 0)
(-0.00700188 0.000149281 0)
(-0.00756348 0.000166711 0)
(-0.00813528 0.000183384 0)
(-0.00870807 0.000198314 0)
(-0.00927108 0.000210508 0)
(-0.0098123 0.000219043 0)
(-0.0103189 0.000223133 0)
(-0.0107779 0.000222184 0)
(-0.0111761 0.000215818 0)
(-0.0115013 0.000203886 0)
(-0.0117419 0.000186455 0)
(-0.0118877 0.000163789 0)
(-0.0119302 0.000136317 0)
(-0.0118624 0.000104605 0)
(-0.0116792 6.93254e-05 0)
(-0.0113772 3.12283e-05 0)
(-0.0109553 -8.87791e-06 0)
(-0.010414 -5.01481e-05 0)
(-0.00975576 -9.1716e-05 0)
(-0.00898495 -0.000132708 0)
(-0.00810768 -0.000172256 0)
(-0.00713179 -0.000209508 0)
(-0.00606678 -0.000243641 0)
(-0.00492374 -0.000273877 0)
(-0.00371518 -0.000299492 0)
(-0.002455 -0.000319839 0)
(-0.00115827 -0.000334364 0)
(0.000158897 -0.000342632 0)
(0.0014796 -0.000344343 0)
(0.00278634 -0.000339364 0)
(0.00406139 -0.000327743 0)
(0.00528704 -0.000309736 0)
(0.00644603 -0.000285816 0)
(0.00752195 -0.000256686 0)
(0.00849965 -0.000223274 0)
(0.00936569 -0.000186722 0)
(0.0101088 -0.000148358 0)
(0.0107204 -0.000109652 0)
(0.0111948 -7.21474e-05 0)
(0.0115297 -3.73705e-05 0)
(0.0117262 -6.71257e-06 0)
(0.0117894 1.87123e-05 0)
(0.0117275 3.82187e-05 0)
(0.0115523 5.16813e-05 0)
(0.0112782 5.96038e-05 0)
(0.0109218 6.30724e-05 0)
(0.010501 6.35613e-05 0)
(0.0100341 6.26014e-05 0)
(0.00953909 6.13946e-05 0)
(0.00903256 6.0517e-05 0)
(0.00852903 5.98484e-05 0)
(0.0080401 5.87753e-05 0)
(0.00757398 5.65781e-05 0)
(0.00713564 5.28258e-05 0)
(0.00672735 4.7624e-05 0)
(0.0063496 4.16487e-05 0)
(0.00600169 3.59705e-05 0)
(0.00568201 3.17248e-05 0)
(0.00538802 2.97407e-05 0)
(0.00511644 3.02839e-05 0)
(0.00486355 3.30348e-05 0)
(0.00462578 3.72898e-05 0)
(0.00440019 4.22501e-05 0)
(0.00418486 4.72416e-05 0)
(0.00397906 5.17902e-05 0)
(0.00378336 5.55808e-05 0)
(0.00359962 5.83745e-05 0)
(0.00343079 5.99473e-05 0)
(0.00328075 6.00707e-05 0)
(0.00315398 5.85287e-05 0)
(0.00305521 5.51505e-05 0)
(0.00298913 4.98412e-05 0)
(0.00296009 4.26013e-05 0)
(0.00297184 3.35329e-05 0)
(0.00302737 2.28337e-05 0)
(0.00312872 1.0782e-05 0)
(0.0032769 -2.28142e-06 0)
(0.00347183 -1.59737e-05 0)
(0.00371229 -2.98891e-05 0)
(0.00399595 -4.36174e-05 0)
(0.00431943 -5.67591e-05 0)
(0.00467833 -6.89402e-05 0)
(0.00506736 -7.98246e-05 0)
(0.00548042 -8.91254e-05 0)
(0.0059108 -9.66138e-05 0)
(0.00635133 -0.000102127 0)
(0.00679458 -0.000105571 0)
(0.00723307 -0.000106924 0)
(0.00765954 -0.000106236 0)
(0.00806719 -0.000103619 0)
(0.00844989 -9.92429e-05 0)
(0.00880245 -9.33235e-05 0)
(0.00912075 -8.61143e-05 0)
(0.00940188 -7.78946e-05 0)
(0.00964422 -6.89591e-05 0)
(0.00984739 -5.96078e-05 0)
(0.0100122 -5.01349e-05 0)
(0.0101406 -4.0818e-05 0)
(0.0102352 -3.19074e-05 0)
(0.0102996 -2.36172e-05 0)
(0.0103375 -1.61183e-05 0)
(0.0103532 -9.53514e-06 0)
(0.0103508 -3.94504e-06 0)
(0.0103344 6.19585e-07 0)
(0.010308 4.16733e-06 0)
(0.0102749 6.74282e-06 0)
(0.0102384 8.42102e-06 0)
(0.010201 9.30092e-06 0)
(0.0101648 9.49887e-06 0)
(0.0101314 9.14155e-06 0)
(0.010102 8.359e-06 0)
(0.0100772 7.27805e-06 0)
(0.0100574 6.01662e-06 0)
(0.0100425 4.67918e-06 0)
(0.0100323 3.35354e-06 0)
(0.0100264 2.10922e-06 0)
(0.0100242 9.97008e-07 0)
(0.010025 4.98231e-08 0)
(0.0100282 -7.15554e-07 0)
(0.0100331 -1.29611e-06 0)
(0.0100392 -1.69985e-06 0)
(0.0100459 -1.94298e-06 0)
(0.0100529 -2.04714e-06 0)
(0.0100597 -2.03695e-06 0)
(0.010066 -1.93786e-06 0)
(0.0100718 -1.7745e-06 0)
(0.0100768 -1.56938e-06 0)
(0.0100811 -1.34213e-06 0)
(0.0100846 -1.10898e-06 0)
(0.0100873 -8.82667e-07 0)
(0.0100894 -6.7251e-07 0)
(0.0100909 -4.84737e-07 0)
(0.0100919 -3.22874e-07 0)
(0.0100925 -1.88222e-07 0)
(0.0100927 -8.03409e-08 0)
(0.0100927 2.48097e-09 0)
(0.0100925 6.28078e-08 0)
(0.0100922 1.03692e-07 0)
(0.0100918 1.28377e-07 0)
(0.0100913 1.40072e-07 0)
(0.0100909 1.41782e-07 0)
(0.0100905 1.36203e-07 0)
(0.0100901 1.25659e-07 0)
(0.0100897 1.1208e-07 0)
(0.0100894 9.70058e-08 0)
(0.0100892 8.16168e-08 0)
(0.010089 6.67697e-08 0)
(0.0100888 5.3046e-08 0)
(0.0100887 4.07997e-08 0)
(0.0100886 3.02052e-08 0)
(0.0100885 2.13003e-08 0)
(0.0100885 1.40249e-08 0)
(0.0100884 8.25306e-09 0)
(0.0100884 3.81948e-09 0)
(0.0100884 5.4019e-10 0)
(0.0100884 -1.77213e-09 0)
(0.0100884 -3.29719e-09 0)
(0.0100885 -4.19999e-09 0)
(0.0100885 -4.62657e-09 0)
(0.0100885 -4.70225e-09 0)
(0.0100885 -4.53144e-09 0)
(0.0100885 -4.19869e-09 0)
(0.0100885 -3.77046e-09 0)
(0.0100885 -3.29733e-09 0)
(0.0100885 -2.81637e-09 0)
(0.0100885 -2.35343e-09 0)
(0.0100886 -1.92539e-09 0)
(0.0100886 -1.54213e-09 0)
(0.0100886 -1.20821e-09 0)
(0.0100886 -9.24352e-10 0)
(0.0100886 -6.88627e-10 0)
(0.0100886 -4.97401e-10 0)
(0.0100886 -3.4603e-10 0)
(0.0100886 -2.29503e-10 0)
(0.0100886 -1.42531e-10 0)
(0.0100886 -8.05062e-11 0)
(0.0100886 -3.7982e-11 0)
(0.0100886 -1.15141e-11 0)
(0.0100886 2.57147e-12 0)
(0.0100886 2.06274e-11 0)
(-7.67032e-05 0.000112489 0)
(-0.000540157 0.00033387 0)
(-0.00122643 0.000471218 0)
(-0.00197167 0.000522705 0)
(-0.00273836 0.000553427 0)
(-0.00351284 0.000565821 0)
(-0.00428261 0.000578533 0)
(-0.00505364 0.000588256 0)
(-0.00582202 0.000600625 0)
(-0.00659405 0.000615505 0)
(-0.00737097 0.000635256 0)
(-0.00815776 0.000660336 0)
(-0.00895673 0.00069136 0)
(-0.0097703 0.000728019 0)
(-0.0105985 0.000769537 0)
(-0.0114397 0.000814444 0)
(-0.0122895 0.000860698 0)
(-0.0131411 0.000905714 0)
(-0.0139849 0.000946488 0)
(-0.0148092 0.000979753 0)
(-0.0156 0.00100217 0)
(-0.0163419 0.00101052 0)
(-0.0170183 0.00100195 0)
(-0.0176123 0.000974086 0)
(-0.0181075 0.000925236 0)
(-0.0184878 0.000854414 0)
(-0.0187386 0.000761389 0)
(-0.0188467 0.000646649 0)
(-0.0188009 0.000511326 0)
(-0.018592 0.000357112 0)
(-0.0182125 0.000186142 0)
(-0.0176576 9.0156e-07 0)
(-0.0169241 -0.000195876 0)
(-0.0160112 -0.000401286 0)
(-0.01492 -0.000612314 0)
(-0.0136535 -0.00082589 0)
(-0.0122168 -0.00103893 0)
(-0.0106165 -0.00124834 0)
(-0.00886118 -0.00145109 0)
(-0.00696121 -0.00164416 0)
(-0.00492846 -0.00182463 0)
(-0.0027765 -0.00198965 0)
(-0.000520413 -0.00213645 0)
(0.00182319 -0.00226243 0)
(0.00423629 -0.00236514 0)
(0.00669951 -0.00244231 0)
(0.00919226 -0.00249198 0)
(0.0116929 -0.00251246 0)
(0.0141787 -0.00250247 0)
(0.0166264 -0.00246116 0)
(0.0190123 -0.00238823 0)
(0.0213123 -0.00228393 0)
(0.0235026 -0.0021492 0)
(0.02556 -0.00198563 0)
(0.0274619 -0.00179557 0)
(0.029187 -0.00158207 0)
(0.0307158 -0.00134893 0)
(0.0320303 -0.00110063 0)
(0.0331155 -0.000842303 0)
(0.0339585 -0.000579622 0)
(0.0345499 -0.000318721 0)
(0.0348839 -6.60312e-05 0)
(0.0349585 0.000171912 0)
(0.0347766 0.000388722 0)
(0.0343461 0.000578477 0)
(0.0336807 0.000736094 0)
(0.0328004 0.000857778 0)
(0.0317316 0.000941524 0)
(0.0305065 0.000987631 0)
(0.0291621 0.000999073 0)
(0.0277383 0.000981501 0)
(0.0262755 0.000942596 0)
(0.0248123 0.000890725 0)
(0.0233831 0.000833255 0)
(0.0220162 0.000775236 0)
(0.020733 0.00071912 0)
(0.0195469 0.000665566 0)
(0.0184637 0.000614686 0)
(0.0174826 0.000566892 0)
(0.0165987 0.000522986 0)
(0.0158053 0.000483735 0)
(0.0150953 0.000449395 0)
(0.0144629 0.000419443 0)
(0.0139034 0.000392539 0)
(0.0134139 0.000366692 0)
(0.012993 0.000339543 0)
(0.0126408 0.000308732 0)
(0.012359 0.000272232 0)
(0.0121502 0.000228587 0)
(0.0120177 0.000177014 0)
(0.011965 0.000117389 0)
(0.0119955 5.01676e-05 0)
(0.0121117 -2.37246e-05 0)
(0.0123153 -0.000102996 0)
(0.0126068 -0.000186086 0)
(0.0129853 -0.000271242 0)
(0.0134488 -0.000356596 0)
(0.0139935 -0.000440217 0)
(0.0146145 -0.000520171 0)
(0.0153053 -0.000594566 0)
(0.0160584 -0.000661595 0)
(0.0168648 -0.000719588 0)
(0.0177146 -0.000767049 0)
(0.0185968 -0.000802709 0)
(0.0194995 -0.000825576 0)
(0.0204103 -0.000834988 0)
(0.0213162 -0.000830665 0)
(0.0222041 -0.000812749 0)
(0.0230612 -0.000781842 0)
(0.023875 -0.000739006 0)
(0.0246343 -0.00068575 0)
(0.0253289 -0.00062397 0)
(0.0259508 -0.000555859 0)
(0.0264941 -0.00048379 0)
(0.0269554 -0.000410177 0)
(0.0273342 -0.000337338 0)
(0.0276323 -0.000267367 0)
(0.0278543 -0.000202041 0)
(0.0280067 -0.00014276 0)
(0.0280977 -9.05172e-05 0)
(0.0281365 -4.59095e-05 0)
(0.0281329 -9.16366e-06 0)
(0.0280965 1.98203e-05 0)
(0.0280364 4.14173e-05 0)
(0.027961 5.62215e-05 0)
(0.0278775 6.49902e-05 0)
(0.027792 6.85881e-05 0)
(0.0277092 6.79352e-05 0)
(0.0276328 6.39596e-05 0)
(0.0275652 5.75566e-05 0)
(0.027508 4.95555e-05 0)
(0.0274617 4.06936e-05 0)
(0.0274263 3.15997e-05 0)
(0.0274013 2.27842e-05 0)
(0.0273855 1.46373e-05 0)
(0.0273778 7.43331e-06 0)
(0.0273768 1.33948e-06 0)
(0.0273811 -3.57051e-06 0)
(0.0273893 -7.30108e-06 0)
(0.0274002 -9.91802e-06 0)
(0.0274127 -1.15317e-05 0)
(0.0274258 -1.22814e-05 0)
(0.0274389 -1.23209e-05 0)
(0.0274512 -1.1807e-05 0)
(0.0274626 -1.08901e-05 0)
(0.0274726 -9.70693e-06 0)
(0.0274811 -8.37646e-06 0)
(0.0274882 -6.99725e-06 0)
(0.0274938 -5.64687e-06 0)
(0.0274982 -4.38271e-06 0)
(0.0275014 -3.24366e-06 0)
(0.0275036 -2.25259e-06 0)
(0.0275049 -1.41908e-06 0)
(0.0275056 -7.42237e-07 0)
(0.0275057 -2.13451e-07 0)
(0.0275055 1.81166e-07 0)
(0.027505 4.58641e-07 0)
(0.0275043 6.37395e-07 0)
(0.0275036 7.3588e-07 0)
(0.0275028 7.71584e-07 0)
(0.0275021 7.60358e-07 0)
(0.0275014 7.16021e-07 0)
(0.0275007 6.50188e-07 0)
(0.0275002 5.72275e-07 0)
(0.0274997 4.89617e-07 0)
(0.0274993 4.07676e-07 0)
(0.027499 3.30291e-07 0)
(0.0274987 2.59945e-07 0)
(0.0274985 1.98031e-07 0)
(0.0274984 1.451e-07 0)
(0.0274983 1.0108e-07 0)
(0.0274983 6.54671e-08 0)
(0.0274982 3.74815e-08 0)
(0.0274982 1.61911e-08 0)
(0.0274982 6.07145e-10 0)
(0.0274982 -1.02467e-08 0)
(0.0274982 -1.7287e-08 0)
(0.0274983 -2.13413e-08 0)
(0.0274983 -2.31324e-08 0)
(0.0274983 -2.3273e-08 0)
(0.0274983 -2.22685e-08 0)
(0.0274983 -2.05243e-08 0)
(0.0274984 -1.8356e-08 0)
(0.0274984 -1.60017e-08 0)
(0.0274984 -1.36338e-08 0)
(0.0274984 -1.13714e-08 0)
(0.0274984 -9.29058e-09 0)
(0.0274984 -7.43476e-09 0)
(0.0274984 -5.82249e-09 0)
(0.0274984 -4.45465e-09 0)
(0.0274984 -3.32001e-09 0)
(0.0274984 -2.39973e-09 0)
(0.0274984 -1.67066e-09 0)
(0.0274984 -1.10812e-09 0)
(0.0274984 -6.86917e-10 0)
(0.0274984 -3.8446e-10 0)
(0.0274984 -1.76175e-10 0)
(0.0274984 -4.70232e-11 0)
(0.0274984 2.60181e-11 0)
(0.0274984 7.59156e-11 0)
(-0.000175095 0.000598416 0)
(-0.00101876 0.00117299 0)
(-0.00212437 0.00145865 0)
(-0.00325971 0.00152738 0)
(-0.00436681 0.00155684 0)
(-0.00543718 0.00155095 0)
(-0.00645439 0.0015489 0)
(-0.00743018 0.00154453 0)
(-0.00836161 0.00154718 0)
(-0.00925729 0.00155581 0)
(-0.0101184 0.00157266 0)
(-0.0109486 0.00159681 0)
(-0.0117478 0.00162707 0)
(-0.0125148 0.00166083 0)
(-0.0132455 0.00169465 0)
(-0.0139339 0.00172432 0)
(-0.0145718 0.0017451 0)
(-0.0151492 0.00175202 0)
(-0.0156545 0.00174016 0)
(-0.0160753 0.00170494 0)
(-0.0163985 0.00164235 0)
(-0.0166113 0.00154918 0)
(-0.016701 0.00142315 0)
(-0.0166563 0.00126298 0)
(-0.0164666 0.00106841 0)
(-0.016123 0.000840133 0)
(-0.0156181 0.000579731 0)
(-0.014946 0.000289536 0)
(-0.0141024 -2.74874e-05 0)
(-0.0130848 -0.000367873 0)
(-0.0118921 -0.000727774 0)
(-0.0105246 -0.00110307 0)
(-0.00898424 -0.00148943 0)
(-0.00727422 -0.00188242 0)
(-0.00539918 -0.0022775 0)
(-0.00336512 -0.0026701 0)
(-0.00117939 -0.00305563 0)
(0.00114932 -0.00342947 0)
(0.00361095 -0.00378705 0)
(0.00619411 -0.00412381 0)
(0.00888603 -0.00443524 0)
(0.0116726 -0.00471691 0)
(0.0145384 -0.00496448 0)
(0.0174666 -0.00517378 0)
(0.0204391 -0.00534081 0)
(0.0234369 -0.00546189 0)
(0.0264395 -0.00553365 0)
(0.0294257 -0.00555324 0)
(0.0323734 -0.00551834 0)
(0.0352601 -0.00542732 0)
(0.0380629 -0.00527939 0)
(0.0407591 -0.00507461 0)
(0.0433262 -0.00481405 0)
(0.0457425 -0.00449984 0)
(0.0479873 -0.00413514 0)
(0.0500412 -0.00372418 0)
(0.0518863 -0.00327219 0)
(0.0535064 -0.00278532 0)
(0.054887 -0.00227055 0)
(0.0560156 -0.00173559 0)
(0.0568813 -0.00118875 0)
(0.0574753 -0.000638888 0)
(0.0577905 -9.52969e-05 0)
(0.0578217 0.000432344 0)
(0.0575659 0.000934029 0)
(0.0570226 0.0013995 0)
(0.0561945 0.00181841 0)
(0.0550881 0.00218062 0)
(0.0537154 0.00247672 0)
(0.0520944 0.00269892 0)
(0.0502511 0.00284206 0)
(0.04822 0.00290475 0)
(0.0460446 0.00289012 0)
(0.0437761 0.00280622 0)
(0.0414709 0.00266568 0)
(0.039186 0.00248475 0)
(0.0369747 0.00228136 0)
(0.0348823 0.00207253 0)
(0.0329426 0.00187153 0)
(0.0311779 0.00168615 0)
(0.0295988 0.00151856 0)
(0.0282065 0.00136684 0)
(0.0269947 0.00122701 0)
(0.0259532 0.0010947 0)
(0.0250706 0.000965912 0)
(0.0243361 0.000837203 0)
(0.023741 0.000705578 0)
(0.0232785 0.000568522 0)
(0.0229436 0.000424119 0)
(0.0227329 0.000271206 0)
(0.0226432 0.000109461 0)
(0.0226718 -6.05793e-05 0)
(0.0228159 -0.000237601 0)
(0.0230724 -0.000419628 0)
(0.0234373 -0.000604166 0)
(0.0239063 -0.000788357 0)
(0.024474 -0.000969104 0)
(0.0251344 -0.0011432 0)
(0.0258803 -0.0013074 0)
(0.0267038 -0.00145853 0)
(0.0275962 -0.00159353 0)
(0.0285478 -0.00170951 0)
(0.0295482 -0.00180383 0)
(0.0305862 -0.00187416 0)
(0.0316501 -0.00191853 0)
(0.0327273 -0.00193546 0)
(0.033805 -0.00192402 0)
(0.0348699 -0.001884 0)
(0.0359085 -0.00181592 0)
(0.0369076 -0.00172123 0)
(0.0378541 -0.00160231 0)
(0.0387357 -0.00146249 0)
(0.0395415 -0.00130604 0)
(0.0402618 -0.00113794 0)
(0.0408895 -0.00096374 0)
(0.0414199 -0.000789165 0)
(0.0418513 -0.000619798 0)
(0.0421853 -0.000460691 0)
(0.0424266 -0.000316047 0)
(0.0425828 -0.000188989 0)
(0.0426639 -8.14502e-05 0)
(0.0426817 5.81101e-06 0)
(0.0426487 7.30932e-05 0)
(0.0425778 0.000121562 0)
(0.0424808 0.000153026 0)
(0.0423688 0.000169719 0)
(0.042251 0.000174097 0)
(0.042135 0.000168669 0)
(0.0420266 0.00015587 0)
(0.0419296 0.000137962 0)
(0.0418467 0.000116961 0)
(0.041779 9.4599e-05 0)
(0.0417264 7.23007e-05 0)
(0.0416884 5.11776e-05 0)
(0.0416635 3.20405e-05 0)
(0.0416501 1.54224e-05 0)
(0.0416462 1.61008e-06 0)
(0.0416498 -9.31792e-06 0)
(0.0416591 -1.74506e-05 0)
(0.0416722 -2.3003e-05 0)
(0.0416877 -2.62773e-05 0)
(0.0417043 -2.76264e-05 0)
(0.0417209 -2.74236e-05 0)
(0.0417367 -2.60374e-05 0)
(0.0417512 -2.3812e-05 0)
(0.041764 -2.10542e-05 0)
(0.041775 -1.80253e-05 0)
(0.041784 -1.49376e-05 0)
(0.0417912 -1.19544e-05 0)
(0.0417968 -9.19329e-06 0)
(0.0418008 -6.73082e-06 0)
(0.0418035 -4.6089e-06 0)
(0.0418052 -2.84117e-06 0)
(0.041806 -1.4196e-06 0)
(0.0418062 -3.20592e-07 0)
(0.0418058 4.89668e-07 0)
(0.0418052 1.05063e-06 0)
(0.0418044 1.40375e-06 0)
(0.0418034 1.58971e-06 0)
(0.0418024 1.64642e-06 0)
(0.0418015 1.6078e-06 0)
(0.0418006 1.50304e-06 0)
(0.0417999 1.3564e-06 0)
(0.0417992 1.1873e-06 0)
(0.0417986 1.01069e-06 0)
(0.0417982 8.37539e-07 0)
(0.0417978 6.75428e-07 0)
(0.0417975 5.29121e-07 0)
(0.0417973 4.01159e-07 0)
(0.0417971 2.92383e-07 0)
(0.041797 2.024e-07 0)
(0.0417969 1.29977e-07 0)
(0.0417969 7.33574e-08 0)
(0.0417969 3.05148e-08 0)
(0.0417969 -6.5755e-10 0)
(0.0417969 -2.22121e-08 0)
(0.0417969 -3.60556e-08 0)
(0.041797 -4.3895e-08 0)
(0.041797 -4.72101e-08 0)
(0.041797 -4.72476e-08 0)
(0.041797 -4.50293e-08 0)
(0.0417971 -4.13701e-08 0)
(0.0417971 -3.69007e-08 0)
(0.0417971 -3.20935e-08 0)
(0.0417971 -2.72887e-08 0)
(0.0417971 -2.27188e-08 0)
(0.0417971 -1.85307e-08 0)
(0.0417971 -1.48062e-08 0)
(0.0417971 -1.15781e-08 0)
(0.0417971 -8.84472e-09 0)
(0.0417971 -6.58086e-09 0)
(0.0417972 -4.74673e-09 0)
(0.0417972 -3.29473e-09 0)
(0.0417972 -2.1743e-09 0)
(0.0417972 -1.33532e-09 0)
(0.0417972 -7.31111e-10 0)
(0.0417972 -3.16479e-10 0)
(0.0417972 -5.79276e-11 0)
(0.0417972 8.83175e-11 0)
(0.0417972 1.5395e-10 0)
(-0.000309033 0.00121019 0)
(-0.00153156 0.00222961 0)
(-0.00289978 0.00265551 0)
(-0.00418812 0.00270964 0)
(-0.00531542 0.00268995 0)
(-0.00633113 0.00261503 0)
(-0.00721947 0.00254299 0)
(-0.00801242 0.00246966 0)
(-0.00870931 0.00240727 0)
(-0.00932422 0.00235437 0)
(-0.00985907 0.00231204 0)
(-0.0103185 0.00227761 0)
(-0.0107022 0.00224793 0)
(-0.0110091 0.00221847 0)
(-0.0112354 0.00218404 0)
(-0.0113765 0.00213896 0)
(-0.0114261 0.00207737 0)
(-0.0113771 0.00199355 0)
(-0.0112221 0.00188217 0)
(-0.0109533 0.0017386 0)
(-0.0105632 0.00155908 0)
(-0.0100448 0.00134087 0)
(-0.00939163 0.00108234 0)
(-0.00859823 0.000782958 0)
(-0.00765993 0.000443292 0)
(-0.00657305 6.48929e-05 0)
(-0.00533494 -0.000349801 0)
(-0.00394391 -0.000797591 0)
(-0.00239926 -0.00127465 0)
(-0.00070128 -0.00177664 0)
(0.00114881 -0.00229881 0)
(0.0031488 -0.00283613 0)
(0.00529549 -0.00338329 0)
(0.00758465 -0.00393481 0)
(0.010011 -0.00448504 0)
(0.0125681 -0.00502823 0)
(0.0152483 -0.0055585 0)
(0.0180428 -0.0060699 0)
(0.0209414 -0.00655641 0)
(0.0239327 -0.007012 0)
(0.0270038 -0.0074306 0)
(0.0301405 -0.00780621 0)
(0.0333272 -0.00813289 0)
(0.0365472 -0.00840485 0)
(0.0397822 -0.00861656 0)
(0.043013 -0.00876281 0)
(0.0462192 -0.00883892 0)
(0.0493797 -0.00884081 0)
(0.052473 -0.00876525 0)
(0.0554773 -0.00860998 0)
(0.0583708 -0.00837392 0)
(0.0611327 -0.00805727 0)
(0.0637431 -0.00766166 0)
(0.0661833 -0.00719016 0)
(0.0684368 -0.00664731 0)
(0.0704887 -0.00603902 0)
(0.0723268 -0.00537246 0)
(0.0739406 -0.00465585 0)
(0.0753219 -0.00389827 0)
(0.0764645 -0.00310948 0)
(0.0773635 -0.00229966 0)
(0.0780157 -0.00147934 0)
(0.0784183 -0.000659181 0)
(0.0785696 0.000150023 0)
(0.078468 0.000937412 0)
(0.078112 0.00169205 0)
(0.0775006 0.00240293 0)
(0.0766326 0.00305895 0)
(0.0755078 0.00364904 0)
(0.074127 0.00416228 0)
(0.072493 0.00458821 0)
(0.0706128 0.00491731 0)
(0.0684983 0.00514156 0)
(0.0661692 0.00525538 0)
(0.0636544 0.00525682 0)
(0.0609933 0.00514897 0)
(0.058236 0.00494121 0)
(0.0554413 0.00464947 0)
(0.0526738 0.00429517 0)
(0.0499978 0.00390268 0)
(0.0474723 0.00349588 0)
(0.0451449 0.00309479 0)
(0.043049 0.00271306 0)
(0.0412029 0.00235696 0)
(0.0396113 0.00202617 0)
(0.0382685 0.00171579 0)
(0.0371621 0.00141889 0)
(0.0362759 0.00112862 0)
(0.0355929 0.000839581 0)
(0.0350968 0.00054831 0)
(0.0347729 0.000253267 0)
(0.0346083 -4.54983e-05 0)
(0.0345914 -0.000346706 0)
(0.0347118 -0.000648168 0)
(0.03496 -0.00094704 0)
(0.0353266 -0.00124002 0)
(0.0358024 -0.00152348 0)
(0.036378 -0.00179365 0)
(0.037044 -0.00204666 0)
(0.0377907 -0.00227867 0)
(0.0386079 -0.00248594 0)
(0.0394853 -0.00266491 0)
(0.0404123 -0.00281227 0)
(0.041378 -0.00292504 0)
(0.0423713 -0.00300065 0)
(0.043381 -0.00303706 0)
(0.0443958 -0.00303285 0)
(0.0454046 -0.00298737 0)
(0.0463962 -0.00290085 0)
(0.0473598 -0.00277453 0)
(0.0482849 -0.00261078 0)
(0.0491614 -0.00241323 0)
(0.0499799 -0.00218673 0)
(0.0507315 -0.00193737 0)
(0.0514085 -0.00167234 0)
(0.0520045 -0.00139961 0)
(0.0525147 -0.00112761 0)
(0.0529364 -0.00086473 0)
(0.0532693 -0.000618753 0)
(0.0535157 -0.000396362 0)
(0.0536807 -0.00020268 0)
(0.0537719 -4.098e-05 0)
(0.053799 8.74088e-05 0)
(0.0537732 0.000183003 0)
(0.0537066 0.000247899 0)
(0.0536111 0.000285392 0)
(0.053498 0.000299562 0)
(0.0533772 0.000294865 0)
(0.0532569 0.000275789 0)
(0.0531437 0.000246584 0)
(0.053042 0.000211074 0)
(0.052955 0.000172546 0)
(0.0528838 0.000133696 0)
(0.0528288 9.66196e-05 0)
(0.0527892 6.28427e-05 0)
(0.0527635 3.33699e-05 0)
(0.0527498 8.74995e-06 0)
(0.0527462 -1.08497e-05 0)
(0.0527503 -2.55659e-05 0)
(0.0527603 -3.57636e-05 0)
(0.0527741 -4.19641e-05 0)
(0.0527903 -4.47805e-05 0)
(0.0528073 -4.4863e-05 0)
(0.0528242 -4.28539e-05 0)
(0.0528402 -3.93536e-05 0)
(0.0528546 -3.48973e-05 0)
(0.0528673 -2.99403e-05 0)
(0.0528779 -2.48522e-05 0)
(0.0528866 -1.99173e-05 0)
(0.0528934 -1.534e-05 0)
(0.0528985 -1.12537e-05 0)
(0.052902 -7.73154e-06 0)
(0.0529044 -4.79793e-06 0)
(0.0529056 -2.44007e-06 0)
(0.0529061 -6.18517e-07 0)
(0.052906 7.23467e-07 0)
(0.0529055 1.65209e-06 0)
(0.0529047 2.2368e-06 0)
(0.0529038 2.54556e-06 0)
(0.0529028 2.64157e-06 0)
(0.0529018 2.58112e-06 0)
(0.0529008 2.41253e-06 0)
(0.0529 2.17577e-06 0)
(0.0528992 1.90275e-06 0)
(0.0528986 1.61788e-06 0)
(0.0528981 1.339e-06 0)
(0.0528977 1.07834e-06 0)
(0.0528973 8.43536e-07 0)
(0.0528971 6.38574e-07 0)
(0.0528969 4.64702e-07 0)
(0.0528968 3.21177e-07 0)
(0.0528967 2.05915e-07 0)
(0.0528966 1.16011e-07 0)
(0.0528966 4.8151e-08 0)
(0.0528966 -1.09206e-09 0)
(0.0528966 -3.50365e-08 0)
(0.0528967 -5.6752e-08 0)
(0.0528967 -6.89748e-08 0)
(0.0528967 -7.40683e-08 0)
(0.0528967 -7.40163e-08 0)
(0.0528968 -7.04388e-08 0)
(0.0528968 -6.46228e-08 0)
(0.0528968 -5.75609e-08 0)
(0.0528968 -4.99935e-08 0)
(0.0528968 -4.24511e-08 0)
(0.0528969 -3.5294e-08 0)
(0.0528969 -2.87483e-08 0)
(0.0528969 -2.29377e-08 0)
(0.0528969 -1.791e-08 0)
(0.0528969 -1.36591e-08 0)
(0.0528969 -1.01431e-08 0)
(0.0528969 -7.29782e-09 0)
(0.0528969 -5.04737e-09 0)
(0.0528969 -3.31189e-09 0)
(0.0528969 -2.01283e-09 0)
(0.0528969 -1.07661e-09 0)
(0.0528969 -4.35804e-10 0)
(0.0528969 -3.43397e-11 0)
(0.0528969 1.89131e-10 0)
(0.0528969 2.5805e-10 0)
(-0.000413993 0.00244244 0)
(-0.00175903 0.00374173 0)
(-0.00305461 0.00410253 0)
(-0.00413439 0.00389077 0)
(-0.00491542 0.00366546 0)
(-0.0055086 0.00341197 0)
(-0.00590964 0.00319803 0)
(-0.00617634 0.00300395 0)
(-0.00631512 0.00283539 0)
(-0.00634871 0.00268546 0)
(-0.0062815 0.00255116 0)
(-0.00612086 0.00242714 0)
(-0.00586749 0.00230801 0)
(-0.00552199 0.00218765 0)
(-0.00508236 0.00205965 0)
(-0.00454609 0.00191745 0)
(-0.00390969 0.00175465 0)
(-0.00316943 0.00156522 0)
(-0.00232135 0.00134378 0)
(-0.00136161 0.00108581 0)
(-0.000286557 0.000787794 0)
(0.00090711 0.00044732 0)
(0.0022223 6.31284e-05 0)
(0.00366144 -0.000364907 0)
(0.00522649 -0.000835833 0)
(0.00691885 -0.00134771 0)
(0.00873939 -0.0018977 0)
(0.0106884 -0.00248219 0)
(0.0127655 -0.00309693 0)
(0.0149696 -0.00373705 0)
(0.0172989 -0.00439727 0)
(0.0197507 -0.00507186 0)
(0.0223216 -0.00575477 0)
(0.0250069 -0.00643963 0)
(0.0278009 -0.0071198 0)
(0.0306969 -0.00778837 0)
(0.0336866 -0.00843822 0)
(0.0367605 -0.00906202 0)
(0.0399078 -0.00965227 0)
(0.0431159 -0.0102013 0)
(0.046371 -0.0107016 0)
(0.0496577 -0.0111453 0)
(0.0529591 -0.0115248 0)
(0.0562571 -0.0118328 0)
(0.0595322 -0.012062 0)
(0.062764 -0.0122058 0)
(0.0659311 -0.0122582 0)
(0.0690118 -0.0122141 0)
(0.0719846 -0.0120696 0)
(0.0748284 -0.0118224 0)
(0.0775233 -0.0114716 0)
(0.0800511 -0.0110184 0)
(0.0823962 -0.0104657 0)
(0.0845456 -0.00981858 0)
(0.0864896 -0.00908396 0)
(0.0882215 -0.00827035 0)
(0.089738 -0.00738764 0)
(0.0910387 -0.00644672 0)
(0.0921254 -0.00545913 0)
(0.093002 -0.0044367 0)
(0.0936733 -0.00339127 0)
(0.0941449 -0.00233446 0)
(0.094422 -0.00127759 0)
(0.0945094 -0.000231584 0)
(0.0944107 0.000792926 0)
(0.0941281 0.00178552 0)
(0.0936622 0.00273586 0)
(0.093012 0.00363357 0)
(0.092175 0.00446814 0)
(0.0911475 0.00522896 0)
(0.0899251 0.00590541 0)
(0.0885031 0.00648705 0)
(0.086878 0.00696388 0)
(0.0850479 0.00732674 0)
(0.0830144 0.00756781 0)
(0.0807842 0.00768142 0)
(0.0783712 0.00766492 0)
(0.0757981 0.00751974 0)
(0.0730986 0.0072522 0)
(0.0703171 0.00687402 0)
(0.0675078 0.00640224 0)
(0.0647314 0.00585832 0)
(0.0620503 0.00526631 0)
(0.0595232 0.00465021 0)
(0.0571996 0.0040311 0)
(0.0551162 0.00342488 0)
(0.0532949 0.00284118 0)
(0.0517438 0.00228371 0)
(0.0504594 0.00175175 0)
(0.0494298 0.00124211 0)
(0.048638 0.000750911 0)
(0.0480646 0.000274947 0)
(0.0476896 -0.000187629 0)
(0.0474937 -0.000637105 0)
(0.0474588 -0.00107234 0)
(0.0475681 -0.00149106 0)
(0.0478059 -0.00189016 0)
(0.0481577 -0.00226602 0)
(0.0486094 -0.00261473 0)
(0.0491477 -0.00293227 0)
(0.0497594 -0.00321467 0)
(0.0504318 -0.00345812 0)
(0.0511523 -0.00365908 0)
(0.0519087 -0.0038144 0)
(0.0526889 -0.00392146 0)
(0.0534814 -0.00397822 0)
(0.0542752 -0.00398342 0)
(0.0550601 -0.00393665 0)
(0.0558267 -0.00383849 0)
(0.0565664 -0.00369065 0)
(0.0572722 -0.00349601 0)
(0.0579376 -0.0032587 0)
(0.0585578 -0.00298413 0)
(0.0591285 -0.00267894 0)
(0.0596466 -0.00235092 0)
(0.0601095 -0.00200877 0)
(0.0605156 -0.00166188 0)
(0.0608634 -0.00131993 0)
(0.0611522 -0.000992406 0)
(0.0613822 -0.000688118 0)
(0.0615545 -0.00041464 0)
(0.0616715 -0.000177846 0)
(0.061737 1.84473e-05 0)
(0.0617563 0.000172652 0)
(0.061736 0.000285376 0)
(0.0616838 0.000359194 0)
(0.0616078 0.000398253 0)
(0.0615161 0.000407791 0)
(0.0614164 0.00039363 0)
(0.0613154 0.000361701 0)
(0.0612188 0.00031766 0)
(0.0611308 0.000266599 0)
(0.0610542 0.00021286 0)
(0.0609906 0.000159953 0)
(0.0609406 0.000110535 0)
(0.0609038 6.64612e-05 0)
(0.0608792 2.88606e-05 0)
(0.0608652 -1.75506e-06 0)
(0.0608602 -2.53777e-05 0)
(0.0608624 -4.23851e-05 0)
(0.0608698 -5.34299e-05 0)
(0.0608809 -5.93373e-05 0)
(0.0608943 -6.10184e-05 0)
(0.0609086 -5.93974e-05 0)
(0.0609229 -5.53556e-05 0)
(0.0609364 -4.96916e-05 0)
(0.0609488 -4.30955e-05 0)
(0.0609595 -3.6136e-05 0)
(0.0609686 -2.9258e-05 0)
(0.060976 -2.27887e-05 0)
(0.0609818 -1.69488e-05 0)
(0.060986 -1.18672e-05 0)
(0.060989 -7.59834e-06 0)
(0.0609909 -4.1383e-06 0)
(0.060992 -1.44104e-06 0)
(0.0609923 5.67647e-07 0)
(0.0609922 1.97822e-06 0)
(0.0609917 2.88775e-06 0)
(0.060991 3.39264e-06 0)
(0.0609902 3.58337e-06 0)
(0.0609893 3.54117e-06 0)
(0.0609884 3.33615e-06 0)
(0.0609877 3.02659e-06 0)
(0.0609869 2.6592e-06 0)
(0.0609863 2.26996e-06 0)
(0.0609858 1.88526e-06 0)
(0.0609854 1.52337e-06 0)
(0.060985 1.19583e-06 0)
(0.0609848 9.08894e-07 0)
(0.0609846 6.64766e-07 0)
(0.0609844 4.6273e-07 0)
(0.0609843 3.00084e-07 0)
(0.0609843 1.72899e-07 0)
(0.0609843 7.66152e-08 0)
(0.0609842 6.48031e-09 0)
(0.0609842 -4.21312e-08 0)
(0.0609843 -7.35114e-08 0)
(0.0609843 -9.14938e-08 0)
(0.0609843 -9.93942e-08 0)
(0.0609843 -9.99985e-08 0)
(0.0609844 -9.55835e-08 0)
(0.0609844 -8.79592e-08 0)
(0.0609844 -7.85226e-08 0)
(0.0609844 -6.8317e-08 0)
(0.0609844 -5.80911e-08 0)
(0.0609844 -4.83546e-08 0)
(0.0609844 -3.94292e-08 0)
(0.0609845 -3.14927e-08 0)
(0.0609845 -2.46164e-08 0)
(0.0609845 -1.87959e-08 0)
(0.0609845 -1.39765e-08 0)
(0.0609845 -1.00719e-08 0)
(0.0609845 -6.97941e-09 0)
(0.0609845 -4.59036e-09 0)
(0.0609845 -2.79778e-09 0)
(0.0609845 -1.5014e-09 0)
(0.0609845 -6.10427e-10 0)
(0.0609845 -4.64773e-11 0)
(0.0609845 2.66311e-10 0)
(0.0609845 3.50204e-10 0)
(-0.000706247 0.00308238 0)
(-0.00213896 0.00468914 0)
(-0.00261646 0.00492336 0)
(-0.00284757 0.00449788 0)
(-0.00265045 0.00405321 0)
(-0.00234659 0.00361426 0)
(-0.00187301 0.00323728 0)
(-0.00131275 0.00290596 0)
(-0.000653937 0.00261569 0)
(8.15139e-05 0.00235683 0)
(0.000895928 0.00212074 0)
(0.00178451 0.00189971 0)
(0.00274932 0.00168573 0)
(0.00379113 0.00147148 0)
(0.00491271 0.00124953 0)
(0.0061166 0.00101287 0)
(0.0074058 0.000754808 0)
(0.00878312 0.000469219 0)
(0.0102513 0.000150688 0)
(0.0118128 -0.000205317 0)
(0.0134698 -0.000602341 0)
(0.0152243 -0.00104285 0)
(0.0170779 -0.00152817 0)
(0.019032 -0.00205854 0)
(0.0210875 -0.00263308 0)
(0.0232451 -0.00324989 0)
(0.0255048 -0.00390609 0)
(0.0278665 -0.00459795 0)
(0.0303289 -0.00532094 0)
(0.0328905 -0.00606982 0)
(0.0355486 -0.00683874 0)
(0.0382996 -0.00762129 0)
(0.0411391 -0.00841058 0)
(0.0440612 -0.00919924 0)
(0.0470589 -0.00997948 0)
(0.0501239 -0.0107431 0)
(0.0532464 -0.0114815 0)
(0.056415 -0.0121858 0)
(0.0596168 -0.0128468 0)
(0.062837 -0.013455 0)
(0.0660594 -0.0140009 0)
(0.0692661 -0.014475 0)
(0.0724377 -0.0148677 0)
(0.0755533 -0.01517 0)
(0.0785914 -0.0153729 0)
(0.0815292 -0.0154685 0)
(0.0843441 -0.0154497 0)
(0.0870138 -0.0153109 0)
(0.0895173 -0.0150484 0)
(0.0918356 -0.0146605 0)
(0.0939531 -0.0141482 0)
(0.0958577 -0.0135149 0)
(0.0975419 -0.0127669 0)
(0.0990032 -0.0119131 0)
(0.100244 -0.0109643 0)
(0.101271 -0.00993324 0)
(0.102094 -0.00883383 0)
(0.102729 -0.00768044 0)
(0.10319 -0.00648746 0)
(0.103494 -0.00526873 0)
(0.103658 -0.00403724 0)
(0.103698 -0.00280492 0)
(0.103626 -0.00158254 0)
(0.103455 -0.000379812 0)
(0.103193 0.000794436 0)
(0.102845 0.00193204 0)
(0.102414 0.00302523 0)
(0.101899 0.00406634 0)
(0.101297 0.00504755 0)
(0.100601 0.00596076 0)
(0.0998039 0.00679739 0)
(0.098895 0.00754843 0)
(0.0978632 0.00820448 0)
(0.096697 0.00875595 0)
(0.0953853 0.00919346 0)
(0.0939188 0.00950834 0)
(0.092291 0.00969334 0)
(0.0904999 0.00974337 0)
(0.0885495 0.00965628 0)
(0.0864515 0.0094335 0)
(0.0842264 0.00908058 0)
(0.0819036 0.00860742 0)
(0.0795221 0.00802822 0)
(0.0771277 0.00736093 0)
(0.0747709 0.00662617 0)
(0.0725028 0.00584569 0)
(0.0703709 0.00504058 0)
(0.0684152 0.00422961 0)
(0.0666659 0.00342799 0)
(0.0651415 0.00264685 0)
(0.0638499 0.00189341 0)
(0.0627894 0.00117177 0)
(0.0619512 0.00048394 0)
(0.0613211 -0.00016913 0)
(0.0608821 -0.000786733 0)
(0.0606154 -0.00136786 0)
(0.0605019 -0.00191092 0)
(0.0605224 -0.0024137 0)
(0.0606585 -0.00287344 0)
(0.0608922 -0.003287 0)
(0.0612065 -0.00365102 0)
(0.0615849 -0.00396214 0)
(0.0620117 -0.00421719 0)
(0.0624719 -0.00441338 0)
(0.0629515 -0.00454851 0)
(0.0634371 -0.0046211 0)
(0.063917 -0.00463062 0)
(0.0643804 -0.00457759 0)
(0.0648182 -0.00446374 0)
(0.0652231 -0.0042921 0)