/*--------------------------------*- C++ -*----------------------------------*\
| =========                 |                                                 |
| \\      /  F ield         | OpenFOAM: The Open Source CFD Toolbox           |
|  \\    /   O peration     | Version:  4.1                                   |
|   \\  /    A nd           | Web:      www.OpenFOAM.org                      |
|    \\/     M anipulation  |                                                 |
\*---------------------------------------------------------------------------*/
FoamFile
{
    version     2.0;
    format      ascii;
    class       volVectorField;
    location    "190";
    object      U;
}
// * * * * * * * * * * * * * * * * * * * * * * * * * * * * * * * * * * * * * //

dimensions      [0 1 -1 0 0 0 0];

internalField   nonuniform List<vector> 
3264
(
(4.94629e-06 -7.35698e-06 0)
(-8.47321e-05 1.77427e-05 0)
(-0.000289699 3.4472e-05 0)
(-0.000534857 3.68147e-05 0)
(-0.000804634 3.82907e-05 0)
(-0.00109024 3.70503e-05 0)
(-0.00138627 3.78983e-05 0)
(-0.00169685 3.87474e-05 0)
(-0.00202053 4.11089e-05 0)
(-0.00236226 4.43352e-05 0)
(-0.00272384 4.91274e-05 0)
(-0.00310999 5.55327e-05 0)
(-0.00352392 6.39911e-05 0)
(-0.00396949 7.4703e-05 0)
(-0.00444925 8.78824e-05 0)
(-0.00496494 0.000103541 0)
(-0.00551658 0.000121512 0)
(-0.0061024 0.000141371 0)
(-0.00671845 0.000162443 0)
(-0.00735852 0.000183807 0)
(-0.00801408 0.000204363 0)
(-0.00867451 0.000222911 0)
(-0.00932736 0.00023825 0)
(-0.00995881 0.000249281 0)
(-0.0105542 0.000255091 0)
(-0.0110984 0.000255007 0)
(-0.0115769 0.00024863 0)
(-0.0119755 0.000235832 0)
(-0.0122815 0.000216736 0)
(-0.0124835 0.000191687 0)
(-0.012572 0.000161208 0)
(-0.0125396 0.00012597 0)
(-0.0123805 8.6749e-05 0)
(-0.0120914 4.44029e-05 0)
(-0.0116711 -1.54938e-07 0)
(-0.0111203 -4.59739e-05 0)
(-0.010442 -9.20818e-05 0)
(-0.00964105 -0.000137498 0)
(-0.00872445 -0.000181243 0)
(-0.00770107 -0.000222354 0)
(-0.00658164 -0.000259892 0)
(-0.0053787 -0.000292961 0)
(-0.0041065 -0.000320724 0)
(-0.00278085 -0.000342423 0)
(-0.00141901 -0.000357411 0)
(-3.95134e-05 -0.000365179 0)
(0.00133814 -0.000365388 0)
(0.0026937 -0.000357912 0)
(0.00400662 -0.000342869 0)
(0.00525641 -0.000320658 0)
(0.00642324 -0.000291985 0)
(0.00748846 -0.000257873 0)
(0.00843528 -0.000219661 0)
(0.00924944 -0.00017896 0)
(0.00991985 -0.000137588 0)
(0.0104393 -9.74487e-05 0)
(0.0108048 -6.03646e-05 0)
(0.0110184 -2.78728e-05 0)
(0.0110864 -1.00782e-06 0)
(0.0110203 1.9874e-05 0)
(0.0108352 3.51542e-05 0)
(0.0105498 4.58347e-05 0)
(0.0101848 5.32281e-05 0)
(0.00976173 5.85378e-05 0)
(0.00930158 6.24924e-05 0)
(0.0088232 6.52093e-05 0)
(0.00834205 6.63602e-05 0)
(0.00786955 6.55555e-05 0)
(0.00741321 6.27583e-05 0)
(0.0069774 5.85432e-05 0)
(0.00656431 5.40799e-05 0)
(0.0061745 5.08186e-05 0)
(0.00580724 4.998e-05 0)
(0.00546068 5.20882e-05 0)
(0.00513245 5.67981e-05 0)
(0.00482039 6.30968e-05 0)
(0.00452327 6.97253e-05 0)
(0.00424126 7.55663e-05 0)
(0.00397608 7.98327e-05 0)
(0.00373093 8.2058e-05 0)
(0.00351029 8.19904e-05 0)
(0.00331955 7.94908e-05 0)
(0.0031646 7.44822e-05 0)
(0.00305133 6.69465e-05 0)
(0.00298524 5.69435e-05 0)
(0.00297106 4.46317e-05 0)
(0.00301245 3.02755e-05 0)
(0.00311183 1.42393e-05 0)
(0.00327021 -3.03014e-06 0)
(0.00348715 -2.10266e-05 0)
(0.00376071 -3.9209e-05 0)
(0.00408748 -5.70245e-05 0)
(0.00446261 -7.39294e-05 0)
(0.00487993 -8.94067e-05 0)
(0.00533205 -0.000102984 0)
(0.00581052 -0.000114248 0)
(0.00630604 -0.000122862 0)
(0.00680876 -0.00012858 0)
(0.00730855 -0.000131264 0)
(0.00779545 -0.00013089 0)
(0.00826 -0.00012756 0)
(0.00869375 -0.000121499 0)
(0.00908958 -0.00011305 0)
(0.00944205 -0.000102652 0)
(0.00974761 -9.08202e-05 0)
(0.0100047 -7.81071e-05 0)
(0.0102136 -6.50676e-05 0)
(0.0103765 -5.22226e-05 0)
(0.0104967 -4.00273e-05 0)
(0.0105789 -2.88488e-05 0)
(0.0106282 -1.8954e-05 0)
(0.0106503 -1.0508e-05 0)
(0.0106508 -3.58019e-06 0)
(0.010635 1.84355e-06 0)
(0.0106077 5.84516e-06 0)
(0.0105732 8.55782e-06 0)
(0.0105352 1.01494e-05 0)
(0.0104964 1.08069e-05 0)
(0.0104591 1.07232e-05 0)
(0.0104249 1.00852e-05 0)
(0.0103947 9.06552e-06 0)
(0.0103691 7.81575e-06 0)
(0.0103482 6.46307e-06 0)
(0.010332 5.10867e-06 0)
(0.01032 3.8282e-06 0)
(0.0103117 2.67365e-06 0)
(0.0103067 1.67625e-06 0)
(0.0103042 8.49964e-07 0)
(0.0103038 1.95136e-07 0)
(0.0103049 -2.97897e-07 0)
(0.0103071 -6.45544e-07 0)
(0.0103099 -8.68135e-07 0)
(0.010313 -9.87611e-07 0)
(0.0103163 -1.02575e-06 0)
(0.0103194 -1.00292e-06 0)
(0.0103224 -9.37224e-07 0)
(0.010325 -8.44074e-07 0)
(0.0103273 -7.36052e-07 0)
(0.0103292 -6.22972e-07 0)
(0.0103308 -5.12107e-07 0)
(0.0103321 -4.08506e-07 0)
(0.0103331 -3.15351e-07 0)
(0.0103338 -2.34331e-07 0)
(0.0103343 -1.65979e-07 0)
(0.0103347 -1.09997e-07 0)
(0.0103349 -6.55134e-08 0)
(0.010335 -3.13118e-08 0)
(0.010335 -5.99994e-09 0)
(0.010335 1.18583e-08 0)
(0.0103349 2.365e-08 0)
(0.0103348 3.06528e-08 0)
(0.0103347 3.39981e-08 0)
(0.0103346 3.4656e-08 0)
(0.0103345 3.34327e-08 0)
(0.0103344 3.09787e-08 0)
(0.0103344 2.78032e-08 0)
(0.0103343 2.42914e-08 0)
(0.0103342 2.07234e-08 0)
(0.0103342 1.72934e-08 0)
(0.0103341 1.41263e-08 0)
(0.0103341 1.12937e-08 0)
(0.0103341 8.82748e-09 0)
(0.0103341 6.73056e-09 0)
(0.010334 4.98649e-09 0)
(0.010334 3.5664e-09 0)
(0.010334 2.43463e-09 0)
(0.010334 1.55269e-09 0)
(0.010334 8.82243e-10 0)
(0.010334 3.86945e-10 0)
(0.010334 3.36792e-11 0)
(0.010334 -2.06841e-10 0)
(0.010334 -3.59843e-10 0)
(0.010334 -4.46573e-10 0)
(0.010334 -4.84535e-10 0)
(0.010334 -4.87858e-10 0)
(0.010334 -4.67703e-10 0)
(0.010334 -4.32695e-10 0)
(0.010334 -3.89335e-10 0)
(0.010334 -3.42381e-10 0)
(0.010334 -2.952e-10 0)
(0.010334 -2.50055e-10 0)
(0.010334 -2.08369e-10 0)
(0.010334 -1.70932e-10 0)
(0.010334 -1.38071e-10 0)
(0.010334 -1.09795e-10 0)
(0.010334 -8.58931e-11 0)
(0.010334 -6.60214e-11 0)
(0.010334 -4.9764e-11 0)
(0.010334 -3.66763e-11 0)
(0.010334 -2.63145e-11 0)
(0.010334 -1.82592e-11 0)
(0.010334 -1.2126e-11 0)
(0.010334 -7.57044e-12 0)
(0.010334 -4.30425e-12 0)
(0.010334 -2.06038e-12 0)
(0.010334 -6.51859e-13 0)
(0.010334 6.73986e-14 0)
(0.010334 3.54623e-13 0)
(0.010334 -3.90986e-13 0)
(0.010334 -3.08636e-13 0)
(-7.06069e-05 8.68063e-05 0)
(-0.000508304 0.00029389 0)
(-0.00117191 0.00043597 0)
(-0.00191076 0.000499888 0)
(-0.00268926 0.000544525 0)
(-0.0034946 0.000571457 0)
(-0.0043137 0.000599796 0)
(-0.00515263 0.000626942 0)
(-0.00600741 0.00065873 0)
(-0.00688396 0.000694903 0)
(-0.00778241 0.000737318 0)
(-0.00870565 0.000785674 0)
(-0.00965279 0.00083953 0)
(-0.0106218 0.000897303 0)
(-0.0116074 0.000956762 0)
(-0.0126012 0.00101492 0)
(-0.0135922 0.00106829 0)
(-0.0145663 0.00111302 0)
(-0.0155072 0.0011452 0)
(-0.016397 0.0011611 0)
(-0.0172167 0.00115741 0)
(-0.0179471 0.00113148 0)
(-0.0185696 0.00108147 0)
(-0.0190663 0.0010064 0)
(-0.0194212 0.000906162 0)
(-0.0196199 0.00078149 0)
(-0.0196503 0.000633826 0)
(-0.0195027 0.000465212 0)
(-0.0191694 0.000278154 0)
(-0.0186454 7.55039e-05 0)
(-0.0179276 -0.000139649 0)
(-0.0170155 -0.000364061 0)
(-0.0159105 -0.000594396 0)
(-0.0146163 -0.000827276 0)
(-0.0131384 -0.00105931 0)
(-0.0114845 -0.00128711 0)
(-0.00966405 -0.00150731 0)
(-0.00768836 -0.00171659 0)
(-0.00557066 -0.00191167 0)
(-0.00332598 -0.00208933 0)
(-0.000971085 -0.00224641 0)
(0.00147547 -0.00237989 0)
(0.00399343 -0.00248687 0)
(0.00656092 -0.00256465 0)
(0.00915447 -0.00261081 0)
(0.0117492 -0.00262327 0)
(0.014319 -0.0026004 0)
(0.0168367 -0.00254112 0)
(0.0192743 -0.00244501 0)
(0.0216035 -0.00231246 0)
(0.0237961 -0.00214477 0)
(0.0258241 -0.00194422 0)
(0.0276609 -0.0017142 0)
(0.0292812 -0.00145925 0)
(0.0306621 -0.00118503 0)
(0.0317836 -0.000898305 0)
(0.0326297 -0.000606829 0)
(0.0331885 -0.000319122 0)
(0.033454 -4.41779e-05 0)
(0.0334263 0.000208975 0)
(0.0331133 0.00043186 0)
(0.0325309 0.000617307 0)
(0.0317038 0.000760349 0)
(0.030665 0.000859153 0)
(0.0294547 0.0009157 0)
(0.0281183 0.000935827 0)
(0.0267033 0.000928241 0)
(0.0252563 0.000902555 0)
(0.0238202 0.000867029 0)
(0.0224311 0.000827078 0)
(0.0211165 0.000785266 0)
(0.0198936 0.00074249 0)
(0.0187705 0.000699294 0)
(0.0177484 0.000656451 0)
(0.0168245 0.000614727 0)
(0.0159954 0.000574373 0)
(0.0152585 0.000534775 0)
(0.0146127 0.000494426 0)
(0.0140584 0.00045116 0)
(0.0135971 0.000402566 0)
(0.0132315 0.00034646 0)
(0.0129646 0.000281298 0)
(0.0128 0.000206409 0)
(0.012741 0.000122036 0)
(0.01279 2.92222e-05 0)
(0.0129486 -7.03657e-05 0)
(0.0132168 -0.00017463 0)
(0.013593 -0.000281198 0)
(0.0140741 -0.000387545 0)
(0.0146549 -0.000491084 0)
(0.0153286 -0.000589229 0)
(0.0160865 -0.000679455 0)
(0.0169184 -0.000759347 0)
(0.0178122 -0.00082666 0)
(0.0187544 -0.000879385 0)
(0.0197298 -0.000915841 0)
(0.0207224 -0.00093477 0)
(0.021715 -0.00093545 0)
(0.02269 -0.000917805 0)
(0.0236299 -0.000882491 0)
(0.0245178 -0.000830942 0)
(0.0253387 -0.000765347 0)
(0.0260797 -0.000688559 0)
(0.0267312 -0.000603912 0)
(0.0272869 -0.000514993 0)
(0.0277449 -0.000425376 0)
(0.0281069 -0.000338373 0)
(0.0283785 -0.000256819 0)
(0.0285679 -0.000182939 0)
(0.0286855 -0.000118273 0)
(0.0287431 -6.36794e-05 0)
(0.0287525 -1.93931e-05 0)
(0.0287255 1.48814e-05 0)
(0.0286727 3.98559e-05 0)
(0.0286035 5.65384e-05 0)
(0.0285257 6.61185e-05 0)
(0.0284457 6.98659e-05 0)
(0.0283683 6.90456e-05 0)
(0.0282968 6.48523e-05 0)
(0.0282334 5.83637e-05 0)
(0.0281793 5.05106e-05 0)
(0.0281349 4.20621e-05 0)
(0.0280998 3.36236e-05 0)
(0.0280735 2.56444e-05 0)
(0.0280548 1.84315e-05 0)
(0.0280427 1.21693e-05 0)
(0.028036 6.9408e-06 0)
(0.0280336 2.74921e-06 0)
(0.0280344 -4.60882e-07 0)
(0.0280375 -2.78461e-06 0)
(0.0280421 -4.34054e-06 0)
(0.0280475 -5.25733e-06 0)
(0.0280533 -5.66348e-06 0)
(0.028059 -5.67985e-06 0)
(0.0280644 -5.41483e-06 0)
(0.0280694 -4.96153e-06 0)
(0.0280737 -4.39683e-06 0)
(0.0280774 -3.78157e-06 0)
(0.0280805 -3.16175e-06 0)
(0.028083 -2.57023e-06 0)
(0.0280849 -2.02871e-06 0)
(0.0280864 -1.54983e-06 0)
(0.0280875 -1.13914e-06 0)
(0.0280882 -7.96922e-07 0)
(0.0280887 -5.19765e-07 0)
(0.028089 -3.01866e-07 0)
(0.0280891 -1.36085e-07 0)
(0.0280891 -1.47448e-08 0)
(0.0280891 6.9783e-08 0)
(0.028089 1.24679e-07 0)
(0.0280888 1.56426e-07 0)
(0.0280887 1.70679e-07 0)
(0.0280885 1.72217e-07 0)
(0.0280883 1.64971e-07 0)
(0.0280882 1.52075e-07 0)
(0.0280881 1.3596e-07 0)
(0.028088 1.18445e-07 0)
(0.0280879 1.00839e-07 0)
(0.0280878 8.40371e-08 0)
(0.0280877 6.86049e-08 0)
(0.0280877 5.48571e-08 0)
(0.0280876 4.29219e-08 0)
(0.0280876 3.27951e-08 0)
(0.0280876 2.43834e-08 0)
(0.0280876 1.75384e-08 0)
(0.0280876 1.20822e-08 0)
(0.0280875 7.82625e-09 0)
(0.0280875 4.58415e-09 0)
(0.0280875 2.18074e-09 0)
(0.0280875 4.57069e-10 0)
(0.0280875 -7.26875e-10 0)
(0.0280875 -1.49143e-09 0)
(0.0280875 -1.93772e-09 0)
(0.0280875 -2.14899e-09 0)
(0.0280875 -2.19242e-09 0)
(0.0280875 -2.12108e-09 0)
(0.0280876 -1.97603e-09 0)
(0.0280876 -1.7883e-09 0)
(0.0280876 -1.58069e-09 0)
(0.0280876 -1.36938e-09 0)
(0.0280876 -1.16541e-09 0)
(0.0280876 -9.75774e-10 0)
(0.0280876 -8.04494e-10 0)
(0.0280876 -6.53399e-10 0)
(0.0280876 -5.2276e-10 0)
(0.0280876 -4.11805e-10 0)
(0.0280876 -3.19109e-10 0)
(0.0280876 -2.42872e-10 0)
(0.0280876 -1.81141e-10 0)
(0.0280876 -1.31942e-10 0)
(0.0280876 -9.33861e-11 0)
(0.0280876 -6.37338e-11 0)
(0.0280876 -4.14233e-11 0)
(0.0280876 -2.51062e-11 0)
(0.0280876 -1.35743e-11 0)
(0.0280876 -5.94265e-12 0)
(0.0280876 -1.36035e-12 0)
(0.0280876 1.00493e-12 0)
(0.0280876 -6.46465e-14 0)
(0.0280876 -2.44012e-13 0)
(-0.000173351 0.000559052 0)
(-0.00101308 0.00111855 0)
(-0.00212485 0.00142359 0)
(-0.00328333 0.00152602 0)
(-0.00443134 0.00159195 0)
(-0.00555916 0.00162241 0)
(-0.00664824 0.00165654 0)
(-0.00770813 0.00168871 0)
(-0.00873365 0.00172795 0)
(-0.00973057 0.0017723 0)
(-0.0106966 0.00182239 0)
(-0.0116314 0.00187532 0)
(-0.0125297 0.00192777 0)
(-0.0133849 0.00197494 0)
(-0.0141874 0.00201153 0)
(-0.0149257 0.00203183 0)
(-0.0155865 0.00203023 0)
(-0.0161556 0.00200154 0)
(-0.0166184 0.00194133 0)
(-0.0169603 0.00184611 0)
(-0.0171676 0.00171354 0)
(-0.0172277 0.00154244 0)
(-0.0171294 0.00133278 0)
(-0.0168634 0.00108562 0)
(-0.0164219 0.000802961 0)
(-0.0157989 0.000487608 0)
(-0.0149902 0.000143006 0)
(-0.0139934 -0.000226906 0)
(-0.0128076 -0.00061783 0)
(-0.0114335 -0.00102522 0)
(-0.00987322 -0.00144434 0)
(-0.00813036 -0.00187038 0)
(-0.00620999 -0.00229844 0)
(-0.00411857 -0.00272355 0)
(-0.001864 -0.00314074 0)
(0.000544392 -0.003545 0)
(0.00309579 -0.0039313 0)
(0.00577788 -0.00429459 0)
(0.00857684 -0.00462984 0)
(0.0114773 -0.004932 0)
(0.0144623 -0.00519608 0)
(0.0175134 -0.0054172 0)
(0.0206105 -0.00559058 0)
(0.023732 -0.00571172 0)
(0.0268551 -0.00577643 0)
(0.0299553 -0.00578101 0)
(0.0330072 -0.00572239 0)
(0.0359847 -0.0055983 0)
(0.0388608 -0.00540744 0)
(0.0416084 -0.00514966 0)
(0.0442005 -0.00482617 0)
(0.0466109 -0.00443958 0)
(0.0488141 -0.0039941 0)
(0.050786 -0.00349551 0)
(0.0525045 -0.00295117 0)
(0.0539491 -0.00237 0)
(0.0551018 -0.00176234 0)
(0.0559468 -0.0011399 0)
(0.0564711 -0.000515537 0)
(0.0566645 9.6837e-05 0)
(0.0565202 0.000682479 0)
(0.0560355 0.00122612 0)
(0.0552127 0.00171245 0)
(0.054061 0.00212699 0)
(0.0525977 0.00245715 0)
(0.050851 0.00269381 0)
(0.0488606 0.00283269 0)
(0.0466789 0.00287575 0)
(0.044369 0.00283192 0)
(0.042001 0.00271695 0)
(0.0396457 0.00255185 0)
(0.0373682 0.00235944 0)
(0.0352228 0.00215978 0)
(0.0332492 0.00196629 0)
(0.0314722 0.00178432 0)
(0.0299025 0.00161256 0)
(0.0285398 0.00144621 0)
(0.0273765 0.00127988 0)
(0.0264022 0.00110923 0)
(0.0256063 0.000931304 0)
(0.02498 0.000744314 0)
(0.0245165 0.000547411 0)
(0.0242105 0.000340567 0)
(0.0240572 0.000124573 0)
(0.0240523 -9.89622e-05 0)
(0.0241909 -0.000327671 0)
(0.0244676 -0.000558539 0)
(0.0248763 -0.000788051 0)
(0.0254099 -0.00101233 0)
(0.0260606 -0.00122729 0)
(0.0268195 -0.00142873 0)
(0.0276766 -0.00161241 0)
(0.0286208 -0.00177419 0)
(0.0296398 -0.00191003 0)
(0.0307201 -0.00201617 0)
(0.031847 -0.00208921 0)
(0.0330043 -0.00212633 0)
(0.0341747 -0.00212551 0)
(0.0353397 -0.00208583 0)
(0.0364802 -0.00200771 0)
(0.0375767 -0.00189323 0)
(0.03861 -0.00174622 0)
(0.0395626 -0.00157225 0)
(0.040419 -0.00137841 0)
(0.0411673 -0.00117286 0)
(0.0417998 -0.000964188 0)
(0.0423136 -0.000760719 0)
(0.0427109 -0.000569813 0)
(0.0429985 -0.000397346 0)
(0.0431872 -0.000247388 0)
(0.0432908 -0.000122139 0)
(0.0433244 -2.20647e-05 0)
(0.0433039 5.38095e-05 0)
(0.043244 0.000107537 0)
(0.0431584 0.000141875 0)
(0.0430587 0.000159953 0)
(0.042954 0.000164994 0)
(0.0428516 0.000160105 0)
(0.0427564 0.000148132 0)
(0.0426718 0.000131568 0)
(0.0425994 0.000112506 0)
(0.0425399 9.2626e-05 0)
(0.0424929 7.32111e-05 0)
(0.0424575 5.51779e-05 0)
(0.0424324 3.91228e-05 0)
(0.042416 2.53727e-05 0)
(0.0424068 1.40385e-05 0)
(0.0424033 5.06691e-06 0)
(0.0424039 -1.71201e-06 0)
(0.0424076 -6.54318e-06 0)
(0.0424132 -9.71161e-06 0)
(0.0424199 -1.15148e-05 0)
(0.042427 -1.22421e-05 0)
(0.0424341 -1.216e-05 0)
(0.0424407 -1.15036e-05 0)
(0.0424468 -1.04718e-05 0)
(0.0424521 -9.22639e-06 0)
(0.0424566 -7.89369e-06 0)
(0.0424603 -6.56768e-06 0)
(0.0424633 -5.31421e-06 0)
(0.0424657 -4.1757e-06 0)
(0.0424675 -3.17569e-06 0)
(0.0424687 -2.32328e-06 0)
(0.0424696 -1.61696e-06 0)
(0.0424702 -1.04795e-06 0)
(0.0424705 -6.0291e-07 0)
(0.0424707 -2.66081e-07 0)
(0.0424707 -2.09138e-08 0)
(0.0424706 1.48792e-07 0)
(0.0424704 2.58106e-07 0)
(0.0424702 3.20511e-07 0)
(0.04247 3.47669e-07 0)
(0.0424699 3.49376e-07 0)
(0.0424697 3.33626e-07 0)
(0.0424695 3.06762e-07 0)
(0.0424694 2.7367e-07 0)
(0.0424692 2.37984e-07 0)
(0.0424691 2.02301e-07 0)
(0.042469 1.68379e-07 0)
(0.042469 1.3732e-07 0)
(0.0424689 1.09722e-07 0)
(0.0424689 8.58131e-08 0)
(0.0424688 6.55636e-08 0)
(0.0424688 4.8769e-08 0)
(0.0424688 3.51193e-08 0)
(0.0424688 2.42495e-08 0)
(0.0424688 1.57762e-08 0)
(0.0424688 9.32343e-09 0)
(0.0424688 4.53914e-09 0)
(0.0424688 1.10531e-09 0)
(0.0424688 -1.25747e-09 0)
(0.0424688 -2.78867e-09 0)
(0.0424688 -3.68913e-09 0)
(0.0424688 -4.12387e-09 0)
(0.0424688 -4.22583e-09 0)
(0.0424688 -4.09994e-09 0)
(0.0424688 -3.82731e-09 0)
(0.0424688 -3.46917e-09 0)
(0.0424688 -3.07049e-09 0)
(0.0424688 -2.66325e-09 0)
(0.0424688 -2.26921e-09 0)
(0.0424688 -1.90225e-09 0)
(0.0424688 -1.57037e-09 0)
(0.0424688 -1.27726e-09 0)
(0.0424688 -1.02355e-09 0)
(0.0424688 -8.07832e-10 0)
(0.0424688 -6.27402e-10 0)
(0.0424688 -4.78817e-10 0)
(0.0424688 -3.5831e-10 0)
(0.0424688 -2.62085e-10 0)
(0.0424688 -1.86496e-10 0)
(0.0424688 -1.28185e-10 0)
(0.0424688 -8.41266e-11 0)
(0.0424688 -5.16833e-11 0)
(0.0424688 -2.85559e-11 0)
(0.0424688 -1.29201e-11 0)
(0.0424688 -3.02425e-12 0)
(0.0424688 2.16046e-12 0)
(0.0424688 3.19719e-12 0)
(0.0424688 2.7254e-12 0)
(-0.000312399 0.0011771 0)
(-0.00155212 0.00219155 0)
(-0.0029456 0.00264921 0)
(-0.00426429 0.00274958 0)
(-0.00542634 0.00277731 0)
(-0.0064794 0.00274711 0)
(-0.00740635 0.00271692 0)
(-0.00823717 0.00268305 0)
(-0.0089693 0.00265721 0)
(-0.00961431 0.00263664 0)
(-0.0101714 0.00262049 0)
(-0.0106422 0.0026039 0)
(-0.0110232 0.00258153 0)
(-0.0113101 0.0025469 0)
(-0.0114965 0.00249339 0)
(-0.0115751 0.00241446 0)
(-0.0115379 0.00230411 0)
(-0.0113766 0.00215717 0)
(-0.0110834 0.00196957 0)
(-0.0106508 0.00173842 0)
(-0.0100722 0.00146215 0)
(-0.00934182 0.00114044 0)
(-0.00845495 0.000774181 0)
(-0.00740793 0.000365317 0)
(-0.00619809 -8.32583e-05 0)
(-0.00482379 -0.000567879 0)
(-0.00328435 -0.00108425 0)
(-0.00158008 -0.00162757 0)
(0.000287789 -0.00219267 0)
(0.00231702 -0.00277408 0)
(0.00450439 -0.0033661 0)
(0.00684561 -0.00396284 0)
(0.00933525 -0.00455823 0)
(0.0119667 -0.00514607 0)
(0.014732 -0.00572001 0)
(0.017622 -0.00627357 0)
(0.0206258 -0.00680015 0)
(0.0237314 -0.00729305 0)
(0.0269248 -0.00774547 0)
(0.0301909 -0.00815058 0)
(0.0335126 -0.00850152 0)
(0.0368714 -0.00879151 0)
(0.0402474 -0.0090139 0)
(0.0436189 -0.00916232 0)
(0.0469631 -0.00923087 0)
(0.0502562 -0.00921427 0)
(0.0534732 -0.00910811 0)
(0.0565889 -0.00890912 0)
(0.0595782 -0.00861538 0)
(0.0624162 -0.0082266 0)
(0.065079 -0.00774432 0)
(0.0675445 -0.00717202 0)
(0.0697921 -0.00651524 0)
(0.0718036 -0.00578152 0)
(0.0735632 -0.00498028 0)
(0.0750576 -0.00412271 0)
(0.0762756 -0.00322147 0)
(0.0772083 -0.0022905 0)
(0.0778484 -0.00134471 0)
(0.07819 -0.000399804 0)
(0.0782283 0.00052795 0)
(0.0779591 0.00142188 0)
(0.0773789 0.0022651 0)
(0.0764852 0.00304064 0)
(0.0752766 0.00373175 0)
(0.0737549 0.00432222 0)
(0.0719259 0.00479684 0)
(0.0698028 0.00514234 0)
(0.0674089 0.0053488 0)
(0.0647803 0.0054117 0)
(0.0619683 0.00533432 0)
(0.0590387 0.00512936 0)
(0.0560699 0.00481891 0)
(0.0531454 0.00443203 0)
(0.0503468 0.00400032 0)
(0.0477438 0.0035527 0)
(0.0453886 0.00311076 0)
(0.0433128 0.00268636 0)
(0.0415287 0.00228202 0)
(0.0400331 0.0018938 0)
(0.0388126 0.00151492 0)
(0.0378482 0.001139 0)
(0.0371193 0.000761803 0)
(0.036606 0.000381748 0)
(0.0362905 -4.24008e-07 0)
(0.0361568 -0.00038229 0)
(0.0361911 -0.000760339 0)
(0.0363804 -0.0011304 0)
(0.0367128 -0.00148792 0)
(0.0371765 -0.00182812 0)
(0.0377601 -0.00214607 0)
(0.0384521 -0.00243677 0)
(0.0392406 -0.00269519 0)
(0.0401135 -0.00291629 0)
(0.0410583 -0.00309516 0)
(0.0420619 -0.0032271 0)
(0.0431105 -0.00330784 0)
(0.0441897 -0.00333384 0)
(0.0452839 -0.00330264 0)
(0.0463771 -0.00321334 0)
(0.0474523 -0.003067 0)
(0.0484922 -0.00286713 0)
(0.0494794 -0.00261986 0)
(0.0503975 -0.00233401 0)
(0.0512314 -0.0020207 0)
(0.0519685 -0.00169273 0)
(0.0525998 -0.00136355 0)
(0.0531201 -0.00104619 0)
(0.0535291 -0.000752156 0)
(0.0538312 -0.000490488 0)
(0.0540349 -0.000267253 0)
(0.0541521 -8.53694e-05 0)
(0.0541971 5.51585e-05 0)
(0.0541851 0.000156735 0)
(0.0541311 0.000223511 0)
(0.0540493 0.000260695 0)
(0.0539516 0.000273937 0)
(0.0538481 0.000268832 0)
(0.0537463 0.000250567 0)
(0.0536518 0.000223702 0)
(0.0535679 0.000192058 0)
(0.0534967 0.000158689 0)
(0.0534385 0.00012591 0)
(0.0533931 9.53693e-05 0)
(0.0533594 6.81313e-05 0)
(0.0533359 4.478e-05 0)
(0.0533211 2.55163e-05 0)
(0.0533133 1.02536e-05 0)
(0.0533109 -1.29734e-06 0)
(0.0533125 -9.55418e-06 0)
(0.0533168 -1.50025e-05 0)
(0.0533228 -1.81481e-05 0)
(0.0533297 -1.94811e-05 0)
(0.0533369 -1.94521e-05 0)
(0.0533438 -1.8457e-05 0)
(0.0533503 -1.68299e-05 0)
(0.053356 -1.48418e-05 0)
(0.053361 -1.27033e-05 0)
(0.0533651 -1.05708e-05 0)
(0.0533685 -8.55346e-06 0)
(0.0533712 -6.72113e-06 0)
(0.0533732 -5.11255e-06 0)
(0.0533747 -3.74252e-06 0)
(0.0533758 -2.60841e-06 0)
(0.0533765 -1.69574e-06 0)
(0.0533769 -9.82675e-07 0)
(0.0533771 -4.43519e-07 0)
(0.0533772 -5.13818e-08 0)
(0.0533771 2.19963e-07 0)
(0.053377 3.94837e-07 0)
(0.0533768 4.94928e-07 0)
(0.0533766 5.38944e-07 0)
(0.0533765 5.42549e-07 0)
(0.0533763 5.18492e-07 0)
(0.0533761 4.76858e-07 0)
(0.0533759 4.2539e-07 0)
(0.0533758 3.69834e-07 0)
(0.0533757 3.14282e-07 0)
(0.0533756 2.61495e-07 0)
(0.0533755 2.13192e-07 0)
(0.0533755 1.70302e-07 0)
(0.0533754 1.33176e-07 0)
(0.0533754 1.01757e-07 0)
(0.0533754 7.57185e-08 0)
(0.0533753 5.45705e-08 0)
(0.0533753 3.77398e-08 0)
(0.0533753 2.46263e-08 0)
(0.0533753 1.4643e-08 0)
(0.0533753 7.24178e-09 0)
(0.0533753 1.92823e-09 0)
(0.0533753 -1.73109e-09 0)
(0.0533753 -4.10711e-09 0)
(0.0533753 -5.51042e-09 0)
(0.0533753 -6.19587e-09 0)
(0.0533753 -6.36846e-09 0)
(0.0533753 -6.18985e-09 0)
(0.0533753 -5.78483e-09 0)
(0.0533753 -5.24751e-09 0)
(0.0533753 -4.64698e-09 0)
(0.0533753 -4.03231e-09 0)
(0.0533753 -3.43688e-09 0)
(0.0533753 -2.88201e-09 0)
(0.0533753 -2.37996e-09 0)
(0.0533753 -1.93643e-09 0)
(0.0533753 -1.55244e-09 0)
(0.0533753 -1.2259e-09 0)
(0.0533753 -9.52709e-10 0)
(0.0533753 -7.27671e-10 0)
(0.0533753 -5.45089e-10 0)
(0.0533753 -3.99215e-10 0)
(0.0533753 -2.84541e-10 0)
(0.0533753 -1.95974e-10 0)
(0.0533753 -1.28945e-10 0)
(0.0533753 -7.9442e-11 0)
(0.0533753 -4.40218e-11 0)
(0.0533753 -1.97924e-11 0)
(0.0533753 -4.26381e-12 0)
(0.0533753 4.22736e-12 0)
(0.0533753 7.96202e-12 0)
(0.0533753 6.94083e-12 0)
(-0.000418067 0.00242563 0)
(-0.00177924 0.00372861 0)
(-0.00309027 0.00412148 0)
(-0.00417782 0.00395235 0)
(-0.00495831 0.00377017 0)
(-0.00554231 0.00355653 0)
(-0.00592619 0.00337898 0)
(-0.00616732 0.0032178 0)
(-0.00627158 0.00307785 0)
(-0.00626061 0.00295067 0)
(-0.00613766 0.00283124 0)
(-0.00590883 0.00271202 0)
(-0.00557368 0.00258557 0)
(-0.00513175 0.00244408 0)
(-0.00458027 0.00228 0)
(-0.00391624 0.00208633 0)
(-0.00313597 0.00185688 0)
(-0.00223582 0.00158657 0)
(-0.0012122 0.00127154 0)
(-6.18227e-05 0.000909241 0)
(0.00121828 0.000498455 0)
(0.00263065 3.92284e-05 0)
(0.0041774 -0.000467211 0)
(0.00586016 -0.00101858 0)
(0.00768008 -0.00161166 0)
(0.00963773 -0.00224245 0)
(0.0117331 -0.00290626 0)
(0.0139655 -0.00359786 0)
(0.0163334 -0.00431152 0)
(0.0188344 -0.00504111 0)
(0.0214652 -0.00578015 0)
(0.0242214 -0.00652181 0)
(0.0270973 -0.00725897 0)
(0.030086 -0.00798417 0)
(0.0331789 -0.00868968 0)
(0.0363663 -0.00936748 0)
(0.0396364 -0.0100093 0)
(0.0429761 -0.0106067 0)
(0.0463703 -0.011151 0)
(0.0498023 -0.0116335 0)
(0.0532537 -0.0120454 0)
(0.0567045 -0.0123778 0)
(0.0601332 -0.0126223 0)
(0.0635168 -0.0127707 0)
(0.0668314 -0.0128154 0)
(0.0700523 -0.0127499 0)
(0.0731549 -0.0125687 0)
(0.0761148 -0.0122681 0)
(0.078909 -0.0118464 0)
(0.0815165 -0.0113041 0)
(0.0839187 -0.0106442 0)
(0.0861006 -0.00987229 0)
(0.0880504 -0.00899642 0)
(0.0897603 -0.00802702 0)
(0.0912261 -0.00697655 0)
(0.0924465 -0.00585906 0)
(0.0934231 -0.00468981 0)
(0.0941591 -0.00348481 0)
(0.0946585 -0.00226051 0)
(0.0949256 -0.00103351 0)
(0.0949638 0.000179607 0)
(0.0947754 0.00136233 0)
(0.0943606 0.00249825 0)
(0.0937181 0.00357105 0)
(0.0928444 0.00456452 0)
(0.0917348 0.00546264 0)
(0.0903836 0.00624967 0)
(0.0887854 0.00691042 0)
(0.0869367 0.00743062 0)
(0.0848374 0.00779773 0)
(0.0824944 0.008002 0)
(0.0799243 0.00803802 0)
(0.0771572 0.00790632 0)
(0.0742383 0.00761481 0)
(0.0712284 0.00717966 0)
(0.0682007 0.00662505 0)
(0.0652351 0.00598126 0)
(0.0624097 0.00528112 0)
(0.059793 0.0045556 0)
(0.0574369 0.00382981 0)
(0.0553739 0.00312074 0)
(0.0536171 0.00243723 0)
(0.0521638 0.00178176 0)
(0.0509997 0.00115311 0)
(0.0501039 0.000548859 0)
(0.0494527 -3.28719e-05 0)
(0.0490216 -0.000592521 0)
(0.0487876 -0.00112891 0)
(0.0487292 -0.00163943 0)
(0.0488267 -0.00212045 0)
(0.0490624 -0.00256757 0)
(0.0494193 -0.00297597 0)
(0.0498821 -0.00334056 0)
(0.0504356 -0.00365611 0)
(0.0510658 -0.00391737 0)
(0.0517586 -0.00411923 0)
(0.0525007 -0.0042569 0)
(0.0532789 -0.00432617 0)
(0.0540801 -0.00432387 0)
(0.0548917 -0.00424826 0)
(0.0557014 -0.00409965 0)
(0.0564968 -0.00388086 0)
(0.0572663 -0.00359768 0)
(0.0579985 -0.00325907 0)
(0.0586829 -0.002877 0)
(0.0593096 -0.00246593 0)
(0.0598702 -0.00204198 0)
(0.060358 -0.0016217 0)
(0.0607685 -0.00122083 0)
(0.0610998 -0.000853032 0)
(0.0613531 -0.0005289 0)
(0.0615325 -0.000255356 0)
(0.0616449 -3.54741e-05 0)
(0.0616991 0.000131253 0)
(0.0617057 0.000248316 0)
(0.0616757 0.000321392 0)
(0.0616198 0.000357483 0)
(0.0615478 0.000364122 0)
(0.0614681 0.000348719 0)
(0.0613875 0.000318081 0)
(0.061311 0.000278114 0)
(0.061242 0.00023368 0)
(0.0611826 0.000188564 0)
(0.0611335 0.00014554 0)
(0.0610948 0.00010648 0)
(0.0610658 7.24919e-05 0)
(0.0610453 4.40722e-05 0)
(0.0610322 2.12479e-05 0)
(0.061025 3.71033e-06 0)
(0.0610225 -9.06956e-06 0)
(0.0610234 -1.77455e-05 0)
(0.0610266 -2.30201e-05 0)
(0.0610314 -2.55883e-05 0)
(0.0610369 -2.60975e-05 0)
(0.0610427 -2.51227e-05 0)
(0.0610483 -2.31536e-05 0)
(0.0610535 -2.05907e-05 0)
(0.0610582 -1.7748e-05 0)
(0.0610622 -1.4861e-05 0)
(0.0610656 -1.20962e-05 0)
(0.0610683 -9.56261e-06 0)
(0.0610704 -7.323e-06 0)
(0.0610721 -5.40461e-06 0)
(0.0610733 -3.80859e-06 0)
(0.0610741 -2.51807e-06 0)
(0.0610746 -1.50484e-06 0)
(0.0610749 -7.34483e-07 0)
(0.0610751 -1.70339e-07 0)
(0.0610751 2.23733e-07 0)
(0.0610751 4.81482e-07 0)
(0.061075 6.33152e-07 0)
(0.0610748 7.04926e-07 0)
(0.0610747 7.18794e-07 0)
(0.0610745 6.92703e-07 0)
(0.0610744 6.40885e-07 0)
(0.0610742 5.74299e-07 0)
(0.0610741 5.01103e-07 0)
(0.061074 4.27137e-07 0)
(0.0610739 3.56367e-07 0)
(0.0610738 2.91292e-07 0)
(0.0610738 2.33298e-07 0)
(0.0610737 1.8295e-07 0)
(0.0610737 1.40234e-07 0)
(0.0610737 1.04754e-07 0)
(0.0610737 7.5877e-08 0)
(0.0610736 5.28446e-08 0)
(0.0610736 3.48563e-08 0)
(0.0610736 2.11241e-08 0)
(0.0610736 1.09087e-08 0)
(0.0610736 3.54179e-09 0)
(0.0610736 -1.56408e-09 0)
(0.0610736 -4.91235e-09 0)
(0.0610736 -6.92522e-09 0)
(0.0610736 -7.9496e-09 0)
(0.0610736 -8.26493e-09 0)
(0.0610736 -8.09185e-09 0)
(0.0610736 -7.60101e-09 0)
(0.0610736 -6.92134e-09 0)
(0.0610736 -6.14776e-09 0)
(0.0610736 -5.34792e-09 0)
(0.0610736 -4.56809e-09 0)
(0.0610736 -3.83807e-09 0)
(0.0610736 -3.1753e-09 0)
(0.0610736 -2.5882e-09 0)
(0.0610736 -2.07878e-09 0)
(0.0610736 -1.64471e-09 0)
(0.0610736 -1.2809e-09 0)
(0.0610736 -9.80699e-10 0)
(0.0610736 -7.36708e-10 0)
(0.0610736 -5.41407e-10 0)
(0.0610736 -3.87556e-10 0)
(0.0610736 -2.6844e-10 0)
(0.0610736 -1.78009e-10 0)
(0.0610736 -1.10954e-10 0)
(0.0610736 -6.26931e-11 0)
(0.0610736 -2.93511e-11 0)
(0.0610736 -7.69548e-12 0)
(0.0610736 4.79438e-12 0)
(0.0610736 1.11573e-11 0)
(0.0610736 1.01276e-11 0)
(-0.000709912 0.00307023 0)
(-0.0021497 0.00468054 0)
(-0.00262292 0.00493893 0)
(-0.00283673 0.00454395 0)
(-0.00260842 0.00412985 0)
(-0.00226107 0.00371884 0)
(-0.00173258 0.00336705 0)
(-0.00110632 0.00305762 0)
(-0.000370348 0.00278491 0)
(0.000453758 0.00253769 0)
(0.00136856 0.00230535 0)
(0.00236948 0.00207818 0)
(0.00345855 0.00184633 0)
(0.00463639 0.00160094 0)
(0.00590542 0.00133355 0)
(0.00726773 0.00103672 0)
(0.0087258 0.000703937 0)
(0.0102819 0.000329867 0)
(0.0119383 -8.95886e-05 0)
(0.0136971 -0.000557219 0)
(0.0155602 -0.00107451 0)
(0.0175294 -0.00164168 0)
(0.0196061 -0.00225773 0)
(0.0217916 -0.00292055 0)
(0.0240866 -0.00362698 0)
(0.0264914 -0.00437294 0)
(0.0290055 -0.00515353 0)
(0.0316279 -0.0059631 0)
(0.0343563 -0.00679533 0)
(0.0371876 -0.00764335 0)
(0.0401174 -0.00849971 0)
(0.04314 -0.00935649 0)
(0.0462483 -0.0102053 0)
(0.0494336 -0.0110371 0)
(0.0526857 -0.0118427 0)
(0.0559925 -0.0126122 0)
(0.0593401 -0.0133354 0)
(0.0627126 -0.0140018 0)
(0.0660922 -0.0146006 0)
(0.0694594 -0.015121 0)
(0.0727927 -0.015552 0)
(0.076069 -0.0158828 0)
(0.079264 -0.0161029 0)
(0.0823522 -0.0162022 0)
(0.0853077 -0.016172 0)
(0.0881052 -0.0160049 0)
(0.0907205 -0.0156955 0)
(0.093132 -0.0152409 0)
(0.0953217 -0.0146412 0)
(0.0972759 -0.0138996 0)
(0.0989866 -0.013023 0)
(0.100451 -0.0120212 0)
(0.101674 -0.0109072 0)
(0.102662 -0.0096963 0)
(0.10343 -0.00840539 0)
(0.103994 -0.00705247 0)
(0.104371 -0.00565576 0)
(0.104582 -0.00423316 0)
(0.104642 -0.00280184 0)
(0.104569 -0.00137792 0)
(0.104374 2.34999e-05 0)
(0.104067 0.00138832 0)
(0.103654 0.00270321 0)
(0.103134 0.00395532 0)
(0.102506 0.005132 0)
(0.101762 0.00622051 0)
(0.100892 0.00720782 0)
(0.0998827 0.00808056 0)
(0.0987208 0.00882514 0)
(0.0973913 0.00942812 0)
(0.0958808 0.00987691 0)
(0.0941791 0.0101606 0)
(0.0922815 0.0102711 0)
(0.0901913 0.0102043 0)
(0.0879225 0.00996096 0)
(0.0855017 0.00954831 0)
(0.0829685 0.00898015 0)
(0.0803748 0.00827705 0)
(0.0777812 0.00746516 0)
(0.075252 0.00657421 0)
(0.0728487 0.00563463 0)
(0.0706244 0.00467476 0)
(0.0686193 0.00371848 0)
(0.066859 0.00278401 0)
(0.0653546 0.00188388 0)
(0.0641047 0.00102588 0)
(0.0630989 0.000214439 0)
(0.06232 -0.000547904 0)
(0.0617476 -0.00125934 0)
(0.0613595 -0.00191802 0)
(0.061133 -0.00252161 0)
(0.0610462 -0.00306718 0)
(0.0610783 -0.0035512 0)
(0.0612093 -0.00396968 0)
(0.0614208 -0.00431837 0)
(0.0616953 -0.00459294 0)
(0.062017 -0.00478929 0)
(0.0623713 -0.00490386 0)
(0.062745 -0.00493409 0)
(0.0631269 -0.0048789 0)
(0.0635073 -0.00473924 0)
(0.0638784 -0.00451862 0)
(0.0642343 -0.0042235 0)
(0.0645708 -0.00386345 0)
(0.064885 -0.00345108 0)
(0.065175 -0.00300149 0)
(0.0654396 -0.00253152 0)
(0.0656774 -0.00205869 0)
(0.0658871 -0.0016 0)
(0.0660673 -0.00117079 0)
(0.0662165 -0.00078376 0)
(0.0663338 -0.000448174 0)