/*--------------------------------*- C++ -*----------------------------------*\
| =========                 |                                                 |
| \\      /  F ield         | OpenFOAM: The Open Source CFD Toolbox           |
|  \\    /   O peration     | Version:  4.1                                   |
|   \\  /    A nd           | Web:      www.OpenFOAM.org                      |
|    \\/     M anipulation  |                                                 |
\*---------------------------------------------------------------------------*/
FoamFile
{
    version     2.0;
    format      ascii;
    class       volVectorField;
    location    "0.0405";
    object      U;
}
// * * * * * * * * * * * * * * * * * * * * * * * * * * * * * * * * * * * * * //

dimensions      [0 1 -1 0 0 0 0];

internalField   nonuniform List<vector> 
441
(
(-9.58181e-05 7.42681e-05 0)
(-0.000489073 0.000287948 0)
(-0.00111315 0.000514774 0)
(-0.00192229 0.000681363 0)
(-0.00284033 0.000768041 0)
(-0.00378307 0.000774915 0)
(-0.00467134 0.000710674 0)
(-0.00543727 0.000587783 0)
(-0.00602696 0.000420108 0)
(-0.00640124 0.000221861 0)
(-0.00653568 7.30137e-06 0)
(-0.00642065 -0.000209124 0)
(-0.00606163 -0.000412494 0)
(-0.00547992 -0.000587234 0)
(-0.00471347 -0.000717288 0)
(-0.00381717 -0.000786884 0)
(-0.00286188 -0.000782136 0)
(-0.00193094 -0.000693919 0)
(-0.00111253 -0.000522964 0)
(-0.0004851 -0.000290967 0)
(-9.40361e-05 -7.37415e-05 0)
(-0.000359395 0.000438889 0)
(-0.00160096 0.00139967 0)
(-0.00337628 0.00228956 0)
(-0.00556238 0.00292322 0)
(-0.00797711 0.00323848 0)
(-0.0104206 0.0032368 0)
(-0.0127035 0.00295201 0)
(-0.0146619 0.00243322 0)
(-0.0161647 0.00173551 0)
(-0.0171164 0.000915581 0)
(-0.0174574 3.04237e-05 0)
(-0.0171642 -0.000862193 0)
(-0.0162506 -0.00170262 0)
(-0.0147691 -0.00242865 0)
(-0.012812 -0.00297626 0)
(-0.0105124 -0.00328276 0)
(-0.00804042 -0.00329335 0)
(-0.0055948 -0.00297238 0)
(-0.00338459 -0.00232159 0)
(-0.00159772 -0.00141118 0)
(-0.000357089 -0.000437202 0)
(-0.000659172 0.00107439 0)
(-0.00276623 0.00313127 0)
(-0.00561646 0.00488582 0)
(-0.0090112 0.00608895 0)
(-0.0126868 0.0066556 0)
(-0.0163606 0.00659938 0)
(-0.0197662 0.00598911 0)
(-0.0226734 0.00492119 0)
(-0.0248976 0.00350333 0)
(-0.0263043 0.00184634 0)
(-0.0268094 6.16566e-05 0)
(-0.02638 -0.00173778 0)
(-0.0250349 -0.0034354 0)
(-0.0228472 -0.00490968 0)
(-0.0199466 -0.00603553 0)
(-0.0165192 -0.00669032 0)
(-0.0128039 -0.00676615 0)
(-0.00908041 -0.00619002 0)
(-0.00564496 -0.00495391 0)
(-0.00277089 -0.00315812 0)
(-0.000658317 -0.00107305 0)
(-0.000953218 0.00198546 0)
(-0.00390392 0.00549305 0)
(-0.00777599 0.00831011 0)
(-0.012288 0.0101698 0)
(-0.0170975 0.0109922 0)
(-0.0218517 0.0108211 0)
(-0.0262246 0.00977426 0)
(-0.0299377 0.00800697 0)
(-0.0327699 0.00568993 0)
(-0.0345604 0.00299751 0)
(-0.0352086 0.000104323 0)
(-0.0346743 -0.00281302 0)
(-0.0329783 -0.00557219 0)
(-0.0302057 -0.00798257 0)
(-0.0265092 -0.00984704 0)
(-0.022111 -0.0109706 0)
(-0.0173001 -0.0111786 0)
(-0.0124198 -0.010345 0)
(-0.00784262 -0.00843337 0)
(-0.00392601 -0.00554698 0)
(-0.000956176 -0.00198756 0)
(-0.0012395 0.0031701 0)
(-0.00501771 0.00848828 0)
(-0.00988709 0.0125705 0)
(-0.015476 0.0151689 0)
(-0.0213595 0.0162398 0)
(-0.0271178 0.015882 0)
(-0.032374 0.0142804 0)
(-0.0368132 0.0116635 0)
(-0.0401893 0.00827536 0)
(-0.042325 0.00436159 0)
(-0.0431094 0.000165802 0)
(-0.0424963 -0.00406657 0)
(-0.0405051 -0.00808188 0)
(-0.0372249 -0.0116134 0)
(-0.0328203 -0.0143821 0)
(-0.0275369 -0.0161075 0)
(-0.0217018 -0.0165309 0)
(-0.0157144 -0.015452 0)
(-0.010022 -0.0127797 0)
(-0.00507312 -0.0085896 0)
(-0.0012502 -0.00318192 0)
(-0.00152646 0.00463123 0)
(-0.00613976 0.0121283 0)
(-0.0120119 0.0176833 0)
(-0.0186725 0.0210986 0)
(-0.0256085 0.022401 0)
(-0.0323335 0.0217734 0)
(-0.0384256 0.0194914 0)
(-0.0435425 0.0158733 0)
(-0.0474232 0.0112475 0)
(-0.0498823 0.00593682 0)
(-0.0508038 0.000257024 0)
(-0.050137 -0.00547604 0)
(-0.047896 -0.0109353 0)
(-0.0441665 -0.0157733 0)
(-0.0391142 -0.0196205 0)
(-0.0329965 -0.0220962 0)
(-0.0261688 -0.0228366 0)
(-0.019082 -0.0215393 0)
(-0.0122603 -0.0180259 0)
(-0.00625293 -0.0123106 0)
(-0.001551 -0.00466451 0)
(-0.0018235 0.00638124 0)
(-0.00730427 0.0164395 0)
(-0.0142078 0.0236768 0)
(-0.0219538 0.0279792 0)
(-0.0299348 0.0294818 0)
(-0.0375986 0.0284873 0)
(-0.044485 0.0253902 0)
(-0.0502346 0.0206177 0)
(-0.0545824 0.0145935 0)
(-0.0573448 0.00772231 0)
(-0.0584065 0.000391726 0)
(-0.0577134 -0.00701435 0)
(-0.0552711 -0.0140973 0)
(-0.051153 -0.0204275 0)
(-0.0455142 -0.0255375 0)
(-0.0386104 -0.028931 0)
(-0.0308138 -0.0301133 0)
(-0.0226198 -0.028646 0)
(-0.0146315 -0.0242222 0)
(-0.00750926 -0.0167547 0)
(-0.0018705 -0.00645594 0)
(-0.00213712 0.00844123 0)
(-0.00853395 0.0214598 0)
(-0.0165066 0.0305843 0)
(-0.0253494 0.0358256 0)
(-0.0343547 0.0374748 0)
(-0.0429086 0.0359971 0)
(-0.0505231 0.0319392 0)
(-0.0568363 0.0258592 0)
(-0.0615939 0.0182869 0)
(-0.0646259 0.00971048 0)
(-0.0658261 0.00058516 0)
(-0.0651392 -0.00864443 0)
(-0.0625586 -0.0175151 0)
(-0.0581356 -0.0255181 0)
(-0.052 -0.0320835 0)
(-0.0443876 -0.0365836 0)
(-0.0356702 -0.0383642 0)
(-0.0263755 -0.0368078 0)
(-0.0171827 -0.0314281 0)
(-0.00887472 -0.0219835 0)
(-0.0022179 -0.00858849 0)
(-0.00246865 0.0108377 0)
(-0.00983129 0.0272294 0)
(-0.0188982 0.0384288 0)
(-0.0288191 0.0446281 0)
(-0.0387827 0.0463353 0)
(-0.0481226 0.0442322 0)
(-0.0563415 0.0390567 0)
(-0.0630958 0.0315215 0)
(-0.0681622 0.0222718 0)
(-0.0714008 0.0118777 0)
(-0.0727254 0.000851906 0)
(-0.0720835 -0.0103138 0)
(-0.0694529 -0.0211052 0)
(-0.0648515 -0.0309442 0)
(-0.058365 -0.0391584 0)
(-0.0501855 -0.0449753 0)
(-0.0406578 -0.0475494 0)
(-0.0303198 -0.0460333 0)
(-0.0199162 -0.0396943 0)
(-0.0103607 -0.0280651 0)
(-0.00259705 -0.0111028 0)
(-0.00281215 0.013598 0)
(-0.0111706 0.0337771 0)
(-0.021315 0.0472008 0)
(-0.0322292 0.0543229 0)
(-0.0429995 0.0559495 0)
(-0.0529264 0.0530457 0)
(-0.0615313 0.0465866 0)
(-0.0685193 0.037464 0)
(-0.0737252 0.0264448 0)
(-0.0770612 0.0141729 0)
(-0.0784745 0.00120244 0)
(-0.0779223 -0.0119494 0)
(-0.0753639 -0.0247398 0)
(-0.0707723 -0.0365391 0)
(-0.0641665 -0.0465813 0)
(-0.0556631 -0.0539406 0)
(-0.0455424 -0.0575486 0)
(-0.0343157 -0.0562687 0)
(-0.0227691 -0.0490359 0)
(-0.0119473 -0.0350575 0)
(-0.00300408 -0.0140427 0)
(-0.0031518 0.0167435 0)
(-0.0124883 0.0411015 0)
(-0.023613 0.0568286 0)
(-0.0353232 0.0647552 0)
(-0.0466142 0.0660941 0)
(-0.0567875 0.0621762 0)
(-0.0654254 0.0542656 0)
(-0.0723228 0.0434554 0)
(-0.0774072 0.0306344 0)
(-0.0806677 0.0165053 0)
(-0.0821032 0.00163822 0)
(-0.0816886 -0.0134545 0)
(-0.0793645 -0.0282337 0)
(-0.0750475 -0.0420476 0)
(-0.0686663 -0.0540568 0)
(-0.0602241 -0.0631847 0)
(-0.0498855 -0.0681135 0)
(-0.0380797 -0.0673517 0)
(-0.0255877 -0.0593947 0)
(-0.0135711 -0.0429853 0)
(-0.00342401 -0.0174475 0)
(-0.00345766 0.0202828 0)
(-0.0136678 0.0491473 0)
(-0.0255431 0.0671398 0)
(-0.0376797 0.0756323 0)
(-0.0490127 0.0763886 0)
(-0.0589 0.0712053 0)
(-0.0670446 0.0616881 0)
(-0.0733825 0.0491471 0)
(-0.0779726 0.034583 0)
(-0.0809093 0.0187317 0)
(-0.0822604 0.0021454 0)
(-0.0820293 -0.0147083 0)
(-0.0801406 -0.0313361 0)
(-0.0764475 -0.0471063 0)
(-0.0707673 -0.0611424 0)
(-0.0629487 -0.0722369 0)
(-0.0529792 -0.0788103 0)
(-0.0411268 -0.0789519 0)
(-0.0280904 -0.0705879 0)
(-0.0151046 -0.051808 0)
(-0.00382561 -0.0213426 0)
(-0.00367805 0.0242018 0)
(-0.0145126 0.0577736 0)
(-0.0267032 0.0778111 0)
(-0.0386479 0.0864658 0)
(-0.0492845 0.0862415 0)
(-0.058113 0.0795137 0)
(-0.0650345 0.0682754 0)
(-0.0701841 0.0540533 0)
(-0.0737904 0.0379339 0)
(-0.0760759 0.0206485 0)
(-0.0771917 0.00268791 0)
(-0.0771802 -0.0155712 0)
(-0.075957 -0.0337313 0)
(-0.0733138 -0.0512355 0)
(-0.068945 -0.0672252 0)
(-0.062512 -0.080408 0)
(-0.0537585 -0.0889576 0)
(-0.0426912 -0.0904972 0)
(-0.029808 -0.0822412 0)
(-0.0163241 -0.0613759 0)
(-0.00415235 -0.0257257 0)
(-0.00372456 0.0284495 0)
(-0.0146948 0.0667104 0)
(-0.0264517 0.088301 0)
(-0.0372376 0.0965011 0)
(-0.0461098 0.0947937 0)
(-0.0528311 0.0862464 0)
(-0.0575914 0.07326 0)
(-0.0607783 0.0575481 0)
(-0.0628143 0.0402335 0)
(-0.0640583 0.0219913 0)
(-0.0647489 0.00320165 0)
(-0.0649732 -0.0158969 0)
(-0.0646509 -0.035055 0)
(-0.0635273 -0.0538515 0)
(-0.0611848 -0.0715204 0)
(-0.0570864 -0.0867631 0)
(-0.0506808 -0.097568 0)
(-0.0416023 -0.10109 0)
(-0.0299827 -0.0936998 0)
(-0.0168496 -0.0713675 0)
(-0.00430572 -0.0305466 0)
(-0.00344066 0.0329145 0)
(-0.0136488 0.0754885 0)
(-0.0237404 0.0977551 0)
(-0.0319279 0.104634 0)
(-0.0375805 0.100869 0)
(-0.0408763 0.0903004 0)
(-0.0423767 0.0757017 0)
(-0.0427462 0.0588947 0)
(-0.0425926 0.0409598 0)
(-0.04239 0.0224519 0)
(-0.0424475 0.00359347 0)
(-0.042895 -0.0155547 0)
(-0.0436722 -0.0349332 0)
(-0.0445129 -0.0543154 0)
(-0.0449319 -0.0731123 0)
(-0.0442301 -0.0901345 0)
(-0.0415565 -0.103313 0)
(-0.0360866 -0.109419 0)
(-0.0273888 -0.103912 0)
(-0.0160295 -0.081197 0)
(-0.00411234 -0.0356749 0)
(-0.00253221 0.0373785 0)
(-0.0103414 0.0833228 0)
(-0.0167867 0.10487 0)
(-0.020326 0.10932 0)
(-0.0209173 0.102956 0)
(-0.0192971 0.0903676 0)
(-0.0164227 0.0745633 0)
(-0.0131909 0.0573287 0)
(-0.0103244 0.0395926 0)
(-0.00834695 0.0217228 0)
(-0.00759217 0.00375017 0)
(-0.00821581 -0.0144589 0)
(-0.0101945 -0.0330513 0)
(-0.0133044 -0.0520313 0)
(-0.0170808 -0.0710649 0)
(-0.0207712 -0.0892116 0)
(-0.0233175 -0.104549 0)
(-0.0234464 -0.113689 0)
(-0.0199997 -0.111283 0)
(-0.0127036 -0.0898671 0)
(-0.00325354 -0.0408417 0)
(-0.000394291 0.0414026 0)
(-0.00275371 0.0888826 0)
(-0.00241829 0.107691 0)
(0.0014259 0.108507 0)
(0.00795471 0.0992723 0)
(0.0158665 0.0850813 0)
(0.0239397 0.0688858 0)
(0.0312152 0.0522204 0)
(0.0370099 0.0357403 0)
(0.0408692 0.0195764 0)
(0.0425117 0.00356419 0)
(0.0417899 -0.0126022 0)
(0.0386784 -0.0292502 0)
(0.033295 -0.046606 0)
(0.0259578 -0.0646301 0)
(0.0172792 -0.0827584 0)
(0.00827855 -0.0994764 0)
(0.000452626 -0.111638 0)
(-0.00435972 -0.113497 0)
(-0.00468555 -0.0957173 0)
(-0.00109331 -0.0455127 0)
(0.00438339 0.044089 0)
(0.0133562 0.0899012 0)
(0.0252389 0.1034 0)
(0.0396323 0.0997053 0)
(0.0549694 0.0880366 0)
(0.0697983 0.0733573 0)
(0.0830578 0.0581095 0)
(0.0940613 0.0433366 0)
(0.1024 0.0293298 0)
(0.107841 0.015982 0)
(0.110245 0.00298019 0)
(0.109518 -0.0100839 0)
(0.105588 -0.023639 0)
(0.0984152 -0.0380617 0)
(0.0880447 -0.0535688 0)
(0.0747018 -0.0700228 0)
(0.0589578 -0.0865481 0)
(0.0419555 -0.100776 0)
(0.0256166 -0.107436 0)
(0.0124426 -0.096043 0)
(0.00381683 -0.048627 0)
(0.015933 0.0432219 0)
(0.0475655 0.082127 0)
(0.0772641 0.0880684 0)
(0.104437 0.0803955 0)
(0.128428 0.0681136 0)
(0.148878 0.0550115 0)
(0.16566 0.0425598 0)
(0.178796 0.0311814 0)
(0.18838 0.0208281 0)
(0.194513 0.0112389 0)
(0.19726 0.00205684 0)
(0.196613 -0.00711552 0)
(0.192473 -0.0166869 0)
(0.184647 -0.0270512 0)
(0.172854 -0.038544 0)
(0.156756 -0.0513464 0)
(0.136039 -0.0652519 0)
(0.11058 -0.0790838 0)
(0.0808237 -0.0892587 0)
(0.0483035 -0.0862173 0)
(0.0156551 -0.0477514 0)
(0.0496262 0.0349297 0)
(0.123021 0.0597922 0)
(0.174501 0.0583215 0)
(0.211272 0.0499483 0)
(0.238861 0.0405611 0)
(0.259935 0.0317968 0)
(0.275994 0.0240668 0)
(0.287939 0.017338 0)
(0.296359 0.0114193 0)
(0.301635 0.00606516 0)
(0.303989 0.00101273 0)
(0.303488 -0.00400447 0)
(0.300047 -0.00925292 0)
(0.293406 -0.014997 0)
(0.283091 -0.0214931 0)
(0.26833 -0.0289699 0)
(0.247894 -0.0375713 0)
(0.219776 -0.0471609 0)
(0.180768 -0.056639 0)
(0.125451 -0.0606817 0)
(0.0497486 -0.038613 0)
(0.182898 0.00470026 0)
(0.296937 0.00844308 0)
(0.351141 0.0120984 0)
(0.378887 0.0119395 0)
(0.396076 0.0101734 0)
(0.407702 0.00809862 0)
(0.415922 0.0061435 0)
(0.421739 0.00440855 0)
(0.425698 0.00287704 0)
(0.428113 0.00149405 0)
(0.429156 0.000193441 0)
(0.428894 -0.00109249 0)
(0.427291 -0.00242852 0)
(0.424199 -0.00387121 0)
(0.419311 -0.00545699 0)
(0.412053 -0.00717282 0)
(0.40129 -0.00888268 0)
(0.384508 -0.0101648 0)
(0.355909 -0.00998302 0)
(0.298583 -0.00720874 0)
(0.181173 -0.00734282 0)
)
;

boundaryField
{
    movingWall
    {
        type            fixedValue;
        value           uniform (0.5 0 0);
    }
    fixedWalls
    {
        type            noSlip;
    }
    frontAndBack
    {
        type            empty;
    }
}


// ************************************************************************* //
