/*--------------------------------*- C++ -*----------------------------------*\
| =========                 |                                                 |
| \\      /  F ield         | OpenFOAM: The Open Source CFD Toolbox           |
|  \\    /   O peration     | Version:  4.1                                   |
|   \\  /    A nd           | Web:      www.OpenFOAM.org                      |
|    \\/     M anipulation  |                                                 |
\*---------------------------------------------------------------------------*/
FoamFile
{
    version     2.0;
    format      ascii;
    class       volVectorField;
    location    "805";
    object      U;
}
// * * * * * * * * * * * * * * * * * * * * * * * * * * * * * * * * * * * * * //

dimensions      [0 1 -1 0 0 0 0];

internalField   nonuniform List<vector> 
3264
(
(-2.66388e-06 -4.77855e-07 0)
(-0.000133195 3.05674e-05 0)
(-0.000389822 4.86685e-05 0)
(-0.000677082 5.10064e-05 0)
(-0.000979 5.27296e-05 0)
(-0.00128494 5.21311e-05 0)
(-0.00158956 5.34247e-05 0)
(-0.00189421 5.40581e-05 0)
(-0.00219427 5.51481e-05 0)
(-0.00249044 5.57552e-05 0)
(-0.00278012 5.6289e-05 0)
(-0.00306348 5.6504e-05 0)
(-0.00333942 5.65616e-05 0)
(-0.00360798 5.64226e-05 0)
(-0.0038688 5.61589e-05 0)
(-0.00412193 5.57812e-05 0)
(-0.00436732 5.53266e-05 0)
(-0.00460506 5.48117e-05 0)
(-0.00483521 5.42569e-05 0)
(-0.00505785 5.3675e-05 0)
(-0.00527308 5.30773e-05 0)
(-0.00548098 5.24712e-05 0)
(-0.00568161 5.1862e-05 0)
(-0.00587502 5.12526e-05 0)
(-0.0060612 5.06437e-05 0)
(-0.00624016 5.00337e-05 0)
(-0.00641182 4.94188e-05 0)
(-0.00657608 4.87932e-05 0)
(-0.00673278 4.81483e-05 0)
(-0.00688173 4.74735e-05 0)
(-0.00702265 4.67555e-05 0)
(-0.00715521 4.59783e-05 0)
(-0.00727901 4.51236e-05 0)
(-0.00739359 4.41705e-05 0)
(-0.00749841 4.3096e-05 0)
(-0.00759286 4.18749e-05 0)
(-0.00767627 4.04806e-05 0)
(-0.00774789 3.88855e-05 0)
(-0.00780692 3.70615e-05 0)
(-0.0078525 3.4981e-05 0)
(-0.00788374 3.26175e-05 0)
(-0.00789971 2.99469e-05 0)
(-0.00789944 2.69481e-05 0)
(-0.00788199 2.3604e-05 0)
(-0.00784643 1.99029e-05 0)
(-0.00779184 1.58388e-05 0)
(-0.00771736 1.14123e-05 0)
(-0.00762221 6.63142e-06 0)
(-0.00750569 1.51191e-06 0)
(-0.00736722 -3.92268e-06 0)
(-0.00720634 -9.64084e-06 0)
(-0.00702272 -1.56034e-05 0)
(-0.0068162 -2.17639e-05 0)
(-0.0065868 -2.80696e-05 0)
(-0.00633471 -3.44616e-05 0)
(-0.0060603 -4.08768e-05 0)
(-0.00576415 -4.72484e-05 0)
(-0.00544701 -5.35077e-05 0)
(-0.00510985 -5.95848e-05 0)
(-0.00475379 -6.54109e-05 0)
(-0.00438016 -7.09189e-05 0)
(-0.00399043 -7.60454e-05 0)
(-0.00358623 -8.07317e-05 0)
(-0.00316933 -8.4925e-05 0)
(-0.0027416 -8.85797e-05 0)
(-0.00230502 -9.16582e-05 0)
(-0.00186163 -9.41316e-05 0)
(-0.00141352 -9.59804e-05 0)
(-0.000962794 -9.71947e-05 0)
(-0.000511566 -9.77742e-05 0)
(-6.1915e-05 -9.77285e-05 0)
(0.000384132 -9.70762e-05 0)
(0.000824623 -9.58448e-05 0)
(0.0012577 -9.40695e-05 0)
(0.00168163 -9.17928e-05 0)
(0.0020948 -8.90628e-05 0)
(0.00249575 -8.59327e-05 0)
(0.0028832 -8.2459e-05 0)
(0.00325601 -7.87001e-05 0)
(0.00361324 -7.47158e-05 0)
(0.00395412 -7.05652e-05 0)
(0.00427805 -6.63058e-05 0)
(0.00458463 -6.19927e-05 0)
(0.0048736 -5.76774e-05 0)
(0.00514489 -5.3407e-05 0)
(0.00539857 -4.92239e-05 0)
(0.00563485 -4.51652e-05 0)
(0.00585408 -4.12624e-05 0)
(0.0060567 -3.75414e-05 0)
(0.00624327 -3.40225e-05 0)
(0.00641443 -3.07209e-05 0)
(0.00657087 -2.76467e-05 0)
(0.00671336 -2.48053e-05 0)
(0.00684269 -2.21981e-05 0)
(0.00695968 -1.98231e-05 0)
(0.00706518 -1.76748e-05 0)
(0.00716002 -1.57456e-05 0)
(0.00724503 -1.40255e-05 0)
(0.00732104 -1.25033e-05 0)
(0.00738884 -1.11664e-05 0)
(0.0074492 -1.00017e-05 0)
(0.00750286 -8.99562e-06 0)
(0.00755051 -8.13462e-06 0)
(0.0075928 -7.40526e-06 0)
(0.00763036 -6.79446e-06 0)
(0.00766375 -6.28968e-06 0)
(0.00769351 -5.87903e-06 0)
(0.00772013 -5.55129e-06 0)
(0.00774404 -5.29602e-06 0)
(0.00776566 -5.10356e-06 0)
(0.00778535 -4.96503e-06 0)
(0.00780343 -4.87234e-06 0)
(0.0078202 -4.81813e-06 0)
(0.00783592 -4.79579e-06 0)
(0.00785082 -4.79938e-06 0)
(0.00786509 -4.82361e-06 0)
(0.00787891 -4.86379e-06 0)
(0.00789242 -4.91579e-06 0)
(0.00790574 -4.97601e-06 0)
(0.00791899 -5.04129e-06 0)
(0.00793225 -5.10894e-06 0)
(0.00794558 -5.17664e-06 0)
(0.00795905 -5.24243e-06 0)
(0.00797268 -5.30468e-06 0)
(0.00798652 -5.36204e-06 0)
(0.00800057 -5.41341e-06 0)
(0.00801485 -5.45794e-06 0)
(0.00802936 -5.49497e-06 0)
(0.0080441 -5.52404e-06 0)
(0.00805905 -5.54482e-06 0)
(0.0080742 -5.55715e-06 0)
(0.00808953 -5.56096e-06 0)
(0.00810502 -5.55631e-06 0)
(0.00812065 -5.54334e-06 0)
(0.00813638 -5.52225e-06 0)
(0.00815219 -5.49334e-06 0)
(0.00816805 -5.45692e-06 0)
(0.00818394 -5.41336e-06 0)
(0.00819982 -5.36308e-06 0)
(0.00821566 -5.30649e-06 0)
(0.00823145 -5.24404e-06 0)
(0.00824714 -5.17619e-06 0)
(0.00826272 -5.1034e-06 0)
(0.00827817 -5.02613e-06 0)
(0.00829345 -4.94484e-06 0)
(0.00830854 -4.85998e-06 0)
(0.00832343 -4.77199e-06 0)
(0.0083381 -4.6813e-06 0)
(0.00835253 -4.58833e-06 0)
(0.0083667 -4.49346e-06 0)
(0.0083806 -4.39708e-06 0)
(0.00839422 -4.29956e-06 0)
(0.00840754 -4.20122e-06 0)
(0.00842056 -4.10239e-06 0)
(0.00843327 -4.00337e-06 0)
(0.00844566 -3.90443e-06 0)
(0.00845773 -3.80583e-06 0)
(0.00846948 -3.70781e-06 0)
(0.00848089 -3.61058e-06 0)
(0.00849198 -3.51434e-06 0)
(0.00850274 -3.41927e-06 0)
(0.00851317 -3.32553e-06 0)
(0.00852327 -3.23325e-06 0)
(0.00853306 -3.14256e-06 0)
(0.00854252 -3.05355e-06 0)
(0.00855167 -2.96633e-06 0)
(0.00856052 -2.88096e-06 0)
(0.00856906 -2.79749e-06 0)
(0.00857731 -2.71596e-06 0)
(0.00858528 -2.63641e-06 0)
(0.00859296 -2.55883e-06 0)
(0.00860038 -2.48322e-06 0)
(0.00860753 -2.40956e-06 0)
(0.00861443 -2.33781e-06 0)
(0.00862109 -2.26791e-06 0)
(0.00862751 -2.19978e-06 0)
(0.00863371 -2.13333e-06 0)
(0.00863969 -2.06842e-06 0)
(0.00864547 -2.00491e-06 0)
(0.00865104 -1.9426e-06 0)
(0.00865643 -1.88124e-06 0)
(0.00866163 -1.82053e-06 0)
(0.00866665 -1.76007e-06 0)
(0.0086715 -1.69935e-06 0)
(0.00867617 -1.6377e-06 0)
(0.00868068 -1.57423e-06 0)
(0.00868501 -1.50768e-06 0)
(0.00868917 -1.43646e-06 0)
(0.00869313 -1.35799e-06 0)
(0.00869688 -1.26975e-06 0)
(0.00870038 -1.16479e-06 0)
(0.0087036 -1.04336e-06 0)
(0.00870647 -8.77761e-07 0)
(0.00870882 -7.00915e-07 0)
(0.00871078 -3.90451e-07 0)
(0.00871135 -1.23268e-07 0)
(0.00871235 4.51865e-07 0)
(0.0087084 1.14069e-06 0)
(0.00870948 1.43071e-06 0)
(0.00869538 5.27181e-06 0)
(-8.33604e-05 0.000136418 0)
(-0.000582928 0.000379264 0)
(-0.00131139 0.000518337 0)
(-0.00208603 0.000562429 0)
(-0.00286575 0.000583393 0)
(-0.00363367 0.000585099 0)
(-0.00437647 0.000585029 0)
(-0.005097 0.000578317 0)
(-0.00578807 0.000569359 0)
(-0.00645186 0.000557142 0)
(-0.00708565 0.000543455 0)
(-0.00769086 0.000528479 0)
(-0.00826711 0.000512935 0)
(-0.0088155 0.000497051 0)
(-0.00933653 0.000481106 0)
(-0.0098311 0.000465222 0)
(-0.0102999 0.000449499 0)
(-0.0107437 0.000433977 0)
(-0.0111631 0.000418677 0)
(-0.0115587 0.000403592 0)
(-0.0119309 0.000388699 0)
(-0.0122801 0.000373964 0)
(-0.0126067 0.000359339 0)
(-0.0129107 0.000344766 0)
(-0.0131922 0.000330177 0)
(-0.0134512 0.000315496 0)
(-0.0136876 0.000300638 0)
(-0.013901 0.000285508 0)
(-0.0140912 0.000270004 0)
(-0.0142576 0.000254017 0)
(-0.0143997 0.000237429 0)
(-0.0145167 0.00022012 0)
(-0.0146079 0.000201964 0)
(-0.0146724 0.000182836 0)
(-0.0147092 0.00016261 0)
(-0.0147172 0.000141166 0)
(-0.0146953 0.000118388 0)
(-0.0146424 9.41744e-05 0)
(-0.0145572 6.84342e-05 0)
(-0.0144385 4.10956e-05 0)
(-0.0142853 1.21075e-05 0)
(-0.0140962 -1.8557e-05 0)
(-0.0138702 -5.08979e-05 0)
(-0.0136062 -8.48853e-05 0)
(-0.0133035 -0.000120458 0)
(-0.0129612 -0.000157522 0)
(-0.0125786 -0.000195949 0)
(-0.0121554 -0.000235579 0)
(-0.0116913 -0.00027622 0)
(-0.0111862 -0.000317647 0)
(-0.0106405 -0.00035961 0)
(-0.0100546 -0.000401832 0)
(-0.00942907 -0.000444014 0)
(-0.00876504 -0.000485842 0)
(-0.0080637 -0.000526989 0)
(-0.00732655 -0.000567119 0)
(-0.00655535 -0.000605894 0)
(-0.00575211 -0.00064298 0)
(-0.00491909 -0.000678051 0)
(-0.00405875 -0.000710794 0)
(-0.00317378 -0.000740913 0)
(-0.00226705 -0.000768138 0)
(-0.00134159 -0.000792225 0)
(-0.000400587 -0.000812963 0)
(0.000552681 -0.000830175 0)
(0.00151484 -0.000843723 0)
(0.00248247 -0.000853509 0)
(0.00345211 -0.000859477 0)
(0.00442033 -0.000861616 0)
(0.00538374 -0.000859954 0)
(0.00633898 -0.000854566 0)
(0.00728285 -0.000845565 0)
(0.00821224 -0.000833104 0)
(0.00912419 -0.000817372 0)
(0.010016 -0.000798591 0)
(0.010885 -0.00077701 0)
(0.0117289 -0.000752904 0)
(0.0125456 -0.000726567 0)
(0.0133333 -0.000698307 0)
(0.0140903 -0.000668439 0)
(0.0148153 -0.000637284 0)
(0.0155074 -0.000605161 0)
(0.0161656 -0.000572382 0)
(0.0167894 -0.000539249 0)
(0.0173787 -0.00050605 0)
(0.0179333 -0.000473053 0)
(0.0184534 -0.000440506 0)
(0.0189394 -0.000408634 0)
(0.019392 -0.000377635 0)
(0.019812 -0.000347683 0)
(0.0202002 -0.000318924 0)
(0.0205578 -0.000291479 0)
(0.020886 -0.000265443 0)
(0.021186 -0.000240884 0)
(0.0214593 -0.00021785 0)
(0.0217072 -0.000196366 0)
(0.0219314 -0.000176436 0)
(0.0221331 -0.00015805 0)
(0.0223141 -0.00014118 0)
(0.0224757 -0.000125785 0)
(0.0226194 -0.000111814 0)
(0.0227467 -9.92068e-05 0)
(0.0228591 -8.7896e-05 0)
(0.0229577 -7.78093e-05 0)
(0.023044 -6.88707e-05 0)
(0.0231192 -6.10021e-05 0)
(0.0231844 -5.41248e-05 0)
(0.0232408 -4.81603e-05 0)
(0.0232894 -4.30312e-05 0)
(0.0233311 -3.86626e-05 0)
(0.0233668 -3.49817e-05 0)
(0.0233973 -3.19192e-05 0)
(0.0234234 -2.94091e-05 0)
(0.0234458 -2.73894e-05 0)
(0.0234651 -2.58018e-05 0)
(0.0234818 -2.4592e-05 0)
(0.0234964 -2.37098e-05 0)
(0.0235094 -2.3109e-05 0)
(0.0235211 -2.27472e-05 0)
(0.0235319 -2.25857e-05 0)
(0.0235421 -2.25897e-05 0)
(0.0235519 -2.27275e-05 0)
(0.0235616 -2.29709e-05 0)
(0.0235712 -2.32946e-05 0)
(0.0235811 -2.36764e-05 0)
(0.0235912 -2.40966e-05 0)
(0.0236017 -2.45379e-05 0)
(0.0236127 -2.49856e-05 0)
(0.0236241 -2.54269e-05 0)
(0.0236361 -2.58508e-05 0)
(0.0236486 -2.62485e-05 0)
(0.0236617 -2.66122e-05 0)
(0.0236753 -2.69361e-05 0)
(0.0236894 -2.72154e-05 0)
(0.023704 -2.74464e-05 0)
(0.0237191 -2.76265e-05 0)
(0.0237345 -2.77543e-05 0)
(0.0237503 -2.78287e-05 0)
(0.0237665 -2.78497e-05 0)
(0.0237829 -2.78178e-05 0)
(0.0237995 -2.77339e-05 0)
(0.0238162 -2.75995e-05 0)
(0.0238331 -2.74165e-05 0)
(0.02385 -2.71869e-05 0)
(0.0238669 -2.69132e-05 0)
(0.0238838 -2.6598e-05 0)
(0.0239006 -2.6244e-05 0)
(0.0239172 -2.58541e-05 0)
(0.0239337 -2.54313e-05 0)
(0.0239499 -2.49785e-05 0)
(0.0239658 -2.44988e-05 0)
(0.0239815 -2.39952e-05 0)
(0.0239968 -2.34706e-05 0)
(0.0240118 -2.2928e-05 0)
(0.0240264 -2.23702e-05 0)
(0.0240405 -2.18e-05 0)
(0.0240543 -2.12202e-05 0)
(0.0240676 -2.06331e-05 0)
(0.0240804 -2.00415e-05 0)
(0.0240927 -1.94475e-05 0)
(0.0241046 -1.88535e-05 0)
(0.024116 -1.82616e-05 0)
(0.0241269 -1.76737e-05 0)
(0.0241373 -1.70918e-05 0)
(0.0241472 -1.65175e-05 0)
(0.0241567 -1.59524e-05 0)
(0.0241656 -1.5398e-05 0)
(0.0241741 -1.48557e-05 0)
(0.0241822 -1.43266e-05 0)
(0.0241897 -1.38117e-05 0)
(0.0241969 -1.3312e-05 0)
(0.0242036 -1.28283e-05 0)
(0.02421 -1.23611e-05 0)
(0.0242159 -1.1911e-05 0)
(0.0242215 -1.14782e-05 0)
(0.0242267 -1.10629e-05 0)
(0.0242316 -1.06649e-05 0)
(0.0242362 -1.02841e-05 0)
(0.0242405 -9.92002e-06 0)
(0.0242445 -9.57181e-06 0)
(0.0242483 -9.23842e-06 0)
(0.0242518 -8.91839e-06 0)
(0.0242552 -8.60978e-06 0)
(0.0242583 -8.31e-06 0)
(0.0242612 -8.01564e-06 0)
(0.024264 -7.72217e-06 0)
(0.0242666 -7.42358e-06 0)
(0.024269 -7.11165e-06 0)
(0.0242713 -6.77524e-06 0)
(0.0242733 -6.3994e-06 0)
(0.0242751 -5.9602e-06 0)
(0.0242767 -5.43847e-06 0)
(0.0242779 -4.75484e-06 0)
(0.0242786 -3.96258e-06 0)
(0.0242787 -2.68087e-06 0)
(0.0242778 -1.4783e-06 0)
(0.0242761 1.09888e-06 0)
(0.024271 3.54221e-06 0)
(0.0242682 6.31478e-06 0)
(0.0242514 1.7115e-05 0)
(-0.000178837 0.000644994 0)
(-0.00104297 0.00125403 0)
(-0.00216767 0.00153293 0)
(-0.00330482 0.00157435 0)
(-0.00439299 0.00156949 0)
(-0.00542154 0.00152619 0)
(-0.0063748 0.00148255 0)
(-0.00726384 0.00143016 0)
(-0.00808527 0.00137687 0)
(-0.00884722 0.001321 0)
(-0.00955104 0.0012651 0)
(-0.0102019 0.00120932 0)
(-0.0108021 0.00115448 0)
(-0.0113552 0.00110078 0)
(-0.0118634 0.0010484 0)
(-0.012329 0.000997367 0)
(-0.0127538 0.00094764 0)
(-0.0131395 0.00089912 0)
(-0.0134873 0.00085168 0)
(-0.0137984 0.000805166 0)
(-0.0140736 0.000759411 0)
(-0.0143136 0.000714234 0)
(-0.014519 0.000669445 0)
(-0.0146901 0.000624847 0)
(-0.014827 0.000580233 0)
(-0.0149299 0.000535391 0)
(-0.0149987 0.000490104 0)
(-0.015033 0.000444147 0)
(-0.0150326 0.000397295 0)
(-0.014997 0.000349319 0)
(-0.0149257 0.000299992 0)
(-0.0148181 0.000249091 0)
(-0.0146734 0.000196402 0)
(-0.0144909 0.00014172 0)
(-0.0142697 8.48607e-05 0)
(-0.0140092 2.5657e-05 0)
(-0.0137084 -3.60296e-05 0)
(-0.0133665 -0.000100307 0)
(-0.0129828 -0.000167247 0)
(-0.0125565 -0.00023688 0)
(-0.012087 -0.000309193 0)
(-0.0115738 -0.000384123 0)
(-0.0110163 -0.000461556 0)
(-0.0104144 -0.000541327 0)
(-0.00976787 -0.000623214 0)
(-0.00907676 -0.000706945 0)
(-0.00834131 -0.000792193 0)
(-0.00756195 -0.000878581 0)
(-0.00673934 -0.000965686 0)
(-0.00587435 -0.00105304 0)
(-0.00496809 -0.00114014 0)
(-0.00402192 -0.00122645 0)
(-0.0030374 -0.00131141 0)
(-0.00201637 -0.00139444 0)
(-0.000960877 -0.00147496 0)
(0.000126804 -0.00155236 0)
(0.00124418 -0.00162606 0)
(0.00238854 -0.0016955 0)
(0.003557 -0.00176012 0)
(0.00474649 -0.0018194 0)
(0.0059538 -0.00187287 0)
(0.00717557 -0.00192007 0)
(0.00840835 -0.00196064 0)
(0.00964859 -0.00199424 0)
(0.0108927 -0.0020206 0)
(0.012137 -0.00203954 0)
(0.0133779 -0.00205092 0)
(0.0146118 -0.0020547 0)
(0.0158351 -0.00205089 0)
(0.0170444 -0.00203959 0)
(0.0182362 -0.00202096 0)
(0.0194075 -0.00199525 0)
(0.0205551 -0.00196277 0)
(0.0216762 -0.00192388 0)
(0.022768 -0.001879 0)
(0.0238283 -0.00182861 0)
(0.0248548 -0.00177322 0)
(0.0258455 -0.0017134 0)
(0.0267988 -0.00164971 0)
(0.0277133 -0.00158275 0)
(0.0285878 -0.00151313 0)
(0.0294216 -0.00144144 0)
(0.0302139 -0.00136828 0)
(0.0309645 -0.00129423 0)
(0.0316732 -0.00121984 0)
(0.0323402 -0.00114565 0)
(0.032966 -0.00107215 0)
(0.0335509 -0.000999779 0)
(0.0340959 -0.000928964 0)
(0.0346018 -0.000860066 0)
(0.0350698 -0.000793408 0)
(0.035501 -0.000729265 0)
(0.0358969 -0.000667864 0)
(0.0362588 -0.000609388 0)
(0.0365883 -0.000553977 0)
(0.036887 -0.000501729 0)
(0.0371564 -0.000452703 0)
(0.0373983 -0.000406922 0)
(0.0376143 -0.000364377 0)
(0.0378061 -0.000325029 0)
(0.0379753 -0.000288816 0)
(0.0381236 -0.000255651 0)
(0.0382526 -0.00022543 0)
(0.0383638 -0.000198034 0)
(0.0384587 -0.000173329 0)
(0.0385387 -0.000151176 0)
(0.0386054 -0.000131426 0)
(0.0386599 -0.000113928 0)
(0.0387035 -9.85265e-05 0)
(0.0387374 -8.50686e-05 0)
(0.0387627 -7.34015e-05 0)
(0.0387805 -6.33759e-05 0)
(0.0387916 -5.48465e-05 0)
(0.0387971 -4.76735e-05 0)
(0.0387976 -4.17226e-05 0)
(0.038794 -3.68666e-05 0)
(0.0387868 -3.29849e-05 0)
(0.0387769 -2.99642e-05 0)
(0.0387646 -2.76989e-05 0)
(0.0387505 -2.60905e-05 0)
(0.038735 -2.50482e-05 0)
(0.0387186 -2.44884e-05 0)
(0.0387015 -2.43345e-05 0)
(0.0386841 -2.45168e-05 0)
(0.0386666 -2.49725e-05 0)
(0.0386492 -2.56446e-05 0)
(0.0386322 -2.64823e-05 0)
(0.0386156 -2.74405e-05 0)
(0.0385996 -2.8479e-05 0)
(0.0385842 -2.9563e-05 0)
(0.0385696 -3.06617e-05 0)
(0.0385559 -3.17489e-05 0)
(0.0385429 -3.2802e-05 0)
(0.0385308 -3.38023e-05 0)
(0.0385196 -3.47339e-05 0)
(0.0385092 -3.5584e-05 0)
(0.0384996 -3.63427e-05 0)
(0.0384907 -3.7002e-05 0)
(0.0384827 -3.75564e-05 0)
(0.0384753 -3.80022e-05 0)
(0.0384686 -3.83374e-05 0)
(0.0384625 -3.85614e-05 0)
(0.0384569 -3.86749e-05 0)
(0.0384518 -3.86798e-05 0)
(0.0384471 -3.85789e-05 0)
(0.0384429 -3.83759e-05 0)
(0.0384389 -3.80751e-05 0)
(0.0384352 -3.76814e-05 0)
(0.0384317 -3.72001e-05 0)
(0.0384283 -3.66369e-05 0)
(0.038425 -3.59979e-05 0)
(0.0384218 -3.52892e-05 0)
(0.0384186 -3.45172e-05 0)
(0.0384153 -3.36883e-05 0)
(0.038412 -3.28087e-05 0)
(0.0384085 -3.1885e-05 0)
(0.0384049 -3.09234e-05 0)
(0.0384011 -2.99302e-05 0)
(0.0383971 -2.89112e-05 0)
(0.0383929 -2.78726e-05 0)
(0.0383884 -2.68198e-05 0)
(0.0383837 -2.57585e-05 0)
(0.0383787 -2.46939e-05 0)
(0.0383734 -2.36309e-05 0)
(0.0383678 -2.25744e-05 0)
(0.0383619 -2.15289e-05 0)
(0.0383557 -2.04986e-05 0)
(0.0383492 -1.94874e-05 0)
(0.0383424 -1.84991e-05 0)
(0.0383353 -1.75368e-05 0)
(0.038328 -1.66038e-05 0)
(0.0383204 -1.57028e-05 0)
(0.0383125 -1.48361e-05 0)
(0.0383044 -1.40057e-05 0)
(0.038296 -1.32135e-05 0)
(0.0382875 -1.24607e-05 0)
(0.0382788 -1.17481e-05 0)
(0.0382699 -1.10764e-05 0)
(0.0382609 -1.04453e-05 0)
(0.0382518 -9.85433e-06 0)
(0.0382426 -9.30224e-06 0)
(0.0382333 -8.78703e-06 0)
(0.0382239 -8.30576e-06 0)
(0.0382146 -7.8544e-06 0)
(0.0382052 -7.42742e-06 0)
(0.0381959 -7.01741e-06 0)
(0.0381865 -6.61445e-06 0)
(0.0381772 -6.20501e-06 0)
(0.038168 -5.77125e-06 0)
(0.0381588 -5.28743e-06 0)
(0.0381496 -4.72089e-06 0)
(0.0381405 -4.02189e-06 0)
(0.0381313 -3.11937e-06 0)
(0.038122 -1.95303e-06 0)
(0.0381124 -2.48554e-07 0)
(0.0381026 1.75225e-06 0)
(0.038092 5.32823e-06 0)
(0.0380804 9.16551e-06 0)
(0.0380689 1.42244e-05 0)
(0.0380477 2.93959e-05 0)
(-0.000305531 0.00126148 0)
(-0.00151618 0.00231486 0)
(-0.00286986 0.00272289 0)
(-0.0041367 0.00273274 0)
(-0.00523539 0.00266048 0)
(-0.00621507 0.00253097 0)
(-0.00706189 0.00240173 0)
(-0.00780949 0.00226634 0)
(-0.00845937 0.00213577 0)
(-0.0090283 0.00200853 0)
(-0.00952152 0.0018869 0)
(-0.00994803 0.00177049 0)
(-0.0103127 0.00165937 0)
(-0.0106208 0.0015531 0)
(-0.0108761 0.00145128 0)
(-0.0110819 0.0013534 0)
(-0.0112407 0.00125899 0)
(-0.0113547 0.00116757 0)
(-0.0114258 0.00107869 0)
(-0.0114551 0.000991903 0)
(-0.011444 0.000906796 0)
(-0.0113931 0.000822967 0)
(-0.0113032 0.000740028 0)
(-0.0111748 0.000657604 0)
(-0.0110079 0.000575331 0)
(-0.0108029 0.000492855 0)
(-0.0105597 0.00040983 0)
(-0.0102781 0.00032592 0)
(-0.00995807 0.000240801 0)
(-0.0095992 0.000154158 0)
(-0.00920118 6.56972e-05 0)
(-0.00876362 -2.48611e-05 0)
(-0.00828611 -0.000117771 0)
(-0.00776822 -0.000213259 0)
(-0.00720953 -0.00031152 0)
(-0.00660964 -0.000412709 0)
(-0.00596819 -0.000516939 0)
(-0.00528489 -0.000624272 0)
(-0.00455951 -0.000734721 0)
(-0.00379193 -0.000848236 0)
(-0.00298212 -0.000964709 0)
(-0.0021302 -0.00108396 0)
(-0.0012364 -0.00120576 0)
(-0.000301129 -0.00132979 0)
(0.000675056 -0.00145568 0)
(0.00169141 -0.00158297 0)
(0.00274701 -0.00171118 0)
(0.00384074 -0.00183971 0)
(0.00497128 -0.00196797 0)
(0.00613709 -0.00209527 0)
(0.00733647 -0.00222089 0)
(0.00856747 -0.00234409 0)
(0.00982796 -0.00246409 0)
(0.0111156 -0.00258011 0)
(0.0124279 -0.00269133 0)
(0.0137621 -0.00279696 0)
(0.0151153 -0.00289623 0)
(0.0164845 -0.00298837 0)
(0.0178666 -0.00307266 0)
(0.0192582 -0.00314843 0)
(0.0206559 -0.00321505 0)
(0.0220561 -0.00327197 0)
(0.0234555 -0.00331871 0)
(0.0248503 -0.00335487 0)
(0.0262369 -0.00338013 0)
(0.0276119 -0.0033943 0)
(0.0289716 -0.00339723 0)
(0.0303126 -0.00338894 0)
(0.0316315 -0.0033695 0)
(0.0329252 -0.00333911 0)
(0.0341906 -0.00329807 0)
(0.0354247 -0.00324677 0)
(0.036625 -0.0031857 0)
(0.0377889 -0.00311544 0)
(0.0389143 -0.00303662 0)
(0.0399992 -0.00294998 0)
(0.041042 -0.00285628 0)
(0.0420412 -0.00275635 0)
(0.0429958 -0.00265103 0)
(0.0439048 -0.00254122 0)
(0.0447677 -0.00242778 0)
(0.0455843 -0.0023116 0)
(0.0463543 -0.00219354 0)
(0.0470782 -0.00207445 0)
(0.0477563 -0.00195513 0)
(0.0483892 -0.00183634 0)
(0.0489778 -0.0017188 0)
(0.0495231 -0.00160314 0)
(0.0500263 -0.00148998 0)
(0.0504888 -0.00137984 0)
(0.0509118 -0.00127317 0)
(0.0512971 -0.00117039 0)
(0.0516461 -0.00107182 0)
(0.0519606 -0.000977723 0)
(0.0522423 -0.000888314 0)
(0.0524928 -0.000803738 0)
(0.0527141 -0.000724086 0)
(0.0529077 -0.000649402 0)
(0.0530755 -0.000579682 0)
(0.0532192 -0.00051488 0)
(0.0533405 -0.000454914 0)
(0.053441 -0.000399671 0)
(0.0535223 -0.000349008 0)
(0.053586 -0.000302762 0)
(0.0536336 -0.000260749 0)
(0.0536665 -0.000222772 0)
(0.053686 -0.00018862 0)
(0.0536935 -0.000158076 0)
(0.0536901 -0.00013092 0)
(0.0536771 -0.000106927 0)
(0.0536556 -8.58739e-05 0)
(0.0536265 -6.75395e-05 0)
(0.0535907 -5.17075e-05 0)
(0.0535493 -3.81669e-05 0)
(0.053503 -2.67141e-05 0)
(0.0534525 -1.71534e-05 0)
(0.0533985 -9.29823e-06 0)
(0.0533417 -2.97124e-06 0)
(0.0532827 1.99484e-06 0)
(0.0532219 5.75714e-06 0)
(0.0531598 8.46252e-06 0)
(0.0530968 1.02475e-05 0)
(0.0530333 1.12386e-05 0)
(0.0529697 1.15521e-05 0)
(0.0529061 1.12947e-05 0)
(0.0528429 1.05638e-05 0)
(0.0527803 9.44763e-06 0)
(0.0527184 8.02594e-06 0)
(0.0526574 6.37024e-06 0)
(0.0525974 4.54439e-06 0)
(0.0525385 2.60495e-06 0)
(0.0524808 6.01747e-07 0)
(0.0524243 -1.42173e-06 0)
(0.0523691 -3.42782e-06 0)
(0.0523152 -5.38429e-06 0)
(0.0522626 -7.26386e-06 0)
(0.0522113 -9.04378e-06 0)
(0.0521613 -1.07055e-05 0)
(0.0521125 -1.22341e-05 0)
(0.052065 -1.36181e-05 0)
(0.0520187 -1.48493e-05 0)
(0.0519735 -1.59218e-05 0)
(0.0519293 -1.68324e-05 0)
(0.0518863 -1.75801e-05 0)
(0.0518442 -1.81656e-05 0)
(0.051803 -1.85913e-05 0)
(0.0517628 -1.8861e-05 0)
(0.0517233 -1.89797e-05 0)
(0.0516846 -1.89536e-05 0)
(0.0516466 -1.87896e-05 0)
(0.0516093 -1.84952e-05 0)
(0.0515726 -1.80788e-05 0)
(0.0515364 -1.75489e-05 0)
(0.0515007 -1.69145e-05 0)
(0.0514654 -1.61849e-05 0)
(0.0514306 -1.53694e-05 0)
(0.0513961 -1.44773e-05 0)
(0.051362 -1.35182e-05 0)
(0.0513281 -1.25013e-05 0)
(0.0512945 -1.14358e-05 0)
(0.0512612 -1.03309e-05 0)
(0.051228 -9.19538e-06 0)
(0.051195 -8.03777e-06 0)
(0.0511622 -6.86642e-06 0)
(0.0511296 -5.68935e-06 0)
(0.051097 -4.51421e-06 0)
(0.0510646 -3.34834e-06 0)
(0.0510323 -2.19867e-06 0)
(0.0510001 -1.07175e-06 0)
(0.050968 2.62893e-08 0)
(0.050936 1.08976e-06 0)
(0.0509041 2.11342e-06 0)
(0.0508724 3.09251e-06 0)
(0.0508407 4.02276e-06 0)
(0.0508092 4.90046e-06 0)
(0.0507778 5.72242e-06 0)
(0.0507466 6.48609e-06 0)
(0.0507155 7.18955e-06 0)
(0.0506846 7.8316e-06 0)
(0.0506539 8.41184e-06 0)
(0.0506235 8.93078e-06 0)
(0.0505933 9.38994e-06 0)
(0.0505633 9.79211e-06 0)
(0.0505336 1.01416e-05 0)
(0.0505042 1.04444e-05 0)
(0.0504752 1.07091e-05 0)
(0.0504464 1.09473e-05 0)
(0.050418 1.11745e-05 0)
(0.05039 1.14122e-05 0)
(0.0503623 1.16888e-05 0)
(0.0503351 1.2045e-05 0)
(0.0503082 1.25343e-05 0)
(0.0502817 1.32371e-05 0)
(0.0502556 1.42536e-05 0)
(0.0502298 1.57749e-05 0)
(0.0502043 1.78854e-05 0)
(0.0501789 2.1348e-05 0)
(0.0501538 2.56272e-05 0)
(0.0501289 3.19766e-05 0)
(0.050098 4.8479e-05 0)
(-0.000404971 0.00246864 0)
(-0.0017188 0.00379506 0)
(-0.00298678 0.00413975 0)
(-0.00404966 0.00388832 0)
(-0.00482665 0.00361499 0)
(-0.00542865 0.00331223 0)
(-0.0058526 0.003048 0)
(-0.0061581 0.0028012 0)
(-0.00635439 0.00257689 0)
(-0.00646766 0.00236882 0)
(-0.00650643 0.0021758 0)
(-0.0064827 0.00199536 0)
(-0.00640233 0.00182586 0)
(-0.00627144 0.00166573 0)
(-0.00609382 0.00151362 0)
(-0.00587288 0.00136834 0)
(-0.00561102 0.00122883 0)
(-0.00531024 0.00109418 0)
(-0.00497203 0.000963539 0)
(-0.00459757 0.000836167 0)
(-0.00418773 0.000711379 0)
(-0.00374316 0.000588551 0)
(-0.0032643 0.000467107 0)
(-0.00275143 0.000346507 0)
(-0.0022047 0.00022625 0)
(-0.00162414 0.000105862 0)
(-0.0010097 -1.51004e-05 0)
(-0.000361234 -0.000137056 0)
(0.000321436 -0.000260393 0)
(0.00103853 -0.000385474 0)
(0.00179031 -0.000512629 0)
(0.002577 -0.000642152 0)
(0.00339885 -0.000774303 0)
(0.00425608 -0.000909294 0)
(0.00514884 -0.00104729 0)
(0.00607726 -0.00118842 0)
(0.00704138 -0.00133272 0)
(0.00804114 -0.0014802 0)
(0.00907642 -0.00163078 0)
(0.0101469 -0.00178432 0)
(0.0112523 -0.0019406 0)
(0.0123921 -0.00209933 0)
(0.0135655 -0.00226014 0)
(0.0147718 -0.00242257 0)
(0.0160101 -0.00258611 0)
(0.017279 -0.00275014 0)
(0.0185773 -0.00291399 0)
(0.0199036 -0.00307693 0)
(0.021256 -0.00323815 0)
(0.0226328 -0.00339679 0)
(0.0240319 -0.00355196 0)
(0.0254509 -0.00370272 0)
(0.0268876 -0.00384811 0)
(0.0283392 -0.00398715 0)
(0.0298031 -0.00411886 0)
(0.0312764 -0.00424228 0)
(0.032756 -0.00435644 0)
(0.0342386 -0.00446045 0)
(0.0357212 -0.00455344 0)
(0.0372002 -0.00463461 0)
(0.0386722 -0.00470322 0)
(0.0401338 -0.00475863 0)
(0.0415815 -0.00480031 0)
(0.0430118 -0.0048278 0)
(0.0444213 -0.00484079 0)
(0.0458065 -0.00483908 0)
(0.0471642 -0.0048226 0)
(0.0484912 -0.0047914 0)
(0.0497846 -0.00474568 0)
(0.0510414 -0.00468578 0)
(0.0522591 -0.00461215 0)
(0.0534354 -0.00452538 0)
(0.054568 -0.00442617 0)
(0.055655 -0.00431533 0)
(0.056695 -0.00419377 0)
(0.0576866 -0.00406248 0)
(0.0586289 -0.00392252 0)
(0.059521 -0.003775 0)
(0.0603626 -0.00362108 0)
(0.0611535 -0.00346192 0)
(0.0618939 -0.00329871 0)
(0.0625843 -0.0031326 0)
(0.0632251 -0.00296474 0)
(0.0638175 -0.00279622 0)
(0.0643623 -0.00262809 0)
(0.0648608 -0.00246133 0)
(0.0653146 -0.00229686 0)
(0.0657251 -0.00213551 0)
(0.066094 -0.00197802 0)
(0.0664231 -0.00182507 0)
(0.0667142 -0.00167724 0)
(0.0669692 -0.001535 0)
(0.06719 -0.00139877 0)
(0.0673786 -0.00126886 0)
(0.0675368 -0.00114551 0)
(0.0676666 -0.00102888 0)
(0.0677699 -0.000919083 0)
(0.0678486 -0.000816132 0)
(0.0679044 -0.000720005 0)
(0.0679391 -0.000630622 0)
(0.0679544 -0.000547858 0)
(0.0679519 -0.000471547 0)
(0.0679332 -0.000401491 0)
(0.0678998 -0.000337462 0)
(0.0678531 -0.00027921 0)
(0.0677944 -0.000226468 0)
(0.067725 -0.000178954 0)
(0.0676461 -0.000136378 0)
(0.0675588 -9.84429e-05 0)
(0.0674641 -6.4852e-05 0)
(0.0673631 -3.53078e-05 0)
(0.0672566 -9.51659e-06 0)
(0.0671454 1.28096e-05 0)
(0.0670304 3.19513e-05 0)
(0.0669121 4.81798e-05 0)
(0.0667914 6.17563e-05 0)
(0.0666688 7.29305e-05 0)
(0.0665447 8.19401e-05 0)
(0.0664198 8.90101e-05 0)
(0.0662943 9.43526e-05 0)
(0.0661688 9.81665e-05 0)
(0.0660436 0.000100638 0)
(0.0659189 0.000101938 0)
(0.0657951 0.000102229 0)
(0.0656723 0.000101656 0)
(0.0655508 0.000100356 0)
(0.0654308 9.84505e-05 0)
(0.0653123 9.60525e-05 0)
(0.0651956 9.32631e-05 0)
(0.0650806 9.01733e-05 0)
(0.0649676 8.68646e-05 0)
(0.0648564 8.34093e-05 0)
(0.0647473 7.98714e-05 0)
(0.0646401 7.63067e-05 0)
(0.064535 7.27639e-05 0)
(0.0644318 6.92848e-05 0)
(0.0643307 6.5905e-05 0)
(0.0642315 6.26542e-05 0)
(0.0641343 5.95571e-05 0)
(0.064039 5.66334e-05 0)
(0.0639455 5.38985e-05 0)
(0.0638539 5.13641e-05 0)
(0.063764 4.90381e-05 0)
(0.0636758 4.69257e-05 0)
(0.0635893 4.50288e-05 0)
(0.0635044 4.33474e-05 0)
(0.0634211 4.18789e-05 0)
(0.0633392 4.0619e-05 0)
(0.0632588 3.9562e-05 0)
(0.0631797 3.87005e-05 0)
(0.0631019 3.80261e-05 0)
(0.0630254 3.75295e-05 0)
(0.0629501 3.72004e-05 0)
(0.0628759 3.70281e-05 0)
(0.0628028 3.70013e-05 0)
(0.0627308 3.71083e-05 0)
(0.0626597 3.73371e-05 0)
(0.0625897 3.76759e-05 0)
(0.0625205 3.81124e-05 0)
(0.0624522 3.86347e-05 0)
(0.0623847 3.92307e-05 0)
(0.0623181 3.98887e-05 0)
(0.0622522 4.05971e-05 0)
(0.062187 4.13446e-05 0)
(0.0621226 4.21202e-05 0)
(0.0620589 4.29132e-05 0)
(0.0619958 4.37135e-05 0)
(0.0619334 4.45111e-05 0)
(0.0618716 4.52968e-05 0)
(0.0618105 4.60616e-05 0)
(0.0617499 4.67972e-05 0)
(0.06169 4.74957e-05 0)
(0.0616307 4.815e-05 0)
(0.0615719 4.87533e-05 0)
(0.0615138 4.92998e-05 0)
(0.0614562 4.97841e-05 0)
(0.0613993 5.02017e-05 0)
(0.0613429 5.05488e-05 0)
(0.0612871 5.08225e-05 0)
(0.061232 5.1021e-05 0)
(0.0611775 5.11433e-05 0)
(0.0611236 5.119e-05 0)
(0.0610703 5.11627e-05 0)
(0.0610177 5.10649e-05 0)
(0.0609658 5.09023e-05 0)
(0.0609145 5.06827e-05 0)
(0.0608639 5.04173e-05 0)
(0.0608141 5.01215e-05 0)
(0.0607649 4.9816e-05 0)
(0.0607165 4.9529e-05 0)
(0.0606688 4.9299e-05 0)
(0.0606219 4.9178e-05 0)
(0.0605758 4.92425e-05 0)
(0.0605305 4.95882e-05 0)
(0.0604861 5.0381e-05 0)
(0.0604426 5.17901e-05 0)
(0.0604001 5.42953e-05 0)
(0.0603588 5.78248e-05 0)
(0.0603186 6.41149e-05 0)
(0.060277 7.80595e-05 0)
(-0.000693467 0.00309354 0)
(-0.00209163 0.0047215 0)
(-0.00255522 0.00495043 0)
(-0.00279429 0.00450336 0)
(-0.00263085 0.00403091 0)
(-0.002384 0.0035642 0)
(-0.00199194 0.00316021 0)
(-0.00153913 0.00280222 0)
(-0.00101679 0.0024858 0)
(-0.000450482 0.00220233 0)
(0.000157857 0.00194527 0)
(0.000798924 0.00170983 0)
(0.00147013 0.00149174 0)
(0.00216757 0.00128797 0)
(0.00288954 0.00109589 0)
(0.00363431 0.000913468 0)
(0.00440094 0.000738958 0)
(0.00518871 0.000570938 0)
(0.00599724 0.000408172 0)
(0.00682629 0.000249602 0)
(0.00767585 9.42938e-05 0)
(0.00854599 -5.85764e-05 0)
(0.00943689 -0.00020975 0)
(0.0103488 -0.000359898 0)
(0.0112821 -0.000509628 0)
(0.0122371 -0.000659497 0)
(0.0132141 -0.000810015 0)
(0.0142137 -0.000961645 0)
(0.0152361 -0.00111481 0)
(0.0162818 -0.00126988 0)
(0.0173511 -0.00142719 0)
(0.0184443 -0.00158703 0)
(0.0195617 -0.00174963 0)
(0.0207036 -0.00191516 0)
(0.0218699 -0.00208375 0)
(0.0230608 -0.00225545 0)
(0.0242762 -0.00243024 0)
(0.025516 -0.00260805 0)
(0.0267797 -0.00278871 0)
(0.0280671 -0.00297197 0)
(0.0293776 -0.00315752 0)
(0.0307105 -0.00334494 0)
(0.0320649 -0.00353373 0)
(0.0334398 -0.00372331 0)
(0.034834 -0.00391302 0)
(0.0362462 -0.00410211 0)
(0.0376749 -0.00428975 0)
(0.0391183 -0.00447504 0)
(0.0405746 -0.00465702 0)
(0.0420417 -0.00483468 0)
(0.0435175 -0.00500694 0)
(0.0449995 -0.0051727 0)
(0.0464852 -0.00533083 0)
(0.0479719 -0.00548019 0)
(0.0494568 -0.00561964 0)
(0.0509369 -0.00574807 0)
(0.0524091 -0.00586437 0)
(0.0538703 -0.00596751 0)
(0.0553173 -0.0060565 0)
(0.0567468 -0.00613045 0)
(0.0581555 -0.00618854 0)
(0.0595401 -0.00623007 0)
(0.0608974 -0.00625447 0)
(0.0622241 -0.0062613 0)
(0.0635173 -0.00625025 0)
(0.0647738 -0.00622118 0)
(0.065991 -0.00617411 0)
(0.0671662 -0.00610922 0)
(0.068297 -0.00602686 0)
(0.0693813 -0.00592752 0)
(0.0704173 -0.00581189 0)
(0.0714033 -0.00568079 0)
(0.072338 -0.00553517 0)
(0.0732204 -0.00537612 0)
(0.07405 -0.00520484 0)
(0.0748263 -0.00502262 0)
(0.0755493 -0.00483085 0)
(0.0762192 -0.00463092 0)
(0.0768367 -0.00442432 0)
(0.0774024 -0.00421249 0)
(0.0779175 -0.00399691 0)
(0.0783833 -0.00377901 0)
(0.0788011 -0.00356017 0)
(0.0791727 -0.00334173 0)
(0.0794997 -0.00312494 0)
(0.0797841 -0.00291095 0)
(0.080028 -0.00270085 0)