/*--------------------------------*- C++ -*----------------------------------*\
| =========                 |                                                 |
| \\      /  F ield         | OpenFOAM: The Open Source CFD Toolbox           |
|  \\    /   O peration     | Version:  4.1                                   |
|   \\  /    A nd           | Web:      www.OpenFOAM.org                      |
|    \\/     M anipulation  |                                                 |
\*---------------------------------------------------------------------------*/
FoamFile
{
    version     2.0;
    format      ascii;
    class       volScalarField;
    location    "3000";
    object      p;
}
// * * * * * * * * * * * * * * * * * * * * * * * * * * * * * * * * * * * * * //

dimensions      [1 -1 -2 0 0 0 0];

internalField   nonuniform List<scalar> 
1275
(
0.711996
0.711996
0.711995
0.711995
0.711994
0.711994
0.711993
0.711994
0.711993
0.711993
0.711993
0.711993
0.711993
0.711993
0.711993
0.711994
0.711994
0.711995
0.711996
0.711997
0.711997
0.711999
0.712
0.712001
0.712003
0.712005
0.712006
0.712008
0.712011
0.712013
0.712015
0.712018
0.712021
0.712024
0.712027
0.71203
0.712033
0.712037
0.712041
0.712045
0.712049
0.712053
0.712057
0.712062
0.712067
0.712072
0.712077
0.712082
0.712087
0.712093
0.712099
0.712105
0.712111
0.712118
0.712124
0.712131
0.712138
0.712145
0.712153
0.712161
0.712169
0.712177
0.712186
0.712195
0.712205
0.712214
0.712225
0.712236
0.712247
0.712259
0.712272
0.712286
0.712301
0.712317
0.712334
0.712353
0.712373
0.712395
0.712419
0.712445
0.712473
0.712505
0.712539
0.712576
0.712616
0.712659
0.712705
0.712755
0.712807
0.712862
0.71292
0.71298
0.713041
0.713104
0.713167
0.713229
0.713291
0.713351
0.713408
0.713462
0.713513
0.713559
0.713601
0.713638
0.71367
0.713696
0.713718
0.713734
0.713746
0.713754
0.713757
0.713756
0.713752
0.713745
0.713736
0.713724
0.713711
0.713697
0.713682
0.713666
0.71365
0.713634
0.711995
0.711995
0.711994
0.711995
0.711994
0.711995
0.711994
0.711994
0.711993
0.711994
0.711993
0.711994
0.711994
0.711994
0.711994
0.711995
0.711995
0.711996
0.711996
0.711997
0.711998
0.711999
0.712001
0.712002
0.712004
0.712005
0.712007
0.712009
0.712011
0.712013
0.712016
0.712019
0.712021
0.712024
0.712027
0.712031
0.712034
0.712038
0.712041
0.712045
0.712049
0.712053
0.712058
0.712062
0.712067
0.712072
0.712077
0.712082
0.712088
0.712094
0.712099
0.712105
0.712112
0.712118
0.712125
0.712132
0.712139
0.712146
0.712154
0.712162
0.71217
0.712178
0.712187
0.712196
0.712206
0.712216
0.712226
0.712237
0.712249
0.712261
0.712274
0.712288
0.712302
0.712318
0.712335
0.712353
0.712373
0.712395
0.712419
0.712444
0.712472
0.712503
0.712536
0.712573
0.712612
0.712654
0.7127
0.712749
0.712801
0.712856
0.712914
0.712974
0.713035
0.713097
0.71316
0.713223
0.713284
0.713344
0.713402
0.713456
0.713507
0.713553
0.713595
0.713632
0.713664
0.713691
0.713713
0.713729
0.713741
0.713748
0.713752
0.713751
0.713747
0.71374
0.713731
0.71372
0.713707
0.713693
0.713678
0.713662
0.713647
0.713631
0.711998
0.711997
0.711997
0.711997
0.711995
0.711996
0.711994
0.711995
0.711994
0.711994
0.711993
0.711994
0.711993
0.711994
0.711994
0.711994
0.711995
0.711995
0.711996
0.711997
0.711998
0.711999
0.712
0.712002
0.712003
0.712005
0.712007
0.712009
0.712011
0.712013
0.712016
0.712018
0.712021
0.712024
0.712027
0.71203
0.712034
0.712037
0.712041
0.712045
0.712049
0.712053
0.712058
0.712062
0.712067
0.712072
0.712077
0.712082
0.712088
0.712093
0.712099
0.712105
0.712112
0.712118
0.712125
0.712131
0.712139
0.712146
0.712153
0.712161
0.712169
0.712178
0.712187
0.712196
0.712205
0.712215
0.712226
0.712236
0.712248
0.71226
0.712273
0.712286
0.712301
0.712316
0.712333
0.712351
0.712371
0.712392
0.712415
0.712441
0.712468
0.712499
0.712532
0.712568
0.712607
0.712649
0.712694
0.712743
0.712795
0.71285
0.712907
0.712967
0.713028
0.713091
0.713154
0.713217
0.713278
0.713338
0.713396
0.71345
0.713501
0.713547
0.713589
0.713626
0.713657
0.713684
0.713706
0.713722
0.713734
0.713741
0.713744
0.713743
0.71374
0.713733
0.713724
0.713712
0.7137
0.713686
0.713671
0.713656
0.71364
0.713625
0.711994
0.711994
0.711993
0.711994
0.711993
0.711994
0.711993
0.711994
0.711993
0.711994
0.711994
0.711994
0.711994
0.711994
0.711994
0.711995
0.711995
0.711996
0.711996
0.711997
0.711998
0.711999
0.712
0.712002
0.712003
0.712005
0.712007
0.712009
0.712011
0.712013
0.712016
0.712018
0.712021
0.712024
0.712027
0.71203
0.712034
0.712037
0.712041
0.712045
0.712049
0.712053
0.712057
0.712062
0.712067
0.712072
0.712077
0.712082
0.712088
0.712093
0.712099
0.712105
0.712111
0.712118
0.712125
0.712131
0.712139
0.712146
0.712153
0.712161
0.712169
0.712178
0.712187
0.712196
0.712205
0.712215
0.712225
0.712236
0.712247
0.712259
0.712272
0.712285
0.7123
0.712315
0.712331
0.712349
0.712368
0.712389
0.712411
0.712436
0.712463
0.712493
0.712525
0.712561
0.712599
0.712641
0.712686
0.712735
0.712787
0.712841
0.712899
0.712958
0.713019
0.713081
0.713144
0.713206
0.713267
0.713327
0.713383
0.713437
0.713487
0.713533
0.713574
0.71361
0.713641
0.713666
0.713687
0.713703
0.713714
0.713721
0.713724
0.713723
0.713719
0.713712
0.713703
0.713693
0.71368
0.713667
0.713652
0.713638
0.713623
0.713608
0.712
0.711999
0.711997
0.711997
0.711995
0.711996
0.711994
0.711994
0.711993
0.711993
0.711992
0.711993
0.711992
0.711993
0.711993
0.711993
0.711994
0.711994
0.711995
0.711996
0.711997
0.711998
0.711999
0.712001
0.712002
0.712004
0.712006
0.712008
0.71201
0.712012
0.712015
0.712017
0.71202
0.712023
0.712026
0.71203
0.712033
0.712037
0.71204
0.712044
0.712048
0.712053
0.712057
0.712062
0.712066
0.712071
0.712076
0.712082
0.712087
0.712093
0.712099
0.712105
0.712111
0.712117
0.712124
0.712131
0.712138
0.712145
0.712153
0.712161
0.712169
0.712177
0.712186
0.712195
0.712204
0.712214
0.712224
0.712234
0.712246
0.712257
0.71227
0.712283
0.712297
0.712312
0.712328
0.712346
0.712365
0.712385
0.712408
0.712433
0.71246
0.712489
0.712522
0.712557
0.712596
0.712637
0.712683
0.712731
0.712782
0.712837
0.712894
0.712953
0.713013
0.713074
0.713136
0.713197
0.713256
0.713314
0.713369
0.713421
0.713469
0.713513
0.713552
0.713586
0.713615
0.71364
0.713659
0.713673
0.713683
0.713689
0.713691
0.71369
0.713686
0.713679
0.713671
0.71366
0.713648
0.713636
0.713622
0.713609
0.713595
0.713581
0.711988
0.71199
0.711988
0.711992
0.71199
0.711993
0.711991
0.711993
0.711991
0.711993
0.711992
0.711992
0.711992
0.711993
0.711993
0.711993
0.711993
0.711994
0.711995
0.711996
0.711997
0.711998
0.711999
0.712
0.712002
0.712004
0.712005
0.712007
0.71201
0.712012
0.712014
0.712017
0.71202
0.712023
0.712026
0.712029
0.712032
0.712036
0.71204
0.712044
0.712048
0.712052
0.712056
0.712061
0.712066
0.712071
0.712076
0.712081
0.712087
0.712092
0.712098
0.712104
0.71211
0.712117
0.712123
0.71213
0.712137
0.712145
0.712152
0.71216
0.712168
0.712176
0.712185
0.712194
0.712203
0.712213
0.712223
0.712233
0.712244
0.712256
0.712268
0.712282
0.712296
0.712311
0.712327
0.712344
0.712363
0.712384
0.712406
0.712431
0.712458
0.712488
0.71252
0.712556
0.712594
0.712636
0.712681
0.712729
0.71278
0.712834
0.71289
0.712947
0.713006
0.713066
0.713125
0.713184
0.713241
0.713296
0.713348
0.713397
0.713441
0.713482
0.713518
0.713549
0.713575
0.713597
0.713614
0.713626
0.713635
0.713639
0.713641
0.713639
0.713634
0.713628
0.71362
0.71361
0.713599
0.713588
0.713576
0.713564
0.713552
0.71354
0.711999
0.711999
0.711995
0.711996
0.711992
0.711993
0.71199
0.711991
0.711989
0.71199
0.711989
0.71199
0.711989
0.71199
0.71199
0.711991
0.711991
0.711992
0.711993
0.711994
0.711995
0.711996
0.711998
0.711999
0.712001
0.712002
0.712004
0.712006
0.712009
0.712011
0.712013
0.712016
0.712019
0.712022
0.712025
0.712028
0.712032
0.712035
0.712039
0.712043
0.712047
0.712051
0.712056
0.71206
0.712065
0.71207
0.712075
0.712081
0.712086
0.712092
0.712097
0.712104
0.71211
0.712116
0.712123
0.71213
0.712137
0.712144
0.712151
0.712159
0.712167
0.712175
0.712184
0.712193
0.712202
0.712212
0.712222
0.712233
0.712244
0.712256
0.712268
0.712281
0.712296
0.712311
0.712327
0.712345
0.712365
0.712386
0.712409
0.712434
0.712462
0.712492
0.712525
0.712561
0.712599
0.712641
0.712686
0.712734
0.712784
0.712836
0.71289
0.712946
0.713002
0.713059
0.713115
0.71317
0.713223
0.713274
0.713321
0.713365
0.713406
0.713441
0.713473
0.7135
0.713522
0.71354
0.713554
0.713564
0.71357
0.713573
0.713573
0.713571
0.713567
0.71356
0.713553
0.713544
0.713535
0.713526
0.713516
0.713506
0.713496
0.713487
0.711968
0.711982
0.711976
0.711987
0.711983
0.711989
0.711987
0.71199
0.711989
0.711991
0.71199
0.711991
0.71199
0.711991
0.711991
0.711992
0.711992
0.711993
0.711993
0.711994
0.711995
0.711997
0.711998
0.711999
0.712001
0.712002
0.712004
0.712006
0.712009
0.712011
0.712013
0.712016
0.712019
0.712022
0.712025
0.712028
0.712032
0.712035
0.712039
0.712043
0.712047
0.712051
0.712056
0.71206
0.712065
0.71207
0.712075
0.71208
0.712086
0.712092
0.712097
0.712103
0.71211
0.712116
0.712123
0.71213
0.712137
0.712144
0.712152
0.712159
0.712167
0.712176
0.712185
0.712194
0.712203
0.712213
0.712224
0.712235
0.712246
0.712258
0.712271
0.712285
0.7123
0.712316
0.712333
0.712351
0.712372
0.712394
0.712417
0.712444
0.712472
0.712503
0.712536
0.712572
0.712611
0.712653
0.712697
0.712744
0.712792
0.712843
0.712894
0.712947
0.713
0.713052
0.713103
0.713153
0.7132
0.713245
0.713287
0.713325
0.713359
0.713389
0.713415
0.713437
0.713454
0.713468
0.713479
0.713486
0.71349
0.713492
0.713491
0.713488
0.713484
0.713479
0.713473
0.713466
0.713459
0.713452
0.713444
0.713437
0.713431
0.713424
0.711992
0.711999
0.711991
0.711993
0.711988
0.711989
0.711987
0.711988
0.711986
0.711988
0.711987
0.711988
0.711988
0.711989
0.711989
0.71199
0.71199
0.711991
0.711992
0.711993
0.711994
0.711996
0.711997
0.711999
0.712
0.712002
0.712004
0.712006
0.712008
0.712011
0.712013
0.712016
0.712019
0.712022
0.712025
0.712028
0.712032
0.712035
0.712039
0.712043
0.712047
0.712052
0.712056
0.712061
0.712066
0.71207
0.712076
0.712081
0.712087
0.712092
0.712098
0.712104
0.712111
0.712117
0.712124
0.712131
0.712138
0.712146
0.712154
0.712162
0.71217
0.712179
0.712188
0.712198
0.712208
0.712218
0.712229
0.712241
0.712253
0.712267
0.71228
0.712295
0.712311
0.712328
0.712347
0.712367
0.712388
0.712411
0.712437
0.712464
0.712493
0.712525
0.712559
0.712596
0.712634
0.712675
0.712718
0.712763
0.712809
0.712857
0.712905
0.712953
0.713
0.713047
0.713092
0.713135
0.713175
0.713213
0.713247
0.713278
0.713306
0.713329
0.713349
0.713365
0.713378
0.713388
0.713395
0.7134
0.713402
0.713403
0.713402
0.7134
0.713397
0.713393
0.713389
0.713384
0.71338
0.713375
0.713371
0.713367
0.713364
0.71336
0.711889
0.71197
0.711965
0.711989
0.711984
0.711993
0.71199
0.711993
0.711991
0.711993
0.711992
0.711993
0.711992
0.711993
0.711992
0.711993
0.711993
0.711994
0.711994
0.711995
0.711996
0.711997
0.711999
0.712
0.712002
0.712003
0.712005
0.712007
0.712009
0.712012
0.712014
0.712017
0.71202
0.712023
0.712026
0.712029
0.712033
0.712036
0.71204
0.712044
0.712048
0.712053
0.712057
0.712062
0.712067
0.712073
0.712077
0.712083
0.712089
0.712095
0.712101
0.712107
0.712114
0.712121
0.712128
0.712136
0.712143
0.712151
0.71216
0.712169
0.712178
0.712187
0.712197
0.712208
0.712219
0.71223
0.712243
0.712256
0.712269
0.712284
0.712299
0.712316
0.712333
0.712352
0.712372
0.712394
0.712417
0.712442
0.712469
0.712497
0.712528
0.71256
0.712594
0.712631
0.712669
0.712708
0.712749
0.712791
0.712834
0.712877
0.71292
0.712962
0.713003
0.713042
0.71308
0.713115
0.713148
0.713178
0.713204
0.713228
0.713248
0.713266
0.71328
0.713291
0.7133
0.713307
0.713312
0.713315
0.713316
0.713317
0.713316
0.713315
0.713313
0.713312
0.71331
0.713308
0.713306
0.713305
0.713304
0.713303
0.713303
0.713303
0.712247
0.712205
0.712198
0.712157
0.712144
0.712101
0.712086
0.712034
0.712024
0.711952
0.711969
0.711996
0.711989
0.711995
0.711989
0.711992
0.711989
0.71199
0.711989
0.71199
0.711989
0.71199
0.71199
0.711991
0.711991
0.711992
0.711992
0.711993
0.711994
0.711995
0.711996
0.711998
0.711999
0.712
0.712002
0.712004
0.712006
0.712008
0.71201
0.712013
0.712015
0.712018
0.712021
0.712024
0.712028
0.712031
0.712035
0.712039
0.712043
0.712047
0.712051
0.712056
0.712061
0.712066
0.712071
)
;

boundaryField
{
    inlet
    {
        type            zeroGradient;
    }
    outlet
    {
        type            fixedValue;
        value           nonuniform 0();
    }
    walls
    {
        type            zeroGradient;
    }
    symwall
    {
        type            empty;
    }
    procBoundary0to1
    {
        type            processor;
        value           nonuniform List<scalar> 10(0.713618 0.713615 0.713609 0.713594 0.713568 0.713529 0.713478 0.713419 0.713358 0.713304);
    }
    procBoundary0to2
    {
        type            processor;
        value           nonuniform List<scalar> 
133
(
0.712076
0.712082
0.712088
0.712094
0.712101
0.712108
0.712115
0.712122
0.71213
0.712137
0.712146
0.712154
0.712164
0.712173
0.712183
0.712193
0.712204
0.712216
0.712228
0.71224
0.712254
0.712268
0.712282
0.712298
0.712315
0.712332
0.712351
0.71237
0.712391
0.712414
0.712437
0.712462
0.712489
0.712517
0.712547
0.712578
0.71261
0.712644
0.712679
0.712716
0.712753
0.71279
0.712828
0.712866
0.712903
0.71294
0.712975
0.713009
0.713041
0.713071
0.713098
0.713123
0.713145
0.713165
0.713181
0.713196
0.713208
0.713217
0.713225
0.713231
0.713236
0.713239
0.713241
0.713243
0.713244
0.713245
0.713246
0.713246
0.713247
0.713247
0.713248
0.713249
0.713251
0.713252
0.713254
0.713256
0.713259
0.712256
0.712208
0.712201
0.712159
0.712146
0.712102
0.712086
0.712036
0.71202
0.711952
0.711928
0.711979
0.711972
0.711995
0.711989
0.711998
0.711994
0.711998
0.711995
0.711997
0.711995
0.711996
0.711995
0.711995
0.711995
0.711995
0.711995
0.711996
0.711996
0.711997
0.711998
0.711999
0.712001
0.712002
0.712004
0.712006
0.712008
0.71201
0.712012
0.712015
0.712018
0.712021
0.712024
0.712027
0.712031
0.712034
0.712038
0.712042
0.712047
0.712052
0.712056
0.712062
0.712067
0.712073
0.712076
0.712077
)
;
    }
}


// ************************************************************************* //
