/*--------------------------------*- C++ -*----------------------------------*\
| =========                 |                                                 |
| \\      /  F ield         | OpenFOAM: The Open Source CFD Toolbox           |
|  \\    /   O peration     | Version:  4.1                                   |
|   \\  /    A nd           | Web:      www.OpenFOAM.org                      |
|    \\/     M anipulation  |                                                 |
\*---------------------------------------------------------------------------*/
FoamFile
{
    version     2.0;
    format      ascii;
    class       volVectorField;
    location    "0.0018";
    object      U;
}
// * * * * * * * * * * * * * * * * * * * * * * * * * * * * * * * * * * * * * //

dimensions      [0 1 -1 0 0 0 0];

internalField   nonuniform List<vector> 
441
(
(-6.64494e-05 6.67014e-05 0)
(-0.000232912 8.76605e-05 0)
(-0.000391778 8.92544e-05 0)
(-0.000540348 8.39652e-05 0)
(-0.000675777 7.57949e-05 0)
(-0.00079547 6.57709e-05 0)
(-0.000896946 5.43154e-05 0)
(-0.000978108 4.17361e-05 0)
(-0.00103731 2.832e-05 0)
(-0.00107337 1.43472e-05 0)
(-0.0010856 9.24198e-08 0)
(-0.00107373 -1.41721e-05 0)
(-0.00103798 -2.81736e-05 0)
(-0.000979043 -4.1635e-05 0)
(-0.000898062 -5.42727e-05 0)
(-0.000796667 -6.57948e-05 0)
(-0.00067695 -7.58879e-05 0)
(-0.000541388 -8.41228e-05 0)
(-0.000392589 -8.94639e-05 0)
(-0.000233417 -8.78939e-05 0)
(-6.66013e-05 -6.68918e-05 0)
(-9.17037e-05 0.000235903 0)
(-0.000345874 0.000333867 0)
(-0.000585325 0.000338021 0)
(-0.000807931 0.000316971 0)
(-0.00101015 0.000285787 0)
(-0.00118859 0.000247881 0)
(-0.00133971 0.000204661 0)
(-0.00146049 0.000157237 0)
(-0.00154853 0.00010668 0)
(-0.00160214 5.40393e-05 0)
(-0.00162029 3.44088e-07 0)
(-0.00160263 -5.33866e-05 0)
(-0.00154947 -0.000106131 0)
(-0.0014618 -0.000156853 0)
(-0.00134127 -0.000204488 0)
(-0.00119027 -0.000247951 0)
(-0.0010118 -0.000286108 0)
(-0.000809393 -0.000317528 0)
(-0.000586465 -0.000338769 0)
(-0.00034658 -0.000334705 0)
(-9.18971e-05 -0.000236556 0)
(-0.000102094 0.000409038 0)
(-0.000383007 0.000582458 0)
(-0.000647523 0.00058912 0)
(-0.000893406 0.000551959 0)
(-0.00111651 0.000497338 0)
(-0.00131312 0.000431148 0)
(-0.00147942 0.00035581 0)
(-0.00161216 0.000273258 0)
(-0.00170884 0.000185345 0)
(-0.00176768 9.38765e-05 0)
(-0.00178761 6.11465e-07 0)
(-0.00176827 -9.27161e-05 0)
(-0.00170997 -0.000184368 0)
(-0.00161374 -0.000272572 0)
(-0.0014813 -0.000355499 0)
(-0.00131515 -0.000431268 0)
(-0.00111851 -0.000497907 0)
(-0.00089518 -0.000552951 0)
(-0.000648909 -0.000590454 0)
(-0.000383867 -0.000583955 0)
(-0.000102331 -0.000410201 0)
(-0.000110292 0.0005909 0)
(-0.000412594 0.000842028 0)
(-0.00069694 0.000851245 0)
(-0.000960975 0.000797032 0)
(-0.00120013 0.000717638 0)
(-0.00141045 0.000621667 0)
(-0.00158798 0.000512681 0)
(-0.00172943 0.000393501 0)
(-0.0018323 0.000266792 0)
(-0.00189485 0.000135113 0)
(-0.00191607 9.2801e-07 0)
(-0.00189559 -0.000133351 0)
(-0.00183372 -0.000265305 0)
(-0.00173141 -0.000392452 0)
(-0.00159035 -0.000512202 0)
(-0.00141302 -0.000621842 0)
(-0.00120266 -0.000718498 0)
(-0.000963232 -0.000798541 0)
(-0.000698708 -0.000853282 0)
(-0.000413694 -0.000844317 0)
(-0.000110597 -0.00059268 0)
(-0.000120276 0.000786441 0)
(-0.000449508 0.00112022 0)
(-0.000758705 0.00113174 0)
(-0.00104522 0.00105875 0)
(-0.00130403 0.000952317 0)
(-0.00153095 0.000824087 0)
(-0.00172191 0.00067893 0)
(-0.00187365 0.000520655 0)
(-0.00198376 0.000352788 0)
(-0.00205063 0.000178634 0)
(-0.00207335 1.32152e-06 0)
(-0.00205159 -0.000176123 0)
(-0.00198559 -0.000350664 0)
(-0.00187622 -0.000519149 0)
(-0.00172501 -0.000678229 0)
(-0.00153431 -0.00082432 0)
(-0.00130736 -0.000953534 0)
(-0.0010482 -0.0010609 0)
(-0.000761046 -0.00113467 0)
(-0.000450969 -0.00112351 0)
(-0.000120683 -0.000789007 0)
(-0.000133168 0.00100099 0)
(-0.000497468 0.00142486 0)
(-0.000838891 0.00143824 0)
(-0.00115429 0.00134385 0)
(-0.00143809 0.00120705 0)
(-0.00168584 0.00104297 0)
(-0.00189344 0.000858049 0)
(-0.00205775 0.00065723 0)
(-0.00217663 0.000444951 0)
(-0.00224871 0.000225245 0)
(-0.00227324 1.82396e-06 0)
(-0.00224996 -0.000221775 0)
(-0.00217905 -0.000442005 0)
(-0.00206115 -0.000655124 0)
(-0.00189755 -0.000857047 0)
(-0.00169032 -0.00104326 0)
(-0.00144254 -0.00120871 0)
(-0.00115831 -0.00134683 0)
(-0.000842059 -0.00144231 0)
(-0.000499451 -0.00142948 0)
(-0.000133723 -0.00100459 0)
(-0.000149624 0.00124031 0)
(-0.000558709 0.00176403 0)
(-0.000941022 0.0017784 0)
(-0.00129268 0.00165892 0)
(-0.00160737 0.00148714 0)
(-0.00188046 0.00128237 0)
(-0.00210793 0.00105297 0)
(-0.00228701 0.000805215 0)
(-0.00241602 0.000544504 0)
(-0.00249405 0.000275538 0)
(-0.00252067 2.47363e-06 0)
(-0.00249571 -0.000270825 0)
(-0.00241923 -0.000540482 0)
(-0.00229153 -0.00080231 0)
(-0.00211342 -0.00105155 0)
(-0.00188648 -0.0012827 0)
(-0.0016134 -0.00148936 0)
(-0.00129814 -0.00166298 0)
(-0.000945364 -0.00178401 0)
(-0.000561439 -0.00177041 0)
(-0.000150392 -0.00124531 0)
(-0.000170393 0.00151114 0)
(-0.000635919 0.00214689 0)
(-0.00106928 0.00216075 0)
(-0.00146552 0.00201096 0)
(-0.00181746 0.00179792 0)
(-0.00212038 0.00154608 0)
(-0.00237065 0.00126621 0)
(-0.00256625 0.000966149 0)
(-0.00270633 0.000652304 0)
(-0.00279076 0.000329907 0)
(-0.00281962 3.31705e-06 0)
(-0.00279294 -0.000323574 0)
(-0.00271056 -0.000646864 0)
(-0.00257224 -0.000962164 0)
(-0.002378 -0.00126418 0)
(-0.0021285 -0.0015464 0)
(-0.00182567 -0.00180082 0)
(-0.00147302 -0.00201642 0)
(-0.00107529 -0.00216839 0)
(-0.000639715 -0.00215567 0)
(-0.000171465 -0.00151804 0)
(-0.000196516 0.0018217 0)
(-0.00073286 0.00258437 0)
(-0.00122946 0.00259507 0)
(-0.00167978 0.0024076 0)
(-0.00207566 0.00214475 0)
(-0.0024126 0.00183746 0)
(-0.0026879 0.00149961 0)
(-0.00290091 0.00114089 0)
(-0.00305225 0.000768665 0)
(-0.00314303 0.000388452 0)
(-0.00317413 4.40987e-06 0)
(-0.00314588 -0.000380009 0)
(-0.0030578 -0.00076135 0)
(-0.00290884 -0.00113543 0)
(-0.0026977 -0.0014967 0)
(-0.00242355 -0.00183767 0)
(-0.00208686 -0.00214847 0)
(-0.00169014 -0.00241488 0)
(-0.00123783 -0.00260546 0)
(-0.000738193 -0.00259644 0)
(-0.000198028 -0.00183125 0)
(-0.000229508 0.00218235 0)
(-0.000855002 0.00308997 0)
(-0.00142979 0.0030929 0)
(-0.00194509 0.00285713 0)
(-0.00239171 0.00253272 0)
(-0.00276603 0.00215901 0)
(-0.00306727 0.00175389 0)
(-0.00329718 0.00132918 0)
(-0.00345875 0.000893045 0)
(-0.00355499 0.000450812 0)
(-0.00358806 5.8163e-06 0)
(-0.00355868 -0.000439639 0)
(-0.00346596 -0.000883258 0)
(-0.00330758 -0.00132172 0)
(-0.00308028 -0.00174968 0)
(-0.00278078 -0.0021589 0)
(-0.00240702 -0.00253736 0)
(-0.00195947 -0.00286675 0)
(-0.00144156 -0.00310701 0)
(-0.000862584 -0.00310661 0)
(-0.000231669 -0.00219563 0)
(-0.000271649 0.00260673 0)
(-0.0010105 0.00368082 0)
(-0.00168227 0.00366803 0)
(-0.00227499 0.00336839 0)
(-0.0027787 0.00296608 0)
(-0.00319202 0.00251157 0)
(-0.00351778 0.00202785 0)
(-0.00376174 0.00152901 0)
(-0.0039306 0.00102358 0)
(-0.00403023 0.000515929 0)
(-0.00406456 7.60596e-06 0)
(-0.00403493 -0.000501255 0)
(-0.00393986 -0.00101055 0)
(-0.00377525 -0.00151879 0)
(-0.00353493 -0.00202169 0)
(-0.00321184 -0.00251072 0)
(-0.00279967 -0.00297163 0)
(-0.00229508 -0.00338094 0)
(-0.00169903 -0.00368713 0)
(-0.00102145 -0.0037039 0)
(-0.000274791 -0.00262536 0)
(-0.000326477 0.00311345 0)
(-0.00121191 0.00437941 0)
(-0.0020048 0.00433701 0)
(-0.00268883 0.00395021 0)
(-0.00325438 0.00344708 0)
(-0.00370496 0.00289295 0)
(-0.00404986 0.00231708 0)
(-0.0043014 0.00173561 0)
(-0.00447178 0.00115645 0)
(-0.00457092 0.000581727 0)
(-0.0046052 9.84627e-06 0)
(-0.00457679 -0.000562629 0)
(-0.00448345 -0.00113919 0)
(-0.00431868 -0.00172161 0)
(-0.00407225 -0.00230798 0)
(-0.00373143 -0.00289059 0)
(-0.00328315 -0.00345326 0)
(-0.00271715 -0.00396626 0)
(-0.00202903 -0.00436283 0)
(-0.00122805 -0.00441162 0)
(-0.00033115 -0.00313993 0)
(-0.000399665 0.00372915 0)
(-0.00147916 0.00521616 0)
(-0.00242472 0.00511969 0)
(-0.00321461 0.00461013 0)
(-0.00384275 0.00397384 0)
(-0.00432266 0.00329578 0)
(-0.00467497 0.00261222 0)
(-0.00492213 0.00194016 0)
(-0.00508422 0.00128503 0)
(-0.00517657 0.000644718 0)
(-0.00520866 1.25881e-05 0)
(-0.00518371 -0.00062014 0)
(-0.00509858 -0.00126235 0)
(-0.00494379 -0.001921 0)
(-0.00470375 -0.00259868 0)
(-0.00435776 -0.00329049 0)
(-0.00388222 -0.00397978 0)
(-0.00325489 -0.00463001 0)
(-0.0024604 -0.00515441 0)
(-0.00150362 -0.00526156 0)
(-0.000406827 -0.00376751 0)
(-0.000500448 0.00449406 0)
(-0.00184466 0.00623389 0)
(-0.00298423 0.00603927 0)
(-0.00389251 0.00535153 0)
(-0.00457514 0.00453651 0)
(-0.00506562 0.00370405 0)
(-0.00540358 0.00289636 0)
(-0.00562656 0.00212817 0)
(-0.00576517 0.00139901 0)
(-0.00584131 0.000699585 0)
(-0.005868 1.5843e-05 0)
(-0.00584966 -0.000668404 0)
(-0.00578224 -0.00136951 0)
(-0.00565294 -0.00210203 0)
(-0.00543977 -0.00287611 0)
(-0.00511153 -0.00369334 0)
(-0.00462913 -0.00454012 0)
(-0.00395031 -0.00537469 0)
(-0.0030379 -0.00608537 0)
(-0.00188298 -0.00629865 0)
(-0.000511854 -0.00455112 0)
(-0.000642831 0.00547286 0)
(-0.00235888 0.00749619 0)
(-0.00374426 0.00712139 0)
(-0.00477353 0.00616758 0)
(-0.00548411 0.00511066 0)
(-0.00594771 0.00408793 0)
(-0.00623454 0.00314177 0)
(-0.00640299 0.00227764 0)
(-0.00649625 0.0014835 0)
(-0.00654315 0.000738859 0)
(-0.00656002 1.95565e-05 0)
(-0.0065524 -0.000700005 0)
(-0.00651551 -0.00144564 0)
(-0.00643367 -0.00224222 0)
(-0.00627842 -0.00311152 0)
(-0.00600623 -0.00406756 0)
(-0.00555704 -0.00510746 0)
(-0.00485669 -0.00619118 0)
(-0.00382663 -0.00718082 0)
(-0.00242121 -0.00758971 0)
(-0.000661796 -0.005561 0)
(-0.000837618 0.0067772 0)
(-0.00307326 0.00910522 0)
(-0.00475257 0.00839109 0)
(-0.00587208 0.00702958 0)
(-0.00654568 0.0056463 0)
(-0.00691371 0.00439669 0)
(-0.00709123 0.00330628 0)
(-0.00716172 0.00235772 0)
(-0.00718057 0.00151874 0)
(-0.00718164 0.00075293 0)
(-0.00718304 2.3595e-05 0)
(-0.00719082 -0.000705538 0)
(-0.00720018 -0.00147098 0)
(-0.00719427 -0.00231023 0)
(-0.00714039 -0.00326135 0)
(-0.00698376 -0.00435961 0)
(-0.00663988 -0.00562721 0)
(-0.00598891 -0.00704512 0)
(-0.0048789 -0.00846242 0)
(-0.00317698 -0.0092415 0)
(-0.000870004 -0.00692047 0)
(-0.00101248 0.00860312 0)
(-0.00383614 0.0112324 0)
(-0.00575541 0.0098609 0)
(-0.0068266 0.00786349 0)
(-0.00731656 0.00605069 0)
(-0.00746885 0.00455011 0)
(-0.00745041 0.00333058 0)
(-0.00736552 0.00232877 0)
(-0.00727467 0.00148105 0)
(-0.00721074 0.000730744 0)
(-0.00718981 2.77816e-05 0)
(-0.00721713 -0.000674257 0)
(-0.00728905 -0.00142195 0)
(-0.00739132 -0.00226599 0)
(-0.00749329 -0.0032646 0)
(-0.00753692 -0.00448499 0)
(-0.00741947 -0.00599811 0)
(-0.00697116 -0.00784935 0)
(-0.00593309 -0.00993055 0)
(-0.00400057 -0.0114294 0)
(-0.00106463 -0.00885104 0)
(-0.000516875 0.0112648 0)
(-0.00303531 0.0141456 0)
(-0.0045469 0.0114857 0)
(-0.00508796 0.00850286 0)
(-0.00507067 0.00616372 0)
(-0.0048054 0.00443112 0)
(-0.00447121 0.00313914 0)
(-0.00416257 0.00214575 0)
(-0.00392435 0.0013458 0)
(-0.00377579 0.000661482 0)
(-0.0037242 3.19119e-05 0)
(-0.00377168 -0.000595754 0)
(-0.00391717 -0.00127428 0)
(-0.00415487 -0.0020644 0)
(-0.00446797 -0.00304425 0)
(-0.00481577 -0.00432138 0)
(-0.00511017 -0.00604662 0)
(-0.00517863 -0.00841105 0)
(-0.00470489 -0.0115051 0)
(-0.00322608 -0.0144106 0)
(-0.00057047 -0.011716 0)
(0.00448912 0.0146955 0)
(0.00811341 0.0176198 0)
(0.0100433 0.0127891 0)
(0.0114719 0.00852437 0)
(0.0126658 0.00570748 0)
(0.0136551 0.00387996 0)
(0.0144447 0.00264668 0)
(0.0150402 0.00176548 0)
(0.0154547 0.0010924 0)
(0.0157026 0.000536746 0)
(0.0157945 3.53515e-05 0)
(0.0157348 -0.000463035 0)
(0.0155211 -0.00100914 0)
(0.0151448 -0.00166452 0)
(0.0145932 -0.00251711 0)
(0.0138525 -0.00370813 0)
(0.0129094 -0.00548307 0)
(0.0117342 -0.00826834 0)
(0.0102511 -0.0126304 0)
(0.00817707 -0.0178832 0)
(0.00457865 -0.0155337 0)
(0.0325716 0.0171333 0)
(0.0642389 0.0194684 0)
(0.0785189 0.0121722 0)
(0.0847438 0.0070652 0)
(0.087995 0.00428227 0)
(0.0899456 0.00272588 0)
(0.0912283 0.00178529 0)
(0.0920928 0.00116303 0)
(0.0926592 0.000712079 0)
(0.0929919 0.000352431 0)
(0.0931249 3.41765e-05 0)
(0.0930712 -0.000280471 0)
(0.0928263 -0.000628359 0)
(0.0923662 -0.00105617 0)
(0.0916401 -0.00163715 0)
(0.0905444 -0.00250644 0)
(0.0888381 -0.00394688 0)
(0.0858523 -0.00657893 0)
(0.0797459 -0.0116322 0)
(0.0651263 -0.0194217 0)
(0.0331279 -0.0184635 0)
(0.171238 0.00229783 0)
(0.258972 0.00153946 0)
(0.29139 0.00219942 0)
(0.302292 0.00180204 0)
(0.306833 0.00122382 0)
(0.309038 0.000802899 0)
(0.310293 0.000526555 0)
(0.311069 0.000342607 0)
(0.311557 0.000211787 0)
(0.31184 0.000109959 0)
(0.31196 2.18962e-05 0)
(0.311932 -6.34844e-05 0)
(0.311752 -0.000156385 0)
(0.311393 -0.000268824 0)
(0.310791 -0.000417231 0)
(0.309788 -0.000623452 0)
(0.307943 -0.000903504 0)
(0.303843 -0.00121527 0)
(0.293145 -0.00125781 0)
(0.25988 -0.000789551 0)
(0.170222 -0.00427768 0)
)
;

boundaryField
{
    movingWall
    {
        type            fixedValue;
        value           uniform (0.5 0 0);
    }
    fixedWalls
    {
        type            noSlip;
    }
    frontAndBack
    {
        type            empty;
    }
}


// ************************************************************************* //
