/*--------------------------------*- C++ -*----------------------------------*\
| =========                 |                                                 |
| \\      /  F ield         | OpenFOAM: The Open Source CFD Toolbox           |
|  \\    /   O peration     | Version:  4.1                                   |
|   \\  /    A nd           | Web:      www.OpenFOAM.org                      |
|    \\/     M anipulation  |                                                 |
\*---------------------------------------------------------------------------*/
FoamFile
{
    version     2.0;
    format      ascii;
    class       volScalarField;
    location    "150";
    object      p;
}
// * * * * * * * * * * * * * * * * * * * * * * * * * * * * * * * * * * * * * //

dimensions      [1 -1 -2 0 0 0 0];

internalField   nonuniform List<scalar> 
1275
(
0.711918
0.71192
0.711918
0.711914
0.711906
0.711897
0.711881
0.711862
0.711836
0.711808
0.711778
0.711754
0.711738
0.711732
0.711733
0.711739
0.711747
0.711758
0.711754
0.711715
0.711643
0.711561
0.711488
0.711411
0.7113
0.711154
0.711008
0.710901
0.71086
0.710898
0.711015
0.711204
0.711453
0.71175
0.712081
0.712436
0.712805
0.713179
0.713548
0.713903
0.714234
0.714533
0.71479
0.714998
0.71515
0.715246
0.715285
0.715272
0.715213
0.715116
0.714994
0.714856
0.714713
0.714575
0.714448
0.714333
0.714228
0.714127
0.714024
0.713922
0.713844
0.713799
0.713764
0.713745
0.713746
0.713737
0.713718
0.713692
0.713661
0.713623
0.713579
0.713533
0.713487
0.713445
0.713409
0.713378
0.713354
0.713337
0.713328
0.713327
0.713337
0.71336
0.7134
0.71346
0.713543
0.71365
0.71378
0.713931
0.714096
0.714269
0.714441
0.714604
0.714752
0.714879
0.714983
0.715065
0.715124
0.715164
0.715187
0.715198
0.715199
0.715192
0.715181
0.715166
0.71515
0.715133
0.715116
0.7151
0.715085
0.715071
0.715058
0.715046
0.715035
0.715025
0.715016
0.715008
0.715
0.714993
0.714986
0.714979
0.714973
0.714967
0.711915
0.711916
0.711913
0.71191
0.711901
0.711891
0.711875
0.711854
0.711826
0.711796
0.711763
0.711738
0.711723
0.711722
0.711732
0.711747
0.711762
0.711773
0.711767
0.711749
0.711715
0.711634
0.711509
0.711364
0.711197
0.71102
0.710865
0.710762
0.710734
0.710787
0.71092
0.711123
0.711383
0.711687
0.712024
0.712383
0.712754
0.713128
0.713498
0.713854
0.714186
0.714486
0.714745
0.714954
0.715109
0.715206
0.715247
0.715234
0.715175
0.715078
0.714954
0.714814
0.714669
0.714527
0.714395
0.714276
0.71417
0.71407
0.713975
0.713894
0.713855
0.713849
0.713829
0.713795
0.713762
0.713731
0.713716
0.713702
0.713674
0.713634
0.713587
0.713538
0.713489
0.713445
0.713406
0.713375
0.71335
0.713332
0.713321
0.713317
0.713324
0.713344
0.71338
0.713437
0.713517
0.713623
0.713753
0.713906
0.714075
0.714253
0.71443
0.714599
0.714751
0.714882
0.714989
0.715071
0.715131
0.715171
0.715193
0.715203
0.715203
0.715195
0.715182
0.715167
0.71515
0.715133
0.715116
0.7151
0.715084
0.71507
0.715057
0.715046
0.715035
0.715025
0.715016
0.715008
0.715
0.714993
0.714986
0.714979
0.714973
0.714967
0.711921
0.71192
0.711917
0.711912
0.711902
0.71189
0.711872
0.711848
0.711816
0.711779
0.711742
0.711714
0.7117
0.711707
0.711729
0.711757
0.711779
0.711797
0.711801
0.71177
0.711698
0.711583
0.711418
0.711216
0.710998
0.710795
0.710638
0.710551
0.710546
0.710624
0.71078
0.711002
0.711276
0.71159
0.711932
0.712292
0.712663
0.713035
0.713403
0.713756
0.714087
0.714385
0.714641
0.714848
0.715
0.715095
0.715132
0.715116
0.715053
0.714951
0.714821
0.714673
0.71452
0.71437
0.714231
0.714109
0.714004
0.713916
0.713844
0.713787
0.713753
0.713742
0.713729
0.713732
0.713754
0.713757
0.713734
0.713702
0.713671
0.713633
0.713585
0.713531
0.713479
0.713433
0.713394
0.713363
0.713338
0.71332
0.713307
0.7133
0.713303
0.713318
0.713349
0.7134
0.713477
0.713581
0.713712
0.713868
0.714043
0.714228
0.714414
0.714591
0.71475
0.714886
0.714996
0.71508
0.71514
0.715178
0.715199
0.715207
0.715205
0.715196
0.715183
0.715166
0.715149
0.715131
0.715114
0.715098
0.715083
0.715069
0.715056
0.715044
0.715034
0.715024
0.715015
0.715007
0.714999
0.714992
0.714986
0.714979
0.714973
0.714967
0.711918
0.711917
0.711912
0.711908
0.711897
0.711885
0.711864
0.711838
0.711802
0.711763
0.711722
0.711693
0.711681
0.711692
0.711723
0.711764
0.7118
0.711823
0.711829
0.711806
0.711721
0.711558
0.711332
0.711076
0.710825
0.71061
0.710458
0.710384
0.710395
0.71049
0.710661
0.710894
0.711175
0.711492
0.711834
0.712192
0.712558
0.712926
0.713287
0.713634
0.713957
0.714248
0.714495
0.714693
0.714835
0.71492
0.714946
0.714918
0.714843
0.714729
0.714585
0.714423
0.714255
0.714091
0.71394
0.713809
0.713703
0.713622
0.713566
0.713538
0.713543
0.713573
0.713606
0.713639
0.713666
0.713676
0.713691
0.713696
0.713669
0.713624
0.713573
0.713519
0.713466
0.713418
0.713378
0.713347
0.713322
0.713301
0.713286
0.713275
0.713271
0.713278
0.713301
0.713345
0.713414
0.713514
0.713645
0.713804
0.713986
0.714181
0.714378
0.714567
0.714736
0.71488
0.714996
0.715082
0.715142
0.71518
0.7152
0.715206
0.715203
0.715193
0.715179
0.715162
0.715145
0.715128
0.715111
0.715095
0.71508
0.715067
0.715054
0.715043
0.715033
0.715023
0.715014
0.715006
0.714999
0.714992
0.714985
0.714979
0.714973
0.714967
0.711929
0.711927
0.711921
0.711913
0.711899
0.711881
0.711856
0.711826
0.711788
0.711749
0.711712
0.711688
0.711684
0.711703
0.711742
0.711789
0.711834
0.711877
0.711897
0.711858
0.711737
0.711535
0.711273
0.710988
0.710718
0.710496
0.710343
0.710274
0.710293
0.710395
0.710571
0.710807
0.711089
0.711403
0.71174
0.712091
0.712449
0.712808
0.713158
0.713493
0.713803
0.714078
0.714308
0.714488
0.714611
0.714675
0.714682
0.714635
0.714539
0.714402
0.714236
0.714051
0.713859
0.713672
0.713503
0.713361
0.713251
0.713178
0.713142
0.713142
0.713176
0.713235
0.713307
0.713389
0.713473
0.713542
0.713589
0.713609
0.713612
0.713594
0.71355
0.713495
0.713442
0.713395
0.713356
0.713325
0.713301
0.71328
0.713261
0.713245
0.713233
0.71323
0.713242
0.713274
0.713334
0.713426
0.713554
0.713716
0.713905
0.714112
0.714324
0.714527
0.71471
0.714865
0.714988
0.715078
0.71514
0.715177
0.715196
0.715201
0.715196
0.715185
0.715171
0.715155
0.715138
0.715121
0.715105
0.71509
0.715076
0.715063
0.715052
0.715041
0.715031
0.715022
0.715013
0.715006
0.714998
0.714992
0.714985
0.714979
0.714973
0.714967
0.711917
0.711917
0.711909
0.711902
0.711883
0.711863
0.711831
0.711798
0.711759
0.711724
0.711696
0.711686
0.711698
0.711739
0.711801
0.711878
0.711957
0.712022
0.712044
0.711991
0.711843
0.711607
0.711314
0.711006
0.710721
0.71049
0.710331
0.710258
0.710273
0.71037
0.710539
0.710767
0.711039
0.711343
0.711669
0.712008
0.712354
0.712698
0.713033
0.71335
0.713639
0.713891
0.714095
0.714248
0.714343
0.714381
0.714362
0.714288
0.714168
0.714005
0.71381
0.713593
0.713369
0.713153
0.712958
0.712796
0.712676
0.712605
0.712583
0.712609
0.71268
0.712787
0.712914
0.713052
0.713185
0.713302
0.713402
0.713475
0.713513
0.713518
0.7135
0.713464
0.713417
0.713371
0.713332
0.713302
0.713276
0.713253
0.71323
0.713208
0.713188
0.713174
0.713173
0.713192
0.71324
0.713323
0.713446
0.713608
0.713804
0.714023
0.714251
0.714471
0.71467
0.714838
0.714971
0.715067
0.71513
0.715168
0.715186
0.715189
0.715184
0.715173
0.715159
0.715143
0.715127
0.715112
0.715097
0.715083
0.715071
0.715059
0.715048
0.715038
0.715029
0.71502
0.715012
0.715005
0.714998
0.714991
0.714985
0.714979
0.714973
0.714967
0.711927
0.711924
0.711913
0.711899
0.711873
0.711841
0.711799
0.711754
0.711708
0.711673
0.711657
0.711669
0.711712
0.711786
0.711884
0.711993
0.712098
0.712177
0.712198
0.71213
0.711964
0.711712
0.711409
0.711095
0.710807
0.710572
0.71041
0.71033
0.710336
0.710421
0.710576
0.710788
0.711043
0.71133
0.711639
0.711962
0.71229
0.712615
0.712927
0.713218
0.713477
0.713697
0.713869
0.71399
0.714056
0.714067
0.714025
0.71393
0.713786
0.713598
0.713376
0.713126
0.712866
0.712611
0.712381
0.71219
0.712051
0.711971
0.711953
0.711995
0.712092
0.712233
0.712406
0.712597
0.712793
0.712979
0.713141
0.713269
0.713361
0.713414
0.713428
0.713414
0.713385
0.713348
0.713311
0.713279
0.713252
0.713228
0.713203
0.713176
0.713148
0.713125
0.713113
0.71312
0.713156
0.71323
0.713346
0.713507
0.713707
0.713936
0.714176
0.714411
0.714625
0.714806
0.714947
0.715049
0.715115
0.715153
0.715171
0.715174
0.715168
0.715157
0.715143
0.715129
0.715114
0.715101
0.715087
0.715075
0.715064
0.715053
0.715043
0.715034
0.715026
0.715018
0.715011
0.715004
0.714997
0.71499
0.714984
0.714978
0.714972
0.714967
0.711887
0.711901
0.711885
0.71188
0.711848
0.711816
0.711765
0.711713
0.711659
0.71162
0.711602
0.711618
0.711674
0.711774
0.711911
0.712065
0.71221
0.712313
0.712343
0.712276
0.712108
0.711858
0.711559
0.711249
0.710964
0.71073
0.710565
0.710479
0.710472
0.710541
0.710676
0.710867
0.711101
0.711368
0.711658
0.711961
0.712266
0.712566
0.71285
0.713108
0.713331
0.713515
0.713651
0.713741
0.713783
0.713776
0.713721
0.713617
0.71347
0.71327
0.713023
0.712742
0.712447
0.712156
0.711889
0.711663
0.711496
0.711396
0.711368
0.71141
0.711518
0.711681
0.711886
0.71212
0.712366
0.712608
0.712832
0.713026
0.713179
0.713285
0.713347
0.71337
0.713362
0.713336
0.713304
0.71327
0.713239
0.71321
0.713181
0.71315
0.713119
0.713091
0.713072
0.713071
0.713099
0.713165
0.713275
0.713433
0.713634
0.713867
0.714114
0.714358
0.714582
0.714771
0.714919
0.715024
0.715093
0.715131
0.715149
0.715152
0.715146
0.715136
0.715124
0.715112
0.715099
0.715087
0.715076
0.715065
0.715056
0.715047
0.715038
0.71503
0.715023
0.715015
0.715009
0.715002
0.714996
0.71499
0.714984
0.714978
0.714972
0.714967
0.711917
0.711924
0.711907
0.711891
0.711856
0.711814
0.711756
0.711694
0.71163
0.711583
0.711562
0.711583
0.711651
0.711768
0.711921
0.712086
0.712235
0.712342
0.712376
0.71232
0.712171
0.711946
0.711675
0.711392
0.711129
0.710911
0.710755
0.710669
0.710657
0.710715
0.710836
0.71101
0.711227
0.711475
0.711744
0.712022
0.7123
0.712566
0.712812
0.713029
0.71321
0.713356
0.713462
0.713534
0.713566
0.71356
0.71352
0.713428
0.713284
0.713088
0.71284
0.712538
0.712203
0.711864
0.71155
0.711284
0.711083
0.710958
0.710914
0.71095
0.711057
0.711224
0.71144
0.711691
0.711963
0.712244
0.712517
0.712768
0.712982
0.713151
0.713268
0.713336
0.713362
0.713356
0.71333
0.713296
0.713259
0.713223
0.713188
0.713153
0.713119
0.713089
0.713068
0.713065
0.713089
0.71315
0.713257
0.713411
0.713609
0.713839
0.714085
0.714329
0.714552
0.714742
0.714891
0.714997
0.715065
0.715103
0.715121
0.715124
0.71512
0.715112
0.715102
0.715092
0.715082
0.715072
0.715063
0.715055
0.715047
0.715039
0.715032
0.715025
0.715019
0.715012
0.715006
0.715
0.714994
0.714989
0.714983
0.714977
0.714972
0.714966
0.711806
0.711898
0.711884
0.711894
0.711859
0.711826
0.71177
0.711713
0.711652
0.711606
0.71158
0.711589
0.71164
0.711742
0.711887
0.712055
0.712215
0.712331
0.712373
0.712326
0.71219
0.711988
0.711746
0.711496
0.711265
0.711075
0.710941
0.710871
0.710868
0.710928
0.711046
0.711212
0.711417
0.711648
0.711894
0.712143
0.712386
0.712612
0.712812
0.712987
0.713126
0.713239
0.71332
0.71338
0.713423
0.713434
0.713413
0.713354
0.713258
0.713071
0.712793
0.712448
0.712068
0.711681
0.71132
0.71101
0.710775
0.710629
0.710575
0.71061
0.710723
0.7109
0.711125
0.711386
0.711672
0.711971
0.712272
0.712561
0.712824
0.713047
0.71322
0.713339
0.713406
0.713429
0.713418
0.713384
0.713339
0.713291
0.713245
0.713201
0.713161
0.713129
0.713108
0.713105
0.71313
0.713192
0.713297
0.713447
0.713639
0.71386
0.714096
0.714328
0.714542
0.714723
0.714864
0.714965
0.71503
0.715067
0.715085
0.71509
0.715088
0.715083
0.715077
0.715069
0.715063
0.715056
0.715049
0.715043
0.715037
0.715032
0.715026
0.71502
0.715015
0.715009
0.715004
0.714998
0.714993
0.714988
0.714982
0.714977
0.714972
0.714966
0.712229
0.712187
0.712179
0.712136
0.712122
0.712075
0.712056
0.711997
0.71198
0.711894
0.711899
0.711931
0.711913
0.711902
0.711866
0.711827
0.711772
0.711717
0.711662
0.711624
0.711608
0.711628
0.711687
0.711786
0.711914
0.712051
0.712175
0.712263
0.712295
0.712259
0.712155
0.711997
0.711805
0.711607
0.711425
0.711278
0.711181
0.711139
0.711155
0.711227
0.711347
0.711506
0.711695
0.711901
0.712114
0.712321
0.712517
0.712693
0.71284
0.712966
0.713061
0.713147
0.713222
0.713291
0.713342
)
;

boundaryField
{
    inlet
    {
        type            zeroGradient;
    }
    outlet
    {
        type            fixedValue;
        value           nonuniform 0();
    }
    walls
    {
        type            zeroGradient;
    }
    symwall
    {
        type            empty;
    }
    procBoundary0to1
    {
        type            processor;
        value           nonuniform List<scalar> 10(0.714961 0.714961 0.714961 0.714961 0.714961 0.714961 0.714961 0.714961 0.714961 0.714961);
    }
    procBoundary0to2
    {
        type            processor;
        value           nonuniform List<scalar> 
133
(
0.713386
0.713424
0.713393
0.713275
0.713075
0.712779
0.712388
0.711937
0.711474
0.711044
0.710684
0.71042
0.710267
0.710227
0.710291
0.71044
0.710652
0.710905
0.711186
0.711485
0.711796
0.712112
0.712424
0.712721
0.712989
0.713215
0.713388
0.713505
0.713567
0.713582
0.713561
0.713516
0.713458
0.713397
0.713339
0.713288
0.713247
0.713223
0.713219
0.713244
0.713305
0.713407
0.713552
0.713732
0.713937
0.714152
0.714361
0.714552
0.714714
0.71484
0.71493
0.714989
0.715023
0.715042
0.715049
0.715051
0.715051
0.715048
0.715045
0.715042
0.715039
0.715035
0.715032
0.715028
0.715024
0.71502
0.715015
0.715011
0.715006
0.715001
0.714997
0.714992
0.714987
0.714981
0.714976
0.714971
0.714966
0.712239
0.712191
0.712184
0.71214
0.712125
0.712078
0.712058
0.712
0.711977
0.711898
0.711857
0.711909
0.71189
0.711898
0.711865
0.71184
0.711793
0.711752
0.711708
0.711681
0.711671
0.711691
0.711741
0.711825
0.711932
0.712051
0.712159
0.712238
0.71227
0.712246
0.712169
0.712051
0.711911
0.711768
0.711641
0.711545
0.71149
0.71148
0.711517
0.711597
0.711713
0.711857
0.712019
0.712189
0.712359
0.712516
0.712657
0.712778
0.712874
0.712963
0.713027
0.713088
0.713144
0.713207
0.713386
0.713305
)
;
    }
}


// ************************************************************************* //
