/*--------------------------------*- C++ -*----------------------------------*\
| =========                 |                                                 |
| \\      /  F ield         | OpenFOAM: The Open Source CFD Toolbox           |
|  \\    /   O peration     | Version:  4.1                                   |
|   \\  /    A nd           | Web:      www.OpenFOAM.org                      |
|    \\/     M anipulation  |                                                 |
\*---------------------------------------------------------------------------*/
FoamFile
{
    version     2.0;
    format      ascii;
    class       volScalarField;
    location    "419";
    object      p;
}
// * * * * * * * * * * * * * * * * * * * * * * * * * * * * * * * * * * * * * //

dimensions      [1 -1 -2 0 0 0 0];

internalField   nonuniform List<scalar> 
3264
(
0.712486
0.712484
0.712483
0.712483
0.712482
0.712483
0.712484
0.712486
0.712489
0.712492
0.712496
0.712502
0.712508
0.712515
0.712523
0.712532
0.712543
0.712554
0.712567
0.71258
0.712595
0.712611
0.712628
0.712646
0.712666
0.712687
0.712709
0.712733
0.712759
0.712786
0.712815
0.712847
0.71288
0.712915
0.712953
0.712993
0.713036
0.71308
0.713128
0.713177
0.71323
0.713284
0.713341
0.713399
0.71346
0.713521
0.713584
0.713648
0.713712
0.713777
0.713841
0.713904
0.713966
0.714027
0.714086
0.714142
0.714195
0.714246
0.714293
0.714337
0.714377
0.714414
0.714446
0.714475
0.714501
0.714523
0.714541
0.714556
0.714569
0.714579
0.714586
0.714592
0.714595
0.714597
0.714598
0.714598
0.714598
0.714597
0.714595
0.714594
0.714592
0.714591
0.71459
0.714589
0.714589
0.714589
0.71459
0.714591
0.714592
0.714594
0.714596
0.714599
0.714602
0.714605
0.714609
0.714612
0.714616
0.714619
0.714623
0.714627
0.714631
0.714634
0.714638
0.714641
0.714644
0.714647
0.71465
0.714652
0.714654
0.714656
0.714658
0.714659
0.714661
0.714662
0.714662
0.714663
0.714663
0.714663
0.714663
0.714662
0.714662
0.714661
0.71466
0.714659
0.714658
0.714656
0.714655
0.714653
0.714651
0.71465
0.714648
0.714646
0.714644
0.714642
0.71464
0.714638
0.714636
0.714634
0.714632
0.714629
0.714627
0.714625
0.714623
0.714621
0.714619
0.714617
0.714615
0.714612
0.71461
0.714608
0.714605
0.714603
0.7146
0.714597
0.714595
0.714591
0.714588
0.714585
0.714581
0.714577
0.714573
0.714568
0.714564
0.714559
0.714553
0.714548
0.714542
0.714535
0.714529
0.714522
0.714515
0.714507
0.7145
0.714492
0.714484
0.714476
0.714467
0.714459
0.71445
0.714442
0.714433
0.714424
0.714415
0.714407
0.714398
0.71439
0.714381
0.714373
0.714365
0.714357
0.714349
0.714341
0.714334
0.714327
0.71432
0.714313
0.714307
0.714301
0.714295
0.714289
0.712487
0.712486
0.712485
0.712485
0.712485
0.712485
0.712487
0.712488
0.712491
0.712494
0.712498
0.712504
0.71251
0.712517
0.712525
0.712534
0.712544
0.712556
0.712568
0.712581
0.712596
0.712612
0.712629
0.712647
0.712667
0.712688
0.71271
0.712734
0.712759
0.712786
0.712815
0.712846
0.712879
0.712914
0.712952
0.712991
0.713033
0.713078
0.713125
0.713174
0.713226
0.71328
0.713336
0.713394
0.713454
0.713516
0.713578
0.713642
0.713706
0.71377
0.713834
0.713897
0.71396
0.71402
0.714079
0.714135
0.714188
0.714239
0.714286
0.71433
0.71437
0.714407
0.71444
0.714469
0.714495
0.714517
0.714535
0.714551
0.714564
0.714574
0.714582
0.714587
0.714591
0.714594
0.714595
0.714596
0.714595
0.714595
0.714594
0.714593
0.714592
0.714591
0.71459
0.71459
0.71459
0.71459
0.714591
0.714592
0.714594
0.714596
0.714598
0.714601
0.714604
0.714607
0.714611
0.714614
0.714618
0.714622
0.714625
0.714629
0.714633
0.714636
0.71464
0.714643
0.714646
0.714649
0.714651
0.714654
0.714656
0.714658
0.714659
0.714661
0.714662
0.714663
0.714663
0.714664
0.714664
0.714664
0.714663
0.714663
0.714662
0.714661
0.71466
0.714659
0.714658
0.714656
0.714655
0.714653
0.714651
0.714649
0.714647
0.714645
0.714643
0.714641
0.714639
0.714637
0.714635
0.714633
0.714631
0.714629
0.714626
0.714624
0.714622
0.71462
0.714618
0.714616
0.714613
0.714611
0.714609
0.714607
0.714604
0.714602
0.714599
0.714596
0.714593
0.71459
0.714587
0.714584
0.71458
0.714576
0.714572
0.714568
0.714563
0.714558
0.714553
0.714547
0.714541
0.714535
0.714529
0.714522
0.714515
0.714507
0.7145
0.714492
0.714484
0.714476
0.714468
0.714459
0.714451
0.714442
0.714433
0.714424
0.714416
0.714407
0.714398
0.71439
0.714381
0.714373
0.714365
0.714357
0.714349
0.714341
0.714334
0.714327
0.71432
0.714313
0.714307
0.714301
0.714294
0.714289
0.712489
0.712487
0.712486
0.712485
0.712485
0.712485
0.712486
0.712487
0.71249
0.712493
0.712497
0.712502
0.712508
0.712516
0.712524
0.712533
0.712543
0.712554
0.712567
0.71258
0.712595
0.71261
0.712627
0.712646
0.712665
0.712686
0.712708
0.712732
0.712757
0.712784
0.712813
0.712844
0.712876
0.712911
0.712948
0.712988
0.713029
0.713074
0.71312
0.713169
0.713221
0.713275
0.713331
0.713389
0.713449
0.71351
0.713573
0.713636
0.7137
0.713764
0.713828
0.713891
0.713953
0.714014
0.714072
0.714129
0.714182
0.714233
0.71428
0.714324
0.714364
0.7144
0.714433
0.714462
0.714488
0.71451
0.714528
0.714544
0.714557
0.714567
0.714575
0.714581
0.714585
0.714588
0.714589
0.71459
0.71459
0.71459
0.714589
0.714588
0.714587
0.714587
0.714586
0.714586
0.714587
0.714588
0.714589
0.71459
0.714592
0.714595
0.714598
0.714601
0.714604
0.714607
0.714611
0.714615
0.714619
0.714623
0.714626
0.71463
0.714634
0.714638
0.714641
0.714644
0.714647
0.71465
0.714653
0.714655
0.714657
0.714659
0.714661
0.714662
0.714663
0.714664
0.714664
0.714665
0.714665
0.714665
0.714664
0.714664
0.714663
0.714662
0.714661
0.71466
0.714658
0.714657
0.714655
0.714653
0.714651
0.71465
0.714648
0.714646
0.714644
0.714641
0.714639
0.714637
0.714635
0.714633
0.714631
0.714628
0.714626
0.714624
0.714622
0.71462
0.714617
0.714615
0.714613
0.714611
0.714608
0.714606
0.714603
0.714601
0.714598
0.714596
0.714593
0.71459
0.714586
0.714583
0.714579
0.714575
0.714571
0.714567
0.714562
0.714557
0.714552
0.714547
0.714541
0.714535
0.714528
0.714521
0.714514
0.714507
0.7145
0.714492
0.714484
0.714476
0.714468
0.714459
0.714451
0.714442
0.714433
0.714424
0.714416
0.714407
0.714398
0.71439
0.714381
0.714373
0.714365
0.714357
0.714349
0.714341
0.714334
0.714327
0.71432
0.714313
0.714306
0.7143
0.714294
0.714289
0.712483
0.712483
0.712481
0.712482
0.712482
0.712483
0.712483
0.712485
0.712487
0.712491
0.712495
0.7125
0.712506
0.712513
0.712522
0.712531
0.712541
0.712552
0.712565
0.712578
0.712593
0.712608
0.712625
0.712643
0.712663
0.712683
0.712705
0.712729
0.712754
0.712781
0.712809
0.71284
0.712872
0.712907
0.712943
0.712982
0.713024
0.713068
0.713114
0.713163
0.713214
0.713268
0.713324
0.713381
0.713441
0.713502
0.713565
0.713628
0.713691
0.713755
0.713819
0.713881
0.713943
0.714003
0.714061
0.714116
0.714169
0.714219
0.714266
0.714309
0.714349
0.714385
0.714417
0.714446
0.714471
0.714492
0.714511
0.714526
0.714539
0.714549
0.714557
0.714563
0.714568
0.714571
0.714573
0.714574
0.714575
0.714576
0.714576
0.714576
0.714576
0.714576
0.714577
0.714578
0.714579
0.71458
0.714582
0.714585
0.714587
0.714591
0.714594
0.714598
0.714601
0.714606
0.71461
0.714614
0.714618
0.714623
0.714627
0.714631
0.714635
0.714639
0.714643
0.714646
0.71465
0.714653
0.714655
0.714658
0.71466
0.714662
0.714663
0.714665
0.714666
0.714666
0.714667
0.714667
0.714667
0.714667
0.714666
0.714666
0.714665
0.714664
0.714663
0.714661
0.71466
0.714658
0.714656
0.714654
0.714653
0.714651
0.714648
0.714646
0.714644
0.714642
0.71464
0.714637
0.714635
0.714633
0.714631
0.714628
0.714626
0.714624
0.714621
0.714619
0.714617
0.714615
0.714612
0.71461
0.714607
0.714605
0.714603
0.7146
0.714597
0.714594
0.714591
0.714588
0.714585
0.714582
0.714578
0.714574
0.71457
0.714565
0.714561
0.714556
0.714551
0.714545
0.714539
0.714533
0.714527
0.71452
0.714513
0.714506
0.714499
0.714491
0.714483
0.714475
0.714467
0.714459
0.71445
0.714442
0.714433
0.714424
0.714416
0.714407
0.714398
0.71439
0.714381
0.714373
0.714365
0.714357
0.714349
0.714341
0.714334
0.714327
0.714319
0.714313
0.714306
0.7143
0.714293
0.714288
0.71248
0.71248
0.712478
0.712478
0.712477
0.712477
0.712478
0.71248
0.712483
0.712486
0.712491
0.712496
0.712503
0.71251
0.712518
0.712528
0.712538
0.712549
0.712562
0.712575
0.71259
0.712606
0.712623
0.712641
0.71266
0.712681
0.712703
0.712726
0.712751
0.712778
0.712806
0.712836
0.712869
0.712903
0.71294
0.712978
0.71302
0.713064
0.71311
0.713159
0.71321
0.713263
0.713319
0.713376
0.713435
0.713496
0.713558
0.713621
0.713684
0.713747
0.713809
0.713871
0.713931
0.71399
0.714047
0.714101
0.714153
0.714201
0.714246
0.714288
0.714326
0.714361
0.714392
0.714419
0.714443
0.714464
0.714482
0.714496
0.714509
0.714519
0.714527
0.714533
0.714538
0.714542
0.714544
0.714547
0.714548
0.71455
0.714551
0.714552
0.714554
0.714556
0.714557
0.71456
0.714562
0.714565
0.714569
0.714572
0.714576
0.71458
0.714585
0.71459
0.714594
0.7146
0.714605
0.71461
0.714615
0.71462
0.714625
0.71463
0.714635
0.714639
0.714643
0.714647
0.714651
0.714655
0.714658
0.714661
0.714663
0.714665
0.714667
0.714668
0.71467
0.714671
0.714671
0.714671
0.714671
0.714671
0.714671
0.71467
0.714669
0.714668
0.714666
0.714665
0.714663
0.714661
0.71466
0.714658
0.714656
0.714653
0.714651
0.714649
0.714647
0.714644
0.714642
0.714639
0.714637
0.714634
0.714632
0.71463
0.714627
0.714625
0.714622
0.71462
0.714617
0.714615
0.714612
0.71461
0.714607
0.714605
0.714602
0.714599
0.714596
0.714593
0.71459
0.714587
0.714583
0.71458
0.714576
0.714572
0.714568
0.714563
0.714558
0.714553
0.714548
0.714542
0.714537
0.714531
0.714524
0.714518
0.714511
0.714504
0.714496
0.714489
0.714481
0.714474
0.714466
0.714457
0.714449
0.714441
0.714432
0.714424
0.714415
0.714407
0.714399
0.71439
0.714382
0.714374
0.714366
0.714358
0.71435
0.714342
0.714334
0.714327
0.71432
0.714313
0.714306
0.714299
0.714293
0.714287
0.712448
0.712463
0.712463
0.712469
0.71247
0.712473
0.712474
0.712477
0.71248
0.712484
0.712488
0.712494
0.712501
0.712508
0.712516
0.712526
0.712536
0.712548
0.71256
0.712574
0.712589
0.712604
0.712621
0.712639
0.712659
0.712679
0.712701
0.712725
0.71275
0.712776
0.712805
0.712835
0.712868
0.712902
0.712939
0.712978
0.713019
0.713063
0.713109
0.713158
0.713209
0.713262
0.713317
0.713374
0.713433
0.713493
0.713554
0.713615
0.713677
0.713739
0.7138
0.71386
0.713918
0.713975
0.714029
0.714081
0.71413
0.714176
0.714219
0.714258
0.714294
0.714326
0.714355
0.71438
0.714402
0.714421
0.714438
0.714452
0.714463
0.714473
0.714481
0.714488
0.714493
0.714498
0.714502
0.714505
0.714508
0.714511
0.714515
0.714518
0.714521
0.714525
0.714529
0.714533
0.714537
0.714542
0.714547
0.714553
0.714558
0.714564
0.71457
0.714577
0.714583
0.714589
0.714596
0.714602
0.714608
0.714615
0.714621
0.714627
0.714632
0.714638
0.714643
0.714648
0.714652
0.714656
0.71466
0.714664
0.714667
0.714669
0.714672
0.714674
0.714675
0.714676
0.714677
0.714678
0.714678
0.714678
0.714677
0.714677
0.714676
0.714674
0.714673
0.714671
0.71467
0.714668
0.714666
0.714663
0.714661
0.714659
0.714656
0.714654
0.714651
0.714649
0.714646
0.714643
0.714641
0.714638
0.714635
0.714633
0.71463
0.714627
0.714624
0.714622
0.714619
0.714616
0.714613
0.714611
0.714608
0.714605
0.714602
0.714599
0.714595
0.714592
0.714589
0.714585
0.714581
0.714577
0.714573
0.714569
0.714564
0.71456
0.714555
0.714549
0.714544
0.714538
0.714532
0.714526
0.71452
0.714513
0.714507
0.7145
0.714493
0.714485
0.714478
0.71447
0.714463
0.714455
0.714447
0.714439
0.714431
0.714423
0.714415
0.714407
0.714398
0.71439
0.714382
0.714374
0.714366
0.714359
0.714351
0.714343
0.714336
0.714328
0.714321
0.714314
0.714306
0.714299
0.714292
0.714286
0.712448
0.712464
0.712463
0.712466
0.712466
0.712469
0.712471
0.712474
0.712478
0.712482
0.712487
0.712493
0.7125
0.712507
0.712516
0.712526
0.712536
0.712548
0.71256
0.712574
0.712589
0.712605
0.712622
0.71264
0.71266
0.712681
0.712703
0.712727
0.712752
0.712779
0.712808
0.712839
0.712871
0.712906
0.712943
0.712983
0.713025
0.713069
0.713115
0.713164
0.713215
0.713268
0.713323
0.713379
0.713437
0.713496
0.713556
0.713616
0.713676
0.713735
0.713794
0.713851
0.713906
0.71396
0.714011
0.714059
0.714105
0.714147
0.714186
0.714221
0.714254
0.714283
0.714308
0.714331
0.714351
0.714368
0.714382
0.714395
0.714406
0.714415
0.714424
0.714431
0.714437
0.714443
0.714448
0.714454
0.714459
0.714464
0.71447
0.714475
0.714481
0.714487
0.714493
0.7145
0.714507
0.714514
0.714521
0.714529
0.714536
0.714544
0.714552
0.71456
0.714568
0.714576
0.714584
0.714592
0.714599
0.714607
0.714614
0.714621
0.714628
0.714635
0.714641
0.714647
0.714652
0.714657
0.714662
0.714667
0.71467
0.714674
0.714677
0.714679
0.714682
0.714683
0.714685
0.714686
0.714686
0.714686
0.714686
0.714686
0.714685
0.714684
0.714682
0.714681
0.714679
0.714677
0.714675
0.714673
0.71467
0.714668
0.714665
0.714662
0.714659
0.714656
0.714653
0.71465
0.714647
0.714644
0.714641
0.714638
0.714635
0.714632
0.714629
0.714626
0.714623
0.714619
0.714616
0.714613
0.714609
0.714606
0.714603
0.714599
0.714595
0.714591
0.714588
0.714583
0.714579
0.714575
0.71457
0.714565
0.714561
0.714555
0.71455
0.714545
0.714539
0.714533
0.714527
0.714521
0.714514
0.714508
0.714501
0.714494
0.714487
0.71448
0.714473
0.714466
0.714459
0.714451
0.714444
0.714436
0.714429
0.714421
0.714413
0.714406
0.714398
0.71439
0.714383
0.714375
0.714367
0.71436
0.714352
0.714345
0.714337
0.71433
0.714322
0.714315
0.714308
0.7143
0.714292
0.714285
0.712294
0.712432
0.712449
0.71247
0.712473
0.712476
0.712478
0.71248
0.712483
0.712487
0.712491
0.712497
0.712503
0.712511
0.712519
0.712529
0.71254
0.712551
0.712564
0.712578
0.712593
0.712609
0.712627
0.712645
0.712665
0.712687
0.71271
0.712734
0.71276
0.712788
0.712818
0.71285
0.712883
0.712919
0.712957
0.712997
0.71304
0.713085
0.713132
0.713181
0.713232
0.713284
0.713339
0.713395
0.713451
0.713509
0.713567
0.713624
0.713682
0.713738
0.713793
0.713846
0.713898
0.713947
0.713994
0.714037
0.714078
0.714115
0.714149
0.71418
0.714208
0.714233
0.714255
0.714275
0.714292
0.714307
0.71432
0.714332
0.714343
0.714352
0.714361
0.714369
0.714377
0.714385
0.714392
0.7144
0.714407
0.714415
0.714423
0.714431
0.71444
0.714448
0.714457
0.714466
0.714475
0.714485
0.714494
0.714504
0.714514
0.714523
0.714533
0.714543
0.714552
0.714562
0.714571
0.714581
0.71459
0.714599
0.714607
0.714616
0.714624
0.714631
0.714639
0.714646
0.714652
0.714658
0.714664
0.714669
0.714674
0.714679
0.714683
0.714686
0.714689
0.714691
0.714693
0.714695
0.714696
0.714697
0.714697
0.714697
0.714696
0.714695
0.714694
0.714693
0.714691
0.714689
0.714687
0.714684
0.714682
0.714679
0.714676
0.714673
0.71467
0.714667
0.714664
0.71466
0.714657
0.714653
0.71465
0.714646
0.714643
0.714639
0.714635
0.714632
0.714628
0.714624
0.71462
0.714616
0.714612
0.714608
0.714604
0.7146
0.714596
0.714591
0.714587
0.714582
0.714577
0.714572
0.714567
0.714562
0.714556
0.714551
0.714545
0.714539
0.714533
0.714527
0.714521
0.714514
0.714508
0.714501
0.714495
0.714488
0.714481
0.714474
0.714467
0.714461
0.714454
0.714447
0.71444
0.714433
0.714426
0.714419
0.714412
0.714405
0.714397
0.71439
0.714383
0.714376
0.714369
0.714361
0.714354
0.714347
0.714339
0.714332
0.714324
0.714317
0.714309
0.714301
0.714293
0.714285
0.713018
0.712962
0.7129
0.712833
0.71276
0.712683
0.712596
0.712478
0.713024
0.712978
0.712915
0.712846
0.712773
0.712695
0.712605
0.712509
0.713028
0.712989
0.712931
0.712866
0.712797
0.712725
0.712655
0.712585
0.713038
0.713004
0.712951
0.71289
0.712826
0.712762
0.712699
0.712641
0.71305
0.713018
0.712969
0.712912
0.712854
0.712796
0.712742
0.712694
0.713065
0.713032
0.712983
0.712929
0.712875
0.712823
0.712775
0.712733
0.71308
0.713042
0.712992
0.71294
0.712889
0.71284
0.712796
0.712756
0.713087
0.71304
0.71299
0.71294
0.712891
0.712845
0.712802
0.712763
0.712417
0.712438
0.712458
0.712469
0.712475
0.712478
0.712481
0.712483
0.712486
0.71249
0.712495
0.712501
0.712508
0.712515
0.712524
0.712534
0.712545
0.712558
0.712571
0.712585
0.712601
0.712618
0.712637
0.712656
0.712677
0.7127
0.712724
0.71275
0.712778
0.712807
0.712838
0.712871
0.712907
0.712944
0.712983
0.713025
0.713069
0.713114
0.713162
0.713211
0.713262
0.713315
0.713369
0.713423
0.713478
0.713534
0.713589
0.713643
0.713697
0.713749
0.7138
0.713848
0.713895
0.713938
0.713979
0.714017
0.714052
0.714084
0.714112
0.714139
0.714162
0.714183
0.714202
0.714218
0.714233
0.714247
0.71426
0.714271
0.714282
0.714293
0.714303
0.714313
0.714323
0.714332
0.714342
0.714352
0.714363
0.714373
0.714383
0.714394
0.714405
0.714416
0.714427
0.714438
0.714449
0.714461
0.714472
0.714483
0.714495
0.714506
0.714517
0.714528
0.714539
0.71455
0.714561
0.714571
0.714582
0.714592
0.714601
0.714611
0.71462
0.714629
0.714637
0.714645
0.714653
0.71466
0.714667
0.714673
0.714678
0.714684
0.714688
0.714693
0.714696
0.7147
0.714702
0.714705
0.714706
0.714707
0.714708
0.714709
0.714709
0.714708
0.714707
0.714706
0.714704
0.714702
0.7147
0.714698
0.714695
0.714692
0.714689
0.714686
0.714683
0.714679
0.714675
0.714672
0.714668
0.714664
0.71466
0.714656
0.714652
0.714647
0.714643
0.714639
0.714635
0.71463
0.714626
0.714621
0.714616
0.714612
0.714607
0.714602
0.714597
0.714591
0.714586
0.714581
0.714575
0.714569
0.714564
0.714558
0.714552
0.714546
0.714539
0.714533
0.714527
0.71452
0.714514
0.714507
0.714501
0.714494
0.714488
0.714481
0.714474
0.714468
0.714461
0.714455
0.714449
0.714442
0.714436
0.714429
0.714423
0.714416
0.71441
0.714403
0.714397
0.71439
0.714383
0.714377
0.71437
0.714363
0.714356
0.714349
0.714342
0.714334
0.714327
0.714319
0.714311
0.714303
0.714295
0.714287
0.712438
0.712448
0.712461
0.712474
0.712481
0.712486
0.712489
0.712492
0.712496
0.7125
0.712504
0.71251
0.712517
0.712525
0.712534
0.712545
0.712556
0.712569
0.712584
0.712599
0.712616
0.712634
0.712654
0.712675
0.712698
0.712722
0.712748
0.712776
0.712806
0.712837
0.71287
0.712906
0.712943
0.712982
0.713023
0.713067
0.713112
0.713158
0.713207
0.713256
0.713307
0.713359
0.713412
0.713464
0.713517
0.713569
0.713621
0.713671
0.71372
0.713767
0.713812
0.713855
0.713895
0.713932
0.713967
0.713999
0.714028
0.714054
0.714078
0.7141
0.714119
0.714137
0.714154
0.714169
0.714183
0.714197
0.71421
0.714222
0.714234
0.714246
0.714258
0.71427
0.714282
0.714294
0.714306
0.714319
0.714331
0.714343
0.714356
0.714368
0.714381
0.714394
0.714406
0.714419
0.714432
0.714444
0.714457
0.71447
0.714482
0.714494
0.714507
0.714519
0.714531
0.714543
0.714554
0.714566
0.714577
0.714588
0.714598
0.714608
0.714618
0.714628
0.714637
0.714646
0.714654
0.714662
0.71467
0.714677
0.714683
0.714689
0.714694
0.714699
0.714704
0.714708
0.714711
0.714714
0.714716
0.714718
0.714719
0.71472
0.71472
0.71472
0.71472
0.714719
0.714717
0.714716
0.714713
0.714711
0.714708
0.714705
0.714702
0.714699
0.714695
0.714691
0.714687
0.714683
0.714679
0.714675
0.71467
0.714666
0.714661
0.714656
0.714651
0.714646
0.714641
0.714636
0.714631
0.714626
0.71462
0.714615
0.714609
0.714603
0.714598
0.714592
0.714586
0.714579
0.714573
0.714567
0.71456
0.714554
0.714547
0.714541
0.714534
0.714527
0.714521
0.714514
0.714507
0.714501
0.714494
0.714488
0.714481
0.714475
0.714468
0.714462
0.714456
0.71445
0.714444
0.714438
0.714432
0.714426
0.71442
0.714414
0.714408
0.714402
0.714396
0.71439
0.714384
0.714378
0.714371
0.714365
0.714358
0.714351
0.714344
0.714337
0.714329
0.714321
0.714313
0.714305
0.714297
0.714288
0.712533
0.712509
0.712503
0.712502
0.712504
0.712505
0.712506
0.712508
0.71251
0.712513
0.712518
0.712524
0.712531
0.712539
0.712549
0.71256
0.712572
0.712586
0.712601
0.712618
0.712637
0.712657
0.712678
0.712701
0.712726
0.712753
0.712781
0.712811
0.712843
0.712877
0.712912
0.71295
0.71299
0.713031
0.713074
0.713119
0.713165
0.713212
0.713261
0.713311
0.713361
0.713411
0.713462
0.713512
0.713561
0.71361
0.713657
0.713702
0.713746
0.713787
0.713826
0.713862
0.713896
0.713927
0.713956
0.713982
0.714006
0.714028
0.714049
0.714068
0.714086
0.714102
0.714118
0.714134
0.714148
0.714163
0.714177
0.714191
0.714204
0.714218
0.714232
0.714245
0.714259
0.714273
0.714286
0.7143
0.714313
0.714327
0.714341
0.714354
0.714368
0.714381
0.714395
0.714409
0.714422
0.714435
0.714449
0.714462
0.714475
0.714488
0.714501
0.714514
0.714526
0.714539
0.714551
0.714563
0.714575
0.714586
0.714597
0.714608
0.714618
0.714628
0.714638
0.714648
0.714656
0.714665
0.714673
0.714681
0.714688
0.714694
0.7147
0.714706
0.714711
0.714715
0.714719
0.714722
0.714725
0.714727
0.714729
0.71473
0.714731
0.714731
0.714731
0.71473
0.714729
0.714727
0.714725
0.714723
0.71472
0.714717
0.714714
0.71471
0.714706
0.714702
0.714698
0.714694
0.714689
0.714684
0.714679
0.714674
0.714669
0.714664
0.714658
0.714653
0.714647
0.714642
0.714636
0.71463
0.714624
0.714617
0.714611
0.714605
0.714598
0.714592
0.714585
0.714578
0.714571
0.714564
0.714558
0.714551
0.714544
0.714537
0.71453
0.714523
0.714516
0.714509
0.714502
0.714495
0.714489
0.714482
0.714476
0.71447
0.714463
0.714457
0.714452
0.714446
0.71444
0.714435
0.714429
0.714424
0.714418
0.714413
0.714407
0.714402
0.714396
0.71439
0.714384
0.714378
0.714372
0.714366
0.714359
0.714353
0.714346
0.714338
0.714331
0.714323
0.714315
0.714307
0.714298
0.71429
0.712594
0.712567
0.712551
0.712543
0.712539
0.712535
0.712533
0.712532
0.712533
0.712534
0.712538
0.712542
0.712549
0.712557
0.712567
0.712578
0.712591
0.712606
0.712622
0.71264
0.71266
0.712682
0.712705
0.71273
0.712757
0.712785
0.712816
0.712848
0.712883
0.712919
0.712957
0.712996
0.713038
0.713081
0.713125
0.713171
0.713218
0.713266
0.713314
0.713363
0.713411
0.71346
0.713507
0.713554
0.7136
0.713643
0.713685
0.713726
0.713763
0.713799
0.713832
0.713863
0.713892
0.713919
0.713944
0.713967
0.713989
0.714009
0.714029
0.714047
0.714065
0.714082
0.714098
0.714114
0.71413
0.714145
0.71416
0.714175
0.71419
0.714205
0.71422
0.714234
0.714249
0.714263
0.714277
0.714292
0.714306
0.71432
0.714334
0.714348
0.714362
0.714376
0.71439
0.714404
0.714418
0.714432
0.714446
0.714459
0.714473
0.714486
0.714499
0.714512
0.714525
0.714538
0.71455
0.714563
0.714575
0.714586
0.714598
0.714609
0.71462
0.71463
0.71464
0.71465
0.714659
0.714668
0.714677
0.714685
0.714692
0.714699
0.714705
0.714711
0.714716
0.714721
0.714725
0.714729
0.714732
0.714735
0.714737
0.714738
0.714739
0.714739
0.714739
0.714738
0.714737
0.714736
0.714734
0.714732
0.714729
0.714726
0.714722
0.714719
0.714715
0.714711
0.714706
0.714701
0.714696
0.714691
0.714686
0.714681
0.714675
0.714669
0.714664
0.714658
0.714651
0.714645
0.714639
0.714632
0.714626
0.714619
0.714612
0.714605
0.714598
0.714591
0.714584
0.714577
0.71457
0.714562
0.714555
0.714548
0.71454
0.714533
0.714526
0.714519
0.714512
0.714505
0.714498
0.714492
0.714485
0.714479
0.714472
0.714466
0.71446
0.714455
0.714449
0.714443
0.714438
0.714433
0.714427
0.714422
0.714417
0.714412
0.714407
0.714402
0.714396
0.714391
0.714385
0.714379
0.714373
0.714367
0.714361
0.714354
0.714347
0.71434
0.714333
0.714325
0.714317
0.714308
0.7143
0.714291
0.712655
0.712625
0.712605
0.71259
0.712579
0.712571
0.712564
0.71256
0.712557
0.712556
0.712558
0.712561
0.712567
0.712574
0.712584
0.712595
0.712609
0.712624
0.712641
0.71266
0.712681
0.712704
0.712729
0.712756
0.712784
0.712815
0.712847
0.712881
0.712918
0.712955
0.712995
0.713036
0.713079
0.713123
0.713168
0.713214
0.71326
0.713307
0.713354
0.713401
0.713448
0.713493
0.713537
0.713581
0.713622
0.713662
0.7137
0.713736
0.71377
0.713802
0.713832
0.71386
0.713886
0.71391
0.713934
0.713956
0.713977
0.713997
0.714017
0.714036
0.714054
0.714072
0.71409
0.714106
0.714123
0.714139
0.714155
0.71417
0.714186
0.714201
0.714216
0.714231
0.714245
0.71426
0.714274
0.714289
0.714303
0.714318
0.714332
0.714346
0.714361
0.714375
0.714389
0.714403
0.714417
0.714431
0.714445
0.714459
0.714472
0.714486
0.714499
0.714512
0.714525
0.714538
0.714551
0.714563
0.714576
0.714587
0.714599
0.71461
0.714622
0.714632
0.714642
0.714652
0.714662
0.714671
0.71468
0.714688
0.714695
0.714703
0.714709
0.714715
0.714721
0.714726
0.71473
0.714734
0.714737
0.71474
0.714742
0.714743
0.714744
0.714745
0.714745
0.714744
0.714743
0.714742
0.71474
0.714737
0.714735
0.714732
0.714728
0.714724
0.71472
0.714716
0.714711
0.714706
0.714701
0.714696
0.71469
0.714685
0.714679
0.714673
0.714667
0.71466
0.714654
0.714647
0.71464
0.714634
0.714627
0.714619
0.714612
0.714605
0.714598
0.71459
0.714583
0.714576
0.714568
0.714561
0.714553
0.714546
0.714538
0.714531
0.714524
0.714517
0.71451
0.714503
0.714496
0.714489
0.714483
0.714477
0.71447
0.714464
0.714459
0.714453
0.714448
0.714442
0.714437
0.714432
0.714427
0.714422
0.714417
0.714412
0.714407
0.714402
0.714397
0.714391
0.714386
0.71438
0.714374
0.714368
0.714362
0.714355
0.714348
0.714341
0.714333
0.714326
0.714317
0.714309
0.7143
0.714292
0.712696
0.712667
0.712643
0.712624
0.712608
0.712596
0.712585
0.712578
0.712573
0.71257
0.71257
0.712573
0.712578
0.712585
0.712594
0.712606
0.71262
0.712635
0.712653
0.712673
0.712695
0.712719
0.712745
0.712772
0.712802
0.712834
0.712867
0.712902
0.712939
0.712978
0.713018
0.713059
0.713102
0.713146
0.713191
0.713236
0.713282
0.713328
0.713373
0.713418
0.713462
0.713506
0.713547
0.713588
0.713627
0.713664
0.713699
0.713733
0.713765
0.713795
0.713824
0.713851
0.713877
0.713903
0.713927
0.71395
0.713972
0.713993
0.714013
0.714033
0.714051
0.71407
0.714087
0.714104
0.714121
0.714137
0.714153
0.714169
0.714184
0.714199
0.714214
0.714229
0.714244
0.714259
0.714274
0.714288
0.714303
0.714317
0.714332
0.714346
0.714361
0.714375
0.714389
0.714403
0.714417
0.714431
0.714445
0.714459
0.714473
0.714487
0.7145
0.714513
0.714527
0.71454
0.714552
0.714565
0.714577
0.714589
0.714601
0.714612
0.714624
0.714634
0.714645
0.714655
0.714664
0.714674
0.714682
0.714691
0.714698
0.714706
0.714712
0.714718
0.714724
0.714729
0.714733
0.714737
0.714741
0.714743
0.714746
0.714747
0.714748
0.714749
0.714749
0.714748
0.714747
0.714745
0.714743
0.714741
0.714738
0.714735
0.714731
0.714727
0.714723
0.714718
0.714714
0.714709
0.714703
0.714698
0.714692
0.714686
0.71468
0.714674
0.714667
0.714661
0.714654
0.714647
0.71464
0.714633
0.714626
0.714619
0.714612
0.714604
0.714597
0.71459
0.714582
0.714575
0.714567
0.71456
0.714552
0.714545
0.714537
0.71453
0.714523
0.714516
0.714509
0.714502
0.714495
0.714489
0.714482
0.714476
0.71447
0.714464
0.714458
0.714453
0.714447
0.714442
0.714437
0.714432
0.714427
0.714422
0.714417
0.714412
0.714407
0.714402
0.714397
0.714392
0.714386
0.714381
0.714375
0.714369
0.714362
0.714356
0.714349
0.714341
0.714334
0.714326
0.714318
0.714309
0.7143
0.714292
0.712721
0.712691
0.712665
0.712643
0.712624
0.712608
0.712595
0.712586
0.71258
0.712576
0.712576
0.712578
0.712583
0.71259
0.712599
0.712611
0.712625
0.712641
0.712659
0.71268
0.712702
0.712726
0.712752
0.71278
0.71281
0.712842
0.712876
0.712911
0.712948
0.712987
0.713027
0.713068
0.71311
0.713154
0.713197
0.713242
0.713286
0.713331
0.713375
0.713418
0.713461
0.713503
0.713543
0.713583
0.713621
0.713658
0.713694
0.713728
0.713761
0.713792
0.713821
0.713849
0.713876
0.713901
0.713925
0.713948
0.71397
0.713991
0.714011
0.714031
0.71405
0.714068
0.714086
0.714103
0.71412
0.714136
0.714152
0.714168
0.714184
0.714199
0.714214
0.714229
0.714244
0.714259
0.714274
0.714288
0.714303
0.714318
0.714332
0.714347
0.714361
0.714375
0.71439
0.714404
0.714418
0.714432
0.714446
0.71446
0.714474
0.714487
0.714501
0.714514
0.714527
0.71454
0.714553
0.714566
0.714578
0.71459
0.714602
0.714614
0.714625
0.714636
0.714646
0.714656
0.714666
0.714675
0.714684
0.714692
0.7147
0.714707
0.714714
0.71472
0.714726
0.714731
0.714735
0.714739
0.714742
0.714745
0.714747
0.714749
0.71475
0.71475
0.71475
0.714749
0.714748
0.714747
0.714745
0.714742
0.714739
0.714736
0.714732
0.714728
0.714724
0.714719
0.714714
0.714709
0.714704
0.714698
0.714692
0.714686
0.71468
0.714674
0.714667
0.714661
0.714654
0.714647
0.71464
0.714633
0.714626
0.714619
0.714611
0.714604
0.714596
0.714589
0.714581
0.714574
0.714566
0.714559
0.714552
0.714544
0.714537
0.71453
0.714522
0.714515
0.714508
0.714502
0.714495
0.714488
0.714482
0.714476
0.71447
0.714464
0.714458
0.714453
0.714447
0.714442
0.714437
0.714432
0.714427
0.714422
0.714417
0.714412
0.714407
0.714402
0.714397
0.714392
0.714387
0.714381
0.714375
0.714369
0.714362
0.714356
0.714349
0.714341
0.714334
0.714326
0.714318
0.714309
0.7143
0.714291
0.712727
0.712695
0.712667
0.712643
0.712622
0.712605
0.712591
0.712582
0.712575
0.712571
0.712571
0.712573
0.712578
0.712585
0.712595
0.712607
0.712621
0.712637
0.712655
0.712675
0.712697
0.712722
0.712748
0.712776
0.712805
0.712837
0.71287
0.712905
0.712942
0.71298
0.71302
0.713061
0.713103
0.713145
0.713189
0.713233
0.713278
0.713322
0.713367
0.71341
0.713454
0.713496
0.713537
0.713577
0.713616
0.713653
0.713689
0.713724
0.713756
0.713787
0.713817
0.713845
0.713872
0.713897
0.713922
0.713945
0.713968
0.713989
0.71401
0.71403
0.714049
0.714067
0.714085
0.714102
0.714119
0.714136
0.714152
0.714168
0.714184
0.714199
0.714214
0.71423
0.714245
0.714259
0.714274
0.714289
0.714304
0.714318
0.714333
0.714347
0.714362
0.714376
0.714391
0.714405
0.714419
0.714433
0.714447
0.714461
0.714475
0.714489
0.714502
0.714516
0.714529
0.714542
0.714555
0.714568
0.71458
0.714592
0.714604
0.714616
0.714627
0.714638
0.714648
0.714658
0.714668
0.714677
0.714686
0.714694
0.714702
0.71471
0.714716
0.714722
0.714728
0.714733
0.714737
0.714741
0.714744
0.714747
0.714749
0.714751
0.714752
0.714752
0.714752
0.714751
0.71475
0.714748
0.714746
0.714743
0.71474
0.714737
0.714733
0.714729
0.714724
0.71472
0.714714
0.714709
0.714704
0.714698
0.714692
0.714686
0.71468
0.714673
0.714667
0.71466
0.714653
0.714646
0.714639
0.714632
0.714625
0.714618
0.71461
0.714603
0.714596
0.714588
0.714581
0.714573
0.714566
0.714558
0.714551
0.714544
0.714536
0.714529
0.714522
0.714515
0.714508
0.714502
0.714495
0.714489
0.714482
0.714476
0.71447
0.714464
0.714459
0.714453
0.714448
0.714443
0.714438
0.714433
0.714428
0.714423
0.714418
0.714413
0.714408
0.714403
0.714398
0.714393
0.714387
0.714381
0.714375
0.714369
0.714363
0.714356
0.714349
0.714342
0.714334
0.714326
0.714318
0.714309
0.7143
0.714291
)
;

boundaryField
{
    inlet
    {
        type            zeroGradient;
    }
    outlet
    {