/*--------------------------------*- C++ -*----------------------------------*\
| =========                 |                                                 |
| \\      /  F ield         | OpenFOAM: The Open Source CFD Toolbox           |
|  \\    /   O peration     | Version:  4.1                                   |
|   \\  /    A nd           | Web:      www.OpenFOAM.org                      |
|    \\/     M anipulation  |                                                 |
\*---------------------------------------------------------------------------*/
FoamFile
{
    version     2.0;
    format      ascii;
    class       volVectorField;
    location    "5310";
    object      U;
}
// * * * * * * * * * * * * * * * * * * * * * * * * * * * * * * * * * * * * * //

dimensions      [0 1 -1 0 0 0 0];

internalField   nonuniform List<vector> 
1275
(
(0.0113877 -2.42409e-05 0)
(0.0116963 -7.29879e-06 0)
(0.0119431 8.02187e-06 0)
(0.0121309 2.16391e-05 0)
(0.0122635 3.34389e-05 0)
(0.0123444 4.34996e-05 0)
(0.0123775 5.17698e-05 0)
(0.0123667 5.83986e-05 0)
(0.012316 6.34088e-05 0)
(0.0122292 6.69828e-05 0)
(0.0121101 6.92001e-05 0)
(0.0119626 7.02539e-05 0)
(0.0117898 7.02563e-05 0)
(0.0115953 6.93944e-05 0)
(0.011382 6.77905e-05 0)
(0.0111528 6.56127e-05 0)
(0.0109103 6.29764e-05 0)
(0.0106569 6.00219e-05 0)
(0.0103947 5.68462e-05 0)
(0.0101258 5.35579e-05 0)
(0.00985178 5.02296e-05 0)
(0.00957425 4.69379e-05 0)
(0.00929454 4.37305e-05 0)
(0.0090139 4.06549e-05 0)
(0.00873335 3.77365e-05 0)
(0.00845386 3.49987e-05 0)
(0.00817621 3.24489e-05 0)
(0.00790115 3.00926e-05 0)
(0.00762927 2.79243e-05 0)
(0.00736115 2.59378e-05 0)
(0.00709724 2.41194e-05 0)
(0.00683798 2.24562e-05 0)
(0.00658373 2.0931e-05 0)
(0.00633481 1.95282e-05 0)
(0.00609149 1.82304e-05 0)
(0.00585403 1.70222e-05 0)
(0.00562264 1.58883e-05 0)
(0.00539749 1.48158e-05 0)
(0.00517875 1.37924e-05 0)
(0.00496653 1.28089e-05 0)
(0.00476095 1.1857e-05 0)
(0.00456207 1.0931e-05 0)
(0.00436997 1.00269e-05 0)
(0.00418467 9.14231e-06 0)
(0.0040062 8.27648e-06 0)
(0.00383455 7.43008e-06 0)
(0.00366971 6.60466e-06 0)
(0.00351163 5.80276e-06 0)
(0.00336028 5.02727e-06 0)
(0.00321558 4.28149e-06 0)
(0.00307746 3.56859e-06 0)
(0.00294583 2.89159e-06 0)
(0.0028206 2.25302e-06 0)
(0.00270165 1.65489e-06 0)
(0.00258887 1.09847e-06 0)
(0.00248214 5.84347e-07 0)
(0.00238133 1.12284e-07 0)
(0.00228631 -3.18641e-07 0)
(0.00219694 -7.10055e-07 0)
(0.0021131 -1.06415e-06 0)
(0.00203464 -1.3836e-06 0)
(0.00196141 -1.67143e-06 0)
(0.0018933 -1.93091e-06 0)
(0.00183015 -2.16542e-06 0)
(0.00177182 -2.37835e-06 0)
(0.0017182 -2.57298e-06 0)
(0.00166914 -2.75244e-06 0)
(0.00162451 -2.91964e-06 0)
(0.00158419 -3.0772e-06 0)
(0.00154807 -3.22747e-06 0)
(0.00151601 -3.37248e-06 0)
(0.00148791 -3.51397e-06 0)
(0.00146365 -3.65341e-06 0)
(0.00144313 -3.79199e-06 0)
(0.00142625 -3.93067e-06 0)
(0.00141291 -4.07019e-06 0)
(0.001403 -4.2111e-06 0)
(0.00139644 -4.35381e-06 0)
(0.00139315 -4.49857e-06 0)
(0.00139302 -4.64552e-06 0)
(0.00139598 -4.7947e-06 0)
(0.00140194 -4.94604e-06 0)
(0.00141082 -5.09941e-06 0)
(0.00142254 -5.25461e-06 0)
(0.00143703 -5.41137e-06 0)
(0.0014542 -5.56937e-06 0)
(0.00147398 -5.72823e-06 0)
(0.00149628 -5.88752e-06 0)
(0.00152104 -6.04677e-06 0)
(0.00154817 -6.20548e-06 0)
(0.00157759 -6.36307e-06 0)
(0.00160923 -6.51901e-06 0)
(0.00164301 -6.67265e-06 0)
(0.00167883 -6.82344e-06 0)
(0.00171663 -6.97066e-06 0)
(0.00175631 -7.11377e-06 0)
(0.0017978 -7.25206e-06 0)
(0.00184101 -7.38497e-06 0)
(0.00188585 -7.51186e-06 0)
(0.00193223 -7.63213e-06 0)
(0.00198007 -7.74536e-06 0)
(0.00202928 -7.85073e-06 0)
(0.00207976 -7.94838e-06 0)
(0.00213146 -8.03683e-06 0)
(0.00218421 -8.11745e-06 0)
(0.00223804 -8.1872e-06 0)
(0.00229269 -8.25e-06 0)
(0.00234835 -8.29949e-06 0)
(0.0024045 -8.34456e-06 0)
(0.00246168 -8.37226e-06 0)
(0.00251889 -8.40091e-06 0)
(0.00257742 -8.40513e-06 0)
(0.00263517 -8.4203e-06 0)
(0.00269498 -8.39906e-06 0)
(0.00275258 -8.40583e-06 0)
(0.00281388 -8.35742e-06 0)
(0.00287034 -8.36356e-06 0)
(0.00293381 -8.29004e-06 0)
(0.00298763 -8.30573e-06 0)
(0.00305467 -8.22872e-06 0)
(0.00310353 -8.26337e-06 0)
(0.0031767 -8.2877e-06 0)
(0.00321725 -8.34457e-06 0)
(0.00330069 -8.90829e-06 0)
(0.00332894 -9.04396e-06 0)
(0.00342869 -1.19008e-05 0)
(0.00344342 -1.29614e-05 0)
(0.00356799 -2.6345e-05 0)
(0.0294692 -0.000662974 0)
(0.0302043 -0.000552623 0)
(0.0308449 -0.000446584 0)
(0.0313929 -0.000345273 0)
(0.0318515 -0.000249507 0)
(0.0322237 -0.00015937 0)
(0.0325128 -7.54171e-05 0)
(0.0327226 2.44227e-06 0)
(0.0328568 7.39294e-05 0)
(0.0329195 0.000139249 0)
(0.0329146 0.000198352 0)
(0.0328464 0.000251524 0)
(0.0327186 0.000298883 0)
(0.0325356 0.000340766 0)
(0.032301 0.000377399 0)
(0.0320191 0.000409148 0)
(0.0316935 0.000436295 0)
(0.0313279 0.000459206 0)
(0.030926 0.000478185 0)
(0.0304911 0.00049358 0)
(0.0300266 0.000505688 0)
(0.0295357 0.000514825 0)
(0.0290213 0.000521261 0)
(0.0284865 0.000525275 0)
(0.0279338 0.000527105 0)
(0.027366 0.000526985 0)
(0.0267854 0.000525118 0)
(0.0261945 0.0005217 0)
(0.0255953 0.000516899 0)
(0.0249901 0.000510875 0)
(0.0243807 0.000503767 0)
(0.023769 0.000495705 0)
(0.0231567 0.000486804 0)
(0.0225454 0.000477169 0)
(0.0219368 0.000466895 0)
(0.0213321 0.00045607 0)
(0.0207328 0.000444772 0)
(0.02014 0.000433075 0)
(0.019555 0.000421044 0)
(0.0189787 0.000408742 0)
(0.0184122 0.000396224 0)
(0.0178564 0.000383542 0)
(0.017312 0.000370744 0)
(0.0167799 0.000357872 0)
(0.0162607 0.000344966 0)
(0.0157549 0.000332062 0)
(0.0152631 0.000319193 0)
(0.0147858 0.000306387 0)
(0.0143233 0.000293671 0)
(0.0138759 0.000281069 0)
(0.0134439 0.000268601 0)
(0.0130275 0.000256286 0)
(0.0126268 0.00024414 0)
(0.012242 0.000232178 0)
(0.011873 0.000220412 0)
(0.0115198 0.000208855 0)
(0.0111824 0.000197515 0)
(0.0108607 0.000186401 0)
(0.0105545 0.00017552 0)
(0.0102638 0.000164879 0)
(0.00998822 0.000154482 0)
(0.00972768 0.000144333 0)
(0.00948189 0.000134433 0)
(0.00925062 0.000124784 0)
(0.00903357 0.000115387 0)
(0.00883047 0.000106238 0)
(0.00864103 9.73374e-05 0)
(0.00846493 8.86805e-05 0)
(0.00830187 8.02634e-05 0)
(0.00815153 7.20812e-05 0)
(0.00801359 6.41285e-05 0)
(0.00788773 5.63992e-05 0)
(0.00777364 4.88871e-05 0)
(0.007671 4.15858e-05 0)
(0.00757948 3.44889e-05 0)
(0.00749878 2.759e-05 0)
(0.00742859 2.08831e-05 0)
(0.0073686 1.43624e-05 0)
(0.0073185 8.02267e-06 0)
(0.00727801 1.85899e-06 0)
(0.00724681 -4.1329e-06 0)
(0.00722463 -9.95677e-06 0)
(0.00721117 -1.56158e-05 0)
(0.00720616 -2.11125e-05 0)
(0.00720931 -2.64489e-05 0)
(0.00722035 -3.16265e-05 0)
(0.007239 -3.66462e-05 0)
(0.00726499 -4.15085e-05 0)
(0.00729806 -4.62134e-05 0)
(0.00733793 -5.07605e-05 0)
(0.00738435 -5.51492e-05 0)
(0.00743706 -5.93785e-05 0)
(0.00749579 -6.34472e-05 0)
(0.00756028 -6.73537e-05 0)
(0.00763029 -7.10973e-05 0)
(0.00770554 -7.46754e-05 0)
(0.0077858 -7.80883e-05 0)
(0.0078708 -8.13319e-05 0)
(0.0079603 -8.44093e-05 0)
(0.00805405 -8.73127e-05 0)
(0.0081518 -9.00518e-05 0)
(0.00825332 -9.26101e-05 0)
(0.00835834 -9.50114e-05 0)
(0.00846667 -9.72202e-05 0)
(0.00857799 -9.92896e-05 0)
(0.00869221 -0.000101144 0)
(0.00880888 -0.000102895 0)
(0.00892811 -0.000104386 0)
(0.00904918 -0.000105846 0)
(0.00917264 -0.000106956 0)
(0.00929711 -0.00010817 0)
(0.00942415 -0.000108866 0)
(0.00955097 -0.000109912 0)
(0.00968114 -0.000110128 0)
(0.00980905 -0.000111129 0)
(0.00994231 -0.000110756 0)
(0.0100697 -0.000111894 0)
(0.0102066 -0.000110774 0)
(0.0103311 -0.00011229 0)
(0.0104733 -0.000110263 0)
(0.0105915 -0.000112393 0)
(0.0107423 -0.000109498 0)
(0.010849 -0.000112277 0)
(0.0110138 -0.000109416 0)
(0.0111017 -0.000112278 0)
(0.0112884 -0.000113302 0)
(0.0113484 -0.000114638 0)
(0.0115651 -0.000133827 0)
(0.0467313 -0.00158686 0)
(0.0475699 -0.00137874 0)
(0.0483151 -0.00117682 0)
(0.0489687 -0.000981465 0)
(0.0495335 -0.000794159 0)
(0.0500122 -0.000614952 0)
(0.0504077 -0.000444838 0)
(0.0507233 -0.000283715 0)
(0.0509619 -0.000132128 0)
(0.0511268 1.013e-05 0)
(0.051221 0.000142862 0)
(0.0512478 0.000266356 0)
(0.0512103 0.000380659 0)
(0.0511116 0.000486121 0)
(0.0509546 0.000582942 0)
(0.0507425 0.000671513 0)
(0.0504781 0.000752123 0)
(0.0501642 0.000825173 0)
(0.0498036 0.000890996 0)
(0.0493991 0.000949987 0)
(0.0489533 0.00100248 0)
(0.0484687 0.00104886 0)
(0.0479479 0.00108944 0)
(0.0473934 0.00112456 0)
(0.0468074 0.00115453 0)
(0.0461925 0.00117965 0)
(0.0455508 0.00120019 0)
(0.0448846 0.00121642 0)
(0.0441962 0.00122858 0)
(0.0434877 0.00123691 0)
(0.0427612 0.00124162 0)
(0.0420188 0.00124293 0)
(0.0412627 0.00124103 0)
(0.0404948 0.00123611 0)
(0.0397173 0.00122835 0)
(0.0389319 0.00121792 0)
(0.0381408 0.001205 0)
(0.0373458 0.00118975 0)
(0.0365488 0.00117233 0)
(0.0357517 0.00115291 0)
(0.0349563 0.00113163 0)
(0.0341642 0.00110866 0)
(0.0333774 0.00108414 0)
(0.0325972 0.00105824 0)
(0.0318255 0.0010311 0)
(0.0310636 0.00100286 0)
(0.030313 0.000973675 0)
(0.0295752 0.000943681 0)
(0.0288513 0.000913012 0)
(0.0281425 0.000881801 0)
(0.02745 0.000850173 0)
(0.0267747 0.000818246 0)
(0.0261176 0.000786133 0)
(0.0254795 0.00075394 0)
(0.024861 0.000721762 0)
(0.0242627 0.000689691 0)
(0.0236853 0.000657808 0)
(0.0231291 0.000626188 0)
(0.0225943 0.000594896 0)
(0.0220814 0.000563992 0)
(0.0215903 0.000533526 0)
(0.0211213 0.000503544 0)
(0.0206743 0.000474082 0)
(0.0202491 0.000445172 0)
(0.0198458 0.000416841 0)
(0.0194642 0.000389108 0)
(0.0191039 0.000361991 0)
(0.0187648 0.0003355 0)
(0.0184465 0.000309643 0)
(0.0181487 0.000284426 0)
(0.0178709 0.00025985 0)
(0.0176128 0.000235914 0)
(0.017374 0.000212616 0)
(0.017154 0.000189952 0)
(0.0169524 0.000167915 0)
(0.0167686 0.0001465 0)
(0.0166022 0.000125699 0)
(0.0164527 0.000105505 0)
(0.0163197 8.59081e-05 0)
(0.0162025 6.69015e-05 0)
(0.0161008 4.84768e-05 0)
(0.0160141 3.06262e-05 0)
(0.0159417 1.33423e-05 0)
(0.0158833 -3.38183e-06 0)
(0.0158384 -1.95527e-05 0)
(0.0158064 -3.51763e-05 0)
(0.0157869 -5.0258e-05 0)
(0.0157793 -6.48026e-05 0)
(0.0157834 -7.88144e-05 0)
(0.0157984 -9.22975e-05 0)
(0.0158241 -0.000105255 0)
(0.0158599 -0.00011769 0)
(0.0159054 -0.000129606 0)
(0.0159601 -0.000141004 0)
(0.0160236 -0.000151889 0)
(0.0160955 -0.000162261 0)
(0.0161753 -0.000172125 0)
(0.0162627 -0.00018148 0)
(0.0163572 -0.000190335 0)
(0.0164583 -0.000198686 0)
(0.0165658 -0.000206547 0)
(0.0166792 -0.000213905 0)
(0.0167981 -0.000220794 0)
(0.0169222 -0.000227176 0)
(0.0170511 -0.000233121 0)
(0.0171845 -0.000238541 0)
(0.0173218 -0.000243585 0)
(0.0174631 -0.000248055 0)
(0.0176076 -0.000252259 0)
(0.0177555 -0.00025578 0)
(0.0179058 -0.000259236 0)
(0.0180593 -0.000261782 0)
(0.0182139 -0.00026463 0)
(0.0183721 -0.000266132 0)
(0.0185295 -0.000268586 0)
(0.018692 -0.0002689 0)
(0.0188504 -0.00027128 0)
(0.0190175 -0.000270169 0)
(0.0191743 -0.000272925 0)
(0.0193473 -0.000270083 0)
(0.0194987 -0.000273755 0)
(0.0196808 -0.000269017 0)
(0.0198209 -0.000273995 0)
(0.0200183 -0.000268076 0)
(0.0201379 -0.000273823 0)
(0.0203607 -0.000270259 0)
(0.0204442 -0.000273928 0)
(0.0207077 -0.00028105 0)
(0.0646058 -0.00244019 0)
(0.0653786 -0.00213963 0)
(0.0660616 -0.0018482 0)
(0.0666575 -0.00156604 0)
(0.0671693 -0.00129514 0)
(0.0676006 -0.00103536 0)
(0.0679544 -0.000787947 0)
(0.0682344 -0.000552666 0)
(0.0684433 -0.000330144 0)
(0.0685848 -0.00012005 0)
(0.0686617 7.74386e-05 0)
(0.0686772 0.000262733 0)
(0.068634 0.000435955 0)
(0.0685351 0.000597577 0)
(0.068383 0.000747902 0)
(0.0681803 0.000887434 0)
(0.0679294 0.00101657 0)
(0.0676327 0.00113583 0)
(0.0672922 0.00124563 0)
(0.0669101 0.00134647 0)
(0.0664884 0.00143877 0)
(0.066029 0.00152298 0)
(0.0655337 0.00159949 0)
(0.0650043 0.0016687 0)
(0.0644424 0.00173095 0)
(0.0638497 0.00178659 0)
(0.0632278 0.00183591 0)
(0.0625783 0.00187919 0)
(0.0619026 0.0019167 0)
(0.0612024 0.00194867 0)
(0.0604791 0.0019753 0)
(0.0597342 0.00199679 0)
(0.0589692 0.00201332 0)
(0.0581858 0.00202506 0)
(0.0573853 0.00203217 0)
(0.0565695 0.00203479 0)
(0.0557397 0.00203306 0)
(0.0548978 0.00202714 0)
(0.0540453 0.00201715 0)
(0.0531838 0.00200325 0)
(0.0523151 0.00198558 0)
(0.0514408 0.00196428 0)
(0.0505627 0.00193952 0)
(0.0496826 0.00191146 0)
(0.0488022 0.00188027 0)
(0.0479231 0.00184613 0)
(0.0470473 0.00180921 0)
(0.0461764 0.00176973 0)
(0.0453122 0.00172787 0)
(0.0444562 0.00168383 0)
(0.0436103 0.00163783 0)
(0.0427759 0.00159008 0)
(0.0419546 0.00154079 0)
(0.0411479 0.00149017 0)
(0.0403572 0.00143842 0)
(0.0395837 0.00138577 0)
(0.0388288 0.0013324 0)
(0.0380935 0.00127852 0)
(0.0373788 0.0012243 0)
(0.0366858 0.00116993 0)
(0.0360151 0.00111557 0)
(0.0353676 0.00106136 0)
(0.0347437 0.00100747 0)
(0.0341441 0.000954011 0)
(0.033569 0.000901106 0)
(0.0330188 0.000848861 0)
(0.0324937 0.000797368 0)
(0.0319938 0.000746709 0)
(0.031519 0.000696956 0)
(0.0310693 0.000648168 0)
(0.0306446 0.000600396 0)
(0.0302446 0.000553682 0)
(0.0298691 0.000508059 0)
(0.0295177 0.000463553 0)
(0.02919 0.000420186 0)
(0.0288856 0.00037797 0)
(0.028604 0.000336918 0)
(0.0283447 0.000297032 0)
(0.0281071 0.000258317 0)
(0.0278907 0.000220772 0)
(0.027695 0.000184393 0)
(0.0275192 0.000149175 0)
(0.0273628 0.000115113 0)
(0.0272251 8.2198e-05 0)
(0.0271056 5.04228e-05 0)
(0.0270035 1.97777e-05 0)
(0.0269182 -9.74642e-06 0)
(0.0268491 -3.81597e-05 0)
(0.0267955 -6.5472e-05 0)
(0.0267568 -9.16938e-05 0)
(0.0267324 -0.000116835 0)
(0.0267215 -0.000140908 0)
(0.0267237 -0.000163921 0)
(0.0267383 -0.000185887 0)
(0.0267647 -0.000206817 0)
(0.0268022 -0.000226721 0)
(0.0268504 -0.000245614 0)
(0.0269086 -0.000263505 0)
(0.0269762 -0.000280413 0)
(0.0270528 -0.000296342 0)
(0.0271378 -0.000311323 0)
(0.0272306 -0.000325344 0)
(0.0273308 -0.000338463 0)
(0.0274378 -0.000350635 0)
(0.0275512 -0.00036197 0)
(0.0276705 -0.000372351 0)
(0.0277953 -0.000381999 0)
(0.0279251 -0.00039064 0)
(0.0280594 -0.000398722 0)
(0.0281981 -0.000405659 0)
(0.0283403 -0.000412341 0)
(0.0284864 -0.000417569 0)
(0.0286349 -0.000423088 0)
(0.0287871 -0.000426531 0)
(0.0289402 -0.000431231 0)
(0.0290977 -0.0004327 0)
(0.0292535 -0.000437088 0)
(0.029416 -0.000436234 0)
(0.0295721 -0.000441012 0)
(0.0297405 -0.000437357 0)
(0.0298932 -0.000443351 0)
(0.0300701 -0.000436551 0)
(0.0302134 -0.000444337 0)
(0.030405 -0.000434929 0)
(0.030528 -0.000444071 0)
(0.0307462 -0.000434544 0)
(0.0308298 -0.000442597 0)
(0.0310946 -0.000439014 0)
(0.0819563 -0.00322404 0)
(0.0826098 -0.00283263 0)
(0.083179 -0.00245395 0)
(0.0836676 -0.00208759 0)
(0.0840786 -0.00173608 0)
(0.0844162 -0.00139899 0)
(0.0846832 -0.00107777 0)
(0.0848837 -0.000771988 0)
(0.0850203 -0.000482266 0)
(0.0850966 -0.000208133 0)
(0.0851154 5.03298e-05 0)
(0.0850798 0.000293666 0)
(0.0849923 0.000522129 0)
(0.0848558 0.000736321 0)
(0.0846724 0.000936686 0)
(0.0844447 0.00112385 0)
(0.0841746 0.00129835 0)
(0.0838643 0.00146081 0)
(0.0835156 0.00161179 0)
(0.0831304 0.00175186 0)
(0.0827103 0.00188157 0)
(0.0822569 0.00200145 0)
(0.0817716 0.00211198 0)
(0.0812559 0.00221363 0)
(0.080711 0.00230681 0)
(0.0801383 0.00239192 0)
(0.079539 0.00246931 0)
(0.0789141 0.0025393 0)
(0.0782648 0.00260217 0)
(0.0775923 0.0026582 0)
(0.0768976 0.00270759 0)
(0.0761817 0.00275057 0)
(0.0754458 0.00278729 0)
(0.0746909 0.00281794 0)
(0.073918 0.00284264 0)
(0.0731284 0.00286154 0)
(0.072323 0.00287474 0)
(0.0715032 0.00288237 0)
(0.0706699 0.00288454 0)
(0.0698245 0.00288134 0)
(0.0689683 0.0028729 0)
(0.0681025 0.00285932 0)
(0.0672285 0.00284072 0)
(0.0663476 0.00281724 0)
(0.0654613 0.00278901 0)
(0.0645711 0.00275618 0)
(0.0636784 0.00271892 0)
(0.0627848 0.00267739 0)
(0.0618917 0.00263179 0)
(0.0610009 0.00258231 0)
(0.0601138 0.00252918 0)
(0.059232 0.00247262 0)
(0.0583571 0.00241287 0)
(0.0574907 0.00235017 0)
(0.0566343 0.00228478 0)
(0.0557895 0.00221696 0)
(0.0549576 0.00214698 0)
(0.05414 0.00207512 0)
(0.0533383 0.00200164 0)
(0.0525536 0.00192681 0)
(0.0517871 0.00185089 0)
(0.0510401 0.00177415 0)
(0.0503135 0.00169683 0)
(0.0496083 0.00161918 0)
(0.0489253 0.00154143 0)
(0.0482654 0.0014638 0)
(0.0476291 0.0013865 0)
(0.0470171 0.00130971 0)
(0.0464298 0.00123362 0)
(0.0458675 0.00115839 0)
(0.0453305 0.00108416 0)
(0.044819 0.00101107 0)
(0.044333 0.000939244 0)
(0.0438724 0.000868777 0)
(0.0434373 0.000799766 0)
(0.0430274 0.000732289 0)
(0.0426424 0.000666415 0)
(0.0422821 0.0006022 0)
(0.041946 0.000539693 0)
(0.0416337 0.000478932 0)
(0.0413447 0.000419946 0)
(0.0410786 0.000362758 0)
(0.0408346 0.000307386 0)
(0.0406123 0.00025384 0)
(0.0404109 0.000202125 0)
(0.0402299 0.000152244 0)
(0.0400685 0.000104193 0)
(0.0399261 5.79657e-05 0)
(0.039802 1.35543e-05 0)
(0.0396955 -2.90535e-05 0)
(0.0396057 -6.98716e-05 0)
(0.0395322 -0.000108916 0)
(0.039474 -0.000146205 0)
(0.0394306 -0.000181759 0)
(0.0394011 -0.000215599 0)
(0.039385 -0.000247747 0)
(0.0393815 -0.000278229 0)
(0.03939 -0.000307069 0)
(0.0394098 -0.000334299 0)
(0.0394401 -0.000359939 0)
(0.0394806 -0.000384031 0)
(0.0395303 -0.000406589 0)
(0.0395889 -0.000427673 0)
(0.0396557 -0.000447275 0)
(0.0397301 -0.000465494 0)
(0.0398116 -0.000482269 0)
(0.0398997 -0.000497786 0)
(0.0399937 -0.000511862 0)
(0.0400934 -0.000524864 0)
(0.0401981 -0.000536359 0)
(0.0403075 -0.00054707 0)
(0.040421 -0.00055607 0)
(0.0405384 -0.000564779 0)
(0.0406591 -0.000571309 0)
(0.0407827 -0.000578401 0)
(0.0409094 -0.00058238 0)
(0.0410375 -0.000588392 0)
(0.0411694 -0.000589574 0)
(0.0412997 -0.000595267 0)
(0.0414371 -0.000593185 0)
(0.0415664 -0.000599591 0)
(0.0417112 -0.000593571 0)
(0.041834 -0.000601921 0)
(0.0419916 -0.000591413 0)
(0.0420979 -0.00060242 0)
(0.0422792 -0.000588605 0)
(0.0423504 -0.000599597 0)
(0.0425763 -0.000587779 0)
(0.0972119 -0.00383817 0)
(0.0976958 -0.00336492 0)
(0.0981072 -0.00290849 0)
(0.098451 -0.00246787 0)
(0.0987293 -0.00204586 0)
(0.0989472 -0.00164178 0)
(0.0991066 -0.00125701 0)
(0.0992118 -0.000891003 0)
(0.0992646 -0.000544209 0)
(0.0992688 -0.000216041 0)
(0.0992261 9.36185e-05 0)
(0.0991396 0.000385437 0)
(0.0990111 0.000659864 0)
(0.0988429 0.000917631 0)
(0.0986366 0.00115936 0)
(0.0983944 0.00138582 0)
(0.0981175 0.00159769 0)
(0.0978078 0.00179572 0)
(0.0974665 0.00198062 0)
(0.0970949 0.00215306 0)
(0.0966942 0.00231372 0)
(0.0962657 0.00246321 0)
(0.0958102 0.00260211 0)
(0.0953289 0.00273097 0)
(0.0948226 0.00285027 0)
(0.0942922 0.00296048 0)
(0.0937386 0.00306199 0)
(0.0931625 0.00315518 0)
(0.0925648 0.00324034 0)
(0.0919461 0.00331778 0)
(0.0913073 0.00338773 0)
(0.0906492 0.0034504 0)
(0.0899723 0.00350597 0)
(0.0892776 0.00355459 0)
(0.0885657 0.00359638 0)
(0.0878375 0.00363146 0)
(0.0870938 0.00365993 0)
(0.0863354 0.00368185 0)
(0.0855632 0.0036973 0)
(0.0847782 0.00370635 0)
(0.0839812 0.00370906 0)
(0.0831733 0.00370552 0)
(0.0823554 0.00369578 0)
(0.0815288 0.00367994 0)
(0.0806945 0.00365808 0)
(0.0798536 0.00363032 0)
(0.0790074 0.00359678 0)
(0.0781572 0.00355759 0)
(0.0773042 0.00351291 0)
(0.0764497 0.00346292 0)
(0.0755951 0.00340781 0)
(0.0747417 0.00334779 0)
(0.073891 0.00328309 0)
(0.0730443 0.00321397 0)
(0.0722031 0.00314067 0)
(0.0713686 0.00306349 0)
(0.0705424 0.00298271 0)
(0.0697258 0.00289864 0)
(0.0689201 0.00281159 0)
(0.0681266 0.00272187 0)
(0.0673466 0.0026298 0)
(0.0665814 0.00253572 0)
(0.065832 0.00243994 0)
(0.0650995 0.00234278 0)
(0.0643851 0.00224456 0)
(0.0636896 0.00214557 0)
(0.0630139 0.00204613 0)
(0.0623588 0.00194652 0)
(0.061725 0.001847 0)
(0.0611132 0.00174785 0)
(0.0605238 0.0016493 0)
(0.0599572 0.00155158 0)
(0.0594139 0.00145491 0)
(0.0588941 0.00135949 0)
(0.0583979 0.0012655 0)
(0.0579254 0.00117309 0)
(0.0574767 0.00108243 0)
(0.0570516 0.000993646 0)
(0.0566499 0.000906851 0)
(0.0562716 0.000822152 0)
(0.0559162 0.00073964 0)
(0.0555835 0.00065939 0)
(0.055273 0.00058147 0)
(0.0549843 0.000505931 0)
(0.0547168 0.000432818 0)
(0.0544701 0.000362165 0)
(0.0542436 0.000293995 0)
(0.0540366 0.000228324 0)
(0.0538485 0.000165163 0)
(0.0536787 0.000104513 0)
(0.0535266 4.63689e-05 0)
(0.0533913 -9.27887e-06 0)
(0.0532723 -6.24456e-05 0)
(0.0531688 -0.000113152 0)
(0.0530802 -0.000161422 0)
(0.0530057 -0.000207285 0)
(0.0529447 -0.000250774 0)
(0.0528964 -0.000291923 0)
(0.0528602 -0.000330775 0)
(0.0528354 -0.000367365 0)
(0.0528214 -0.00040175 0)
(0.0528175 -0.000433959 0)
(0.0528231 -0.000464071 0)
(0.0528375 -0.000492092 0)
(0.0528602 -0.000518146 0)
(0.0528905 -0.000542184 0)
(0.0529281 -0.000564423 0)
(0.0529722 -0.000584683 0)
(0.0530224 -0.000603381 0)
(0.0530781 -0.000620056 0)
(0.0531391 -0.000635533 0)
(0.0532045 -0.000648778 0)
(0.0532744 -0.000661429 0)
(0.0533477 -0.000671317 0)
(0.0534249 -0.000681666 0)
(0.0535046 -0.000688121 0)
(0.0535875 -0.000696899 0)
(0.0536724 -0.0006996 0)
(0.0537592 -0.000707837 0)
(0.0538487 -0.000706161 0)
(0.0539372 -0.000715173 0)
(0.0540319 -0.000708396 0)
(0.0541181 -0.000719245 0)
(0.0542215 -0.000707529 0)
(0.0542971 -0.000719855 0)
(0.0544184 -0.000704037 0)
(0.0544677 -0.000716377 0)
(0.0546257 -0.00070098 0)
(0.108776 -0.00426671 0)
(0.109033 -0.00372694 0)
(0.109237 -0.00320838 0)
(0.109395 -0.00270905 0)
(0.109507 -0.00223186 0)
(0.109578 -0.00177584 0)
(0.109611 -0.00134206 0)
(0.109607 -0.000929864 0)
(0.10957 -0.000539349 0)
(0.1095 -0.000169825 0)
(0.1094 0.000179119 0)
(0.109272 0.00050826 0)
(0.109116 0.000818279 0)
(0.108934 0.00111002 0)
(0.108727 0.00138427 0)
(0.108496 0.0016419 0)
(0.108241 0.00188374 0)
(0.107964 0.00211061 0)
(0.107664 0.00232331 0)
(0.107343 0.00252261 0)
(0.107002 0.00270923 0)
(0.106639 0.00288384 0)
(0.106257 0.00304709 0)
(0.105854 0.00319955 0)
(0.105432 0.00334175 0)
(0.104991 0.00347417 0)
(0.104532 0.00359725 0)
(0.104053 0.00371134 0)
(0.103557 0.0038168 0)
(0.103042 0.00391389 0)
(0.10251 0.00400287 0)
(0.101961 0.00408393 0)
(0.101395 0.00415725 0)
(0.100812 0.00422296 0)
(0.100214 0.00428116 0)
(0.0995992 0.00433196 0)
(0.0989697 0.00437541 0)
(0.0983256 0.00441155 0)
(0.0976675 0.00444044 0)
(0.0969959 0.00446211 0)
(0.0963116 0.00447657 0)
(0.0956153 0.00448387 0)
(0.0949077 0.00448403 0)
(0.0941897 0.0044771 0)
(0.093462 0.00446312 0)
(0.0927258 0.00444216 0)
(0.0919818 0.00441431 0)
(0.0912312 0.00437967 0)
(0.090475 0.00433834 0)
(0.0897143 0.00429048 0)
(0.0889502 0.00423625 0)
(0.088184 0.00417584 0)
(0.0874168 0.00410945 0)
(0.0866498 0.00403731 0)
(0.0858843 0.0039597 0)
(0.0851215 0.00387687 0)
(0.0843628 0.00378913 0)
(0.0836093 0.0036968 0)
(0.0828622 0.0036002 0)
(0.0821229 0.00349967 0)
(0.0813926 0.00339559 0)
(0.0806723 0.0032883 0)
(0.0799632 0.00317819 0)
(0.0792665 0.00306562 0)
(0.0785831 0.00295097 0)
(0.0779141 0.00283462 0)
(0.0772604 0.00271693 0)
(0.0766227 0.00259826 0)
(0.076002 0.00247897 0)
(0.075399 0.0023594 0)
(0.0748142 0.00223988 0)
(0.0742482 0.00212072 0)
(0.0737015 0.00200221 0)
(0.0731746 0.00188465 0)
(0.0726677 0.00176829 0)
(0.0721811 0.00165339 0)
(0.0717149 0.00154017 0)
(0.0712693 0.00142883 0)
(0.0708443 0.00131958 0)
(0.0704398 0.00121259 0)
(0.0700557 0.001108 0)
(0.0696918 0.00100597 0)
(0.0693479 0.000906612 0)
(0.0690237 0.000810031 0)
(0.0687189 0.000716319 0)
(0.068433 0.000625553 0)
(0.0681656 0.000537795 0)
(0.0679163 0.000453096 0)
(0.0676846 0.000371494 0)
(0.0674698 0.000293014 0)
(0.0672716 0.000217672 0)
(0.0670892 0.000145474 0)
(0.0669221 7.64178e-05 0)
(0.0667697 1.04904e-05 0)
(0.0666314 -5.23272e-05 0)
(0.0665066 -0.000112062 0)
(0.0663946 -0.000168748 0)
(0.0662948 -0.000222425 0)
(0.0662066 -0.000273138 0)
(0.0661293 -0.000320938 0)
(0.0660625 -0.000365882 0)
(0.0660054 -0.000408025 0)
(0.0659575 -0.000447442 0)
(0.0659182 -0.000484181 0)
(0.065887 -0.000518345 0)
(0.0658632 -0.000549957 0)
(0.0658465 -0.000579173 0)
(0.0658362 -0.000605951 0)
(0.065832 -0.000630553 0)
(0.0658331 -0.000652794 0)
(0.0658396 -0.000673151 0)
(0.0658503 -0.00069114 0)
(0.0658658 -0.000707669 0)
(0.0658842 -0.00072165 0)
(0.0659073 -0.000734838 0)
(0.065932 -0.00074498 0)
(0.0659613 -0.000755431 0)
(0.0659908 -0.000761754 0)
(0.066025 -0.000770255 0)
(0.0660584 -0.000772543 0)
(0.0660958 -0.000780163 0)
(0.0661332 -0.000777788 0)
(0.0661706 -0.000786058 0)
(0.0662141 -0.000777537 0)
(0.0662475 -0.00078886 0)
(0.0663003 -0.000773818 0)
(0.0663197 -0.000785745 0)
(0.0663955 -0.000769069 0)
(0.114894 -0.00440836 0)
(0.114878 -0.00382816 0)
(0.114837 -0.00327248 0)
(0.114779 -0.00273964 0)
(0.114702 -0.00223148 0)
(0.114612 -0.00174732 0)
(0.114508 -0.00128742 0)
(0.114394 -0.000851198 0)
(0.114268 -0.000438185 0)
(0.114134 -4.76633e-05 0)
(0.11399 0.000321171 0)
(0.113838 0.000669169 0)
(0.113677 0.000997284 0)
(0.113508 0.00130644 0)
(0.11333 0.00159762 0)
(0.113144 0.00187177 0)
(0.112948 0.00212983 0)
(0.112743 0.0023727 0)
(0.112529 0.00260126 0)
(0.112304 0.0028163 0)
(0.112069 0.00301863 0)
(0.111823 0.00320893 0)
(0.111566 0.00338788 0)
(0.111297 0.00355607 0)
(0.111017 0.00371403 0)
(0.110723 0.00386225 0)
(0.110417 0.00400116 0)
(0.110097 0.00413111 0)
(0.109764 0.00425242 0)
(0.109418 0.00436536 0)
(0.109057 0.00447015 0)
(0.108682 0.00456694 0)
(0.108293 0.00465588 0)
(0.107889 0.00473706 0)
(0.107471 0.00481055 0)
(0.107039 0.00487639 0)
(0.106591 0.00493458 0)
(0.10613 0.00498513 0)
(0.105655 0.00502802 0)
(0.105165 0.00506322 0)
(0.104662 0.0050907 0)
(0.104146 0.00511043 0)
(0.103617 0.00512239 0)
(0.103076 0.00512655 0)
(0.102523 0.0051229 0)
(0.101958 0.00511146 0)
(0.101384 0.00509225 0)
(0.100799 0.00506532 0)
(0.100206 0.00503073 0)
(0.0996041 0.00498858 0)
(0.0989955 0.004939 0)
(0.0983807 0.00488213 0)
(0.0977606 0.00481816 0)
(0.0971365 0.00474728 0)
(0.0965092 0.00466975 0)
(0.0958799 0.00458582 0)
(0.0952498 0.00449577 0)
(0.0946199 0.00439994 0)
(0.0939914 0.00429865 0)
(0.0933654 0.00419226 0)
(0.092743 0.00408115 0)
(0.0921254 0.00396572 0)
(0.0915136 0.00384636 0)
(0.0909087 0.00372349 0)
(0.0903117 0.00359753 0)
(0.0897236 0.00346891 0)
(0.0891453 0.00333804 0)
(0.0885777 0.00320536 0)
(0.0880216 0.00307127 0)
(0.0874779 0.00293619 0)
(0.0869471 0.00280052 0)
(0.08643 0.00266463 0)
(0.0859271 0.00252891 0)
(0.0854389 0.0023937 0)
(0.0849659 0.00225936 0)
(0.0845084 0.00212619 0)
(0.0840667 0.0019945 0)
(0.083641 0.00186457 0)
(0.0832315 0.00173667 0)
(0.0828383 0.00161102 0)
(0.0824614 0.00148786 0)
(0.0821007 0.00136738 0)
(0.0817563 0.00124976 0)
(0.0814279 0.00113517 0)
(0.0811153 0.00102373 0)
(0.0808184 0.00091557 0)
(0.0805368 0.000810799 0)
(0.0802702 0.0007095 0)
(0.0800183 0.000611745 0)
(0.0797806 0.000517588 0)
(0.0795568 0.00042707 0)
(0.0793464 0.000340218 0)
(0.079149 0.000257044 0)
(0.0789641 0.000177551 0)
(0.0787911 0.00010173 0)
(0.0786297 2.95592e-05 0)
(0.0784793 -3.89907e-05 0)
(0.0783393 -0.000103958 0)
(0.0782094 -0.000165392 0)
(0.0780889 -0.000223343 0)
(0.0779774 -0.000277882 0)
(0.0778744 -0.000329063 0)
(0.0777794 -0.000376982 0)
(0.0776919 -0.000421685 0)
(0.0776114 -0.000463307 0)
(0.0775375 -0.00050186 0)
(0.0774698 -0.000537552 0)
(0.0774078 -0.000570304 0)
(0.077351 -0.000600474 0)
(0.0772992 -0.000627776 0)
(0.0772519 -0.000652884 0)
(0.0772086 -0.000675067 0)
(0.0771693 -0.000695644 0)
(0.0771332 -0.000712967 0)
(0.0771007 -0.000729665 0)
(0.0770703 -0.000742239 0)
(0.0770435 -0.000755925 0)
(0.0770176 -0.000763565 0)
(0.0769956 -0.000775498 0)
(0.0769729 -0.000777494 0)
(0.0769552 -0.00078953 0)
(0.0769342 -0.000784613 0)
(0.0769211 -0.000798359 0)
(0.0769009 -0.000788197 0)
(0.0768896 -0.000799787 0)
(0.0768717 -0.000786136 0)
(0.0768583 -0.000797121 0)
(0.0768474 -0.000781559 0)
(0.114041 -0.00425784 0)
(0.113737 -0.0036691 0)
(0.113441 -0.00310862 0)
(0.113164 -0.0025737 0)
(0.112902 -0.00206497 0)
(0.112658 -0.00158191 0)
(0.112431 -0.00112376 0)
(0.112221 -0.000690013 0)
(0.112029 -0.00027955 0)
(0.111853 0.000108375 0)
(0.111692 0.000474957 0)
(0.111546 0.000821105 0)
(0.111413 0.001148 0)
(0.111291 0.00145662 0)
(0.11118 0.00174807 0)
(0.111077 0.00202331 0)
(0.110982 0.00228337 0)
(0.110893 0.00252911 0)
(0.110809 0.00276146 0)
(0.110727 0.0029812 0)
(0.110647 0.00318909 0)
(0.110568 0.00338582 0)
(0.110488 0.00357202 0)
(0.110405 0.00374825 0)
(0.110319 0.00391501 0)
(0.110229 0.00407274 0)
(0.110133 0.00422182 0)
(0.110031 0.00436257 0)
(0.109921 0.00449525 0)
(0.109802 0.00462008 0)
(0.109675 0.00473722 0)
(0.109537 0.00484679 0)
(0.109388 0.00494887 0)
(0.109229 0.00504349 0)
(0.109057 0.00513068 0)
(0.108873 0.00521039 0)
(0.108675 0.0052826 0)
(0.108465 0.00534722 0)
(0.108241 0.00540418 0)
(0.108003 0.00545338 0)
(0.107751 0.00549473 0)
(0.107486 0.00552812 0)
(0.107206 0.00555346 0)
(0.106912 0.00557066 0)
(0.106604 0.00557964 0)
(0.106283 0.00558034 0)
(0.105948 0.00557272 0)
(0.1056 0.00555675 0)
(0.10524 0.00553244 0)
(0.104868 0.00549983 0)
(0.104485 0.00545898 0)
(0.104091 0.00540998 0)
(0.103687 0.00535297 0)
(0.103273 0.00528812 0)
(0.102852 0.00521561 0)
(0.102422 0.00513568 0)
(0.101986 0.00504861 0)
(0.101545 0.00495467 0)
(0.101099 0.00485421 0)
(0.100648 0.00474757 0)
(0.100196 0.00463514 0)
(0.0997411 0.00451731 0)
(0.0992858 0.00439452 0)
(0.0988307 0.00426719 0)
(0.0983768 0.00413578 0)
(0.097925 0.00400075 0)
(0.0974764 0.00386256 0)
(0.0970317 0.00372168 0)
(0.0965918 0.00357858 0)
(0.0961575 0.00343373 0)
(0.0957295 0.00328759 0)
(0.0953086 0.00314059 0)
(0.0948955 0.00299317 0)
(0.0944906 0.00284576 0)
(0.0940946 0.00269876 0)
(0.0937079 0.00255256 0)
(0.0933309 0.00240751 0)
(0.092964 0.00226398 0)
(0.0926075 0.00212228 0)
(0.0922616 0.00198271 0)
(0.0919265 0.00184556 0)
(0.0916023 0.00171107 0)
(0.0912892 0.00157949 0)
(0.090987 0.00145102 0)
(0.0906959 0.00132585 0)
(0.0904158 0.00120414 0)
(0.0901464 0.00108605 0)
(0.0898878 0.000971686 0)
(0.0896396 0.000861165 0)
(0.0894017 0.000754566 0)
(0.0891739 0.000651957 0)
(0.0889559 0.000553387 0)
(0.0887474 0.000458888 0)
(0.0885481 0.000368478 0)
(0.0883577 0.000282161 0)
(0.0881758 0.000199925 0)
(0.0880021 0.000121747 0)
(0.0878363 4.75937e-05 0)
(0.087678 -2.25834e-05 0)
(0.0875268 -8.88368e-05 0)
(0.0873825 -0.000151236 0)
(0.0872445 -0.000209846 0)
(0.0871127 -0.000264761 0)
(0.0869866 -0.000316049 0)
(0.0868659 -0.000363832 0)