/*--------------------------------*- C++ -*----------------------------------*\
| =========                 |                                                 |
| \\      /  F ield         | OpenFOAM: The Open Source CFD Toolbox           |
|  \\    /   O peration     | Version:  4.1                                   |
|   \\  /    A nd           | Web:      www.OpenFOAM.org                      |
|    \\/     M anipulation  |                                                 |
\*---------------------------------------------------------------------------*/
FoamFile
{
    version     2.0;
    format      ascii;
    class       volScalarField;
    location    "198";
    object      p;
}
// * * * * * * * * * * * * * * * * * * * * * * * * * * * * * * * * * * * * * //

dimensions      [1 -1 -2 0 0 0 0];

internalField   nonuniform List<scalar> 
3264
(
0.71258
0.712578
0.712577
0.712576
0.712576
0.712575
0.712575
0.712576
0.712576
0.712577
0.712579
0.71258
0.712583
0.712586
0.71259
0.712595
0.712602
0.71261
0.71262
0.712633
0.712649
0.712669
0.712693
0.712721
0.712754
0.712792
0.712837
0.712887
0.712943
0.713005
0.713074
0.713148
0.713228
0.713313
0.713402
0.713495
0.71359
0.713687
0.713785
0.713883
0.713979
0.714073
0.714164
0.71425
0.71433
0.714405
0.714473
0.714534
0.714587
0.714634
0.714672
0.714704
0.714728
0.714747
0.71476
0.714768
0.714772
0.714773
0.714771
0.714768
0.714763
0.714758
0.714752
0.714747
0.714742
0.714738
0.714734
0.71473
0.714727
0.714725
0.714722
0.71472
0.714718
0.714715
0.714713
0.714711
0.714709
0.714708
0.714706
0.714706
0.714706
0.714708
0.714711
0.714716
0.714722
0.714732
0.714743
0.714758
0.714774
0.714794
0.714816
0.714841
0.714867
0.714895
0.714925
0.714955
0.714985
0.715015
0.715045
0.715073
0.7151
0.715125
0.715147
0.715166
0.715182
0.715195
0.715205
0.715211
0.715215
0.715215
0.715212
0.715207
0.7152
0.715191
0.715181
0.71517
0.715157
0.715145
0.715132
0.715119
0.715106
0.715094
0.715082
0.71507
0.715058
0.715047
0.715036
0.715026
0.715015
0.715005
0.714995
0.714985
0.714976
0.714966
0.714956
0.714946
0.714936
0.714926
0.714916
0.714906
0.714896
0.714886
0.714876
0.714866
0.714856
0.714845
0.714835
0.714825
0.714815
0.714804
0.714794
0.714784
0.714773
0.714763
0.714753
0.714743
0.714732
0.714722
0.714712
0.714702
0.714691
0.714681
0.714671
0.71466
0.71465
0.71464
0.71463
0.714619
0.714609
0.714599
0.714589
0.714578
0.714568
0.714558
0.714548
0.714537
0.714527
0.714517
0.714507
0.714496
0.714486
0.714476
0.714466
0.714455
0.714445
0.714435
0.714425
0.714414
0.714404
0.714394
0.714383
0.714373
0.714363
0.714353
0.714342
0.714332
0.714322
0.714312
0.714301
0.714291
0.712581
0.71258
0.712579
0.712579
0.712578
0.712578
0.712578
0.712579
0.712579
0.712581
0.712582
0.712584
0.712587
0.71259
0.712594
0.712599
0.712605
0.712613
0.712623
0.712636
0.712651
0.71267
0.712693
0.71272
0.712752
0.712789
0.712832
0.712881
0.712937
0.712998
0.713066
0.713139
0.713219
0.713303
0.713391
0.713484
0.713579
0.713676
0.713774
0.713871
0.713968
0.714061
0.714152
0.714238
0.714319
0.714394
0.714462
0.714524
0.714577
0.714624
0.714663
0.714695
0.714721
0.71474
0.714753
0.714762
0.714767
0.714769
0.714769
0.714767
0.714763
0.714759
0.714755
0.71475
0.714746
0.714742
0.714738
0.714735
0.714732
0.714729
0.714726
0.714724
0.714721
0.714719
0.714717
0.714714
0.714712
0.71471
0.714708
0.714707
0.714707
0.714708
0.714711
0.714715
0.714721
0.71473
0.714741
0.714755
0.714771
0.71479
0.714812
0.714836
0.714863
0.714891
0.71492
0.71495
0.714981
0.715011
0.715041
0.71507
0.715097
0.715122
0.715144
0.715164
0.715181
0.715194
0.715204
0.715211
0.715215
0.715215
0.715213
0.715208
0.715201
0.715192
0.715182
0.71517
0.715158
0.715145
0.715132
0.715119
0.715107
0.715094
0.715082
0.71507
0.715058
0.715047
0.715036
0.715026
0.715015
0.715005
0.714995
0.714985
0.714976
0.714966
0.714956
0.714946
0.714936
0.714926
0.714916
0.714906
0.714896
0.714886
0.714876
0.714866
0.714856
0.714845
0.714835
0.714825
0.714815
0.714804
0.714794
0.714784
0.714773
0.714763
0.714753
0.714743
0.714732
0.714722
0.714712
0.714702
0.714691
0.714681
0.714671
0.71466
0.71465
0.71464
0.71463
0.714619
0.714609
0.714599
0.714589
0.714578
0.714568
0.714558
0.714548
0.714537
0.714527
0.714517
0.714507
0.714496
0.714486
0.714476
0.714466
0.714455
0.714445
0.714435
0.714425
0.714414
0.714404
0.714394
0.714383
0.714373
0.714363
0.714353
0.714342
0.714332
0.714322
0.714312
0.714301
0.714291
0.712583
0.712581
0.71258
0.712579
0.712578
0.712578
0.712578
0.712579
0.712579
0.71258
0.712582
0.712584
0.712586
0.712589
0.712593
0.712598
0.712603
0.712611
0.71262
0.712632
0.712646
0.712664
0.712686
0.712713
0.712744
0.712781
0.712823
0.712872
0.712926
0.712987
0.713055
0.713128
0.713207
0.713291
0.713379
0.713471
0.713566
0.713663
0.713761
0.713858
0.713954
0.714048
0.714138
0.714224
0.714305
0.71438
0.714448
0.714509
0.714562
0.714609
0.714648
0.71468
0.714705
0.714724
0.714738
0.714747
0.714752
0.714754
0.714754
0.714753
0.71475
0.714747
0.714744
0.714741
0.714739
0.714737
0.714735
0.714733
0.714731
0.71473
0.714728
0.714725
0.714723
0.71472
0.714718
0.714715
0.714713
0.714711
0.714709
0.714708
0.714707
0.714708
0.71471
0.714714
0.71472
0.714728
0.714739
0.714752
0.714768
0.714787
0.714809
0.714833
0.714859
0.714887
0.714917
0.714947
0.714978
0.715008
0.715038
0.715067
0.715095
0.71512
0.715143
0.715163
0.71518
0.715194
0.715204
0.715211
0.715215
0.715215
0.715213
0.715208
0.715201
0.715192
0.715182
0.715171
0.715158
0.715145
0.715132
0.715119
0.715106
0.715094
0.715081
0.71507
0.715058
0.715047
0.715036
0.715026
0.715015
0.715005
0.714995
0.714985
0.714976
0.714966
0.714956
0.714946
0.714936
0.714926
0.714916
0.714906
0.714896
0.714886
0.714876
0.714866
0.714856
0.714845
0.714835
0.714825
0.714815
0.714804
0.714794
0.714784
0.714773
0.714763
0.714753
0.714743
0.714732
0.714722
0.714712
0.714702
0.714691
0.714681
0.714671
0.71466
0.71465
0.71464
0.71463
0.714619
0.714609
0.714599
0.714589
0.714578
0.714568
0.714558
0.714548
0.714537
0.714527
0.714517
0.714507
0.714496
0.714486
0.714476
0.714466
0.714455
0.714445
0.714435
0.714425
0.714414
0.714404
0.714394
0.714383
0.714373
0.714363
0.714353
0.714342
0.714332
0.714322
0.714312
0.714301
0.714291
0.712578
0.712577
0.712576
0.712577
0.712576
0.712576
0.712576
0.712577
0.712578
0.712579
0.712581
0.712583
0.712585
0.712588
0.712591
0.712596
0.712601
0.712608
0.712616
0.712627
0.71264
0.712657
0.712678
0.712704
0.712734
0.71277
0.712812
0.71286
0.712914
0.712974
0.713041
0.713114
0.713192
0.713275
0.713363
0.713455
0.713549
0.713645
0.713741
0.713838
0.713933
0.714025
0.714114
0.714198
0.714277
0.71435
0.714417
0.714476
0.714528
0.714572
0.71461
0.71464
0.714664
0.714682
0.714695
0.714704
0.714709
0.714712
0.714712
0.714712
0.714711
0.71471
0.71471
0.71471
0.71471
0.714711
0.714713
0.714715
0.714717
0.714719
0.714721
0.714722
0.714722
0.714722
0.714721
0.714719
0.714716
0.714714
0.714712
0.71471
0.714709
0.714709
0.714711
0.714714
0.71472
0.714728
0.714738
0.714751
0.714767
0.714786
0.714807
0.714831
0.714857
0.714885
0.714914
0.714944
0.714974
0.715005
0.715035
0.715064
0.715091
0.715116
0.715139
0.71516
0.715177
0.715191
0.715201
0.715208
0.715212
0.715213
0.715211
0.715206
0.7152
0.715191
0.715181
0.71517
0.715157
0.715145
0.715132
0.715119
0.715106
0.715094
0.715081
0.71507
0.715058
0.715047
0.715036
0.715026
0.715015
0.715005
0.714995
0.714986
0.714976
0.714966
0.714956
0.714946
0.714936
0.714926
0.714916
0.714906
0.714896
0.714886
0.714876
0.714866
0.714856
0.714845
0.714835
0.714825
0.714815
0.714804
0.714794
0.714784
0.714773
0.714763
0.714753
0.714743
0.714732
0.714722
0.714712
0.714702
0.714691
0.714681
0.714671
0.71466
0.71465
0.71464
0.71463
0.714619
0.714609
0.714599
0.714589
0.714578
0.714568
0.714558
0.714548
0.714537
0.714527
0.714517
0.714507
0.714496
0.714486
0.714476
0.714466
0.714455
0.714445
0.714435
0.714425
0.714414
0.714404
0.714394
0.714383
0.714373
0.714363
0.714353
0.714342
0.714332
0.714322
0.714312
0.714301
0.714291
0.712576
0.712575
0.712573
0.712573
0.712572
0.712572
0.712572
0.712573
0.712574
0.712576
0.712578
0.71258
0.712582
0.712585
0.712589
0.712592
0.712597
0.712604
0.712612
0.712622
0.712635
0.712652
0.712672
0.712697
0.712727
0.712762
0.712804
0.712851
0.712905
0.712965
0.713032
0.713104
0.713181
0.713264
0.713351
0.713441
0.713533
0.713627
0.713722
0.713816
0.713908
0.713998
0.714083
0.714164
0.714239
0.714308
0.714371
0.714426
0.714473
0.714514
0.714547
0.714574
0.714595
0.71461
0.71462
0.714627
0.714631
0.714633
0.714634
0.714635
0.714636
0.714637
0.71464
0.714644
0.714649
0.714655
0.714662
0.71467
0.714679
0.714687
0.714695
0.714702
0.714708
0.714713
0.714717
0.714719
0.71472
0.71472
0.71472
0.714719
0.714718
0.714718
0.714719
0.714722
0.714727
0.714734
0.714744
0.714757
0.714772
0.71479
0.714811
0.714834
0.714859
0.714886
0.714915
0.714944
0.714974
0.715004
0.715033
0.715061
0.715088
0.715113
0.715135
0.715155
0.715172
0.715185
0.715196
0.715203
0.715207
0.715207
0.715206
0.715201
0.715195
0.715187
0.715177
0.715166
0.715155
0.715143
0.71513
0.715118
0.715106
0.715093
0.715081
0.71507
0.715058
0.715047
0.715037
0.715026
0.715016
0.715006
0.714996
0.714986
0.714976
0.714966
0.714956
0.714946
0.714937
0.714927
0.714917
0.714906
0.714896
0.714886
0.714876
0.714866
0.714856
0.714845
0.714835
0.714825
0.714815
0.714804
0.714794
0.714784
0.714773
0.714763
0.714753
0.714743
0.714732
0.714722
0.714712
0.714702
0.714691
0.714681
0.714671
0.71466
0.71465
0.71464
0.71463
0.714619
0.714609
0.714599
0.714589
0.714578
0.714568
0.714558
0.714548
0.714537
0.714527
0.714517
0.714507
0.714496
0.714486
0.714476
0.714466
0.714455
0.714445
0.714435
0.714425
0.714414
0.714404
0.714394
0.714383
0.714373
0.714363
0.714353
0.714342
0.714332
0.714322
0.714312
0.714301
0.714291
0.712543
0.712558
0.712558
0.712564
0.712565
0.712568
0.712569
0.712571
0.712573
0.712575
0.712577
0.712579
0.712582
0.712585
0.712588
0.712592
0.712597
0.712603
0.71261
0.712621
0.712633
0.71265
0.71267
0.712695
0.712725
0.712761
0.712802
0.712849
0.712903
0.712963
0.713029
0.7131
0.713177
0.713258
0.713343
0.713431
0.713521
0.713612
0.713704
0.713794
0.713881
0.713966
0.714046
0.714121
0.71419
0.714253
0.714309
0.714357
0.714398
0.714432
0.714459
0.71448
0.714496
0.714506
0.714513
0.714518
0.71452
0.714521
0.714523
0.714524
0.714527
0.714532
0.714538
0.714546
0.714557
0.714569
0.714583
0.714598
0.714614
0.714631
0.714648
0.714664
0.714679
0.714692
0.714704
0.714714
0.714722
0.714728
0.714732
0.714735
0.714737
0.714739
0.714741
0.714744
0.714749
0.714755
0.714764
0.714775
0.71479
0.714806
0.714826
0.714847
0.714871
0.714896
0.714923
0.714951
0.714979
0.715007
0.715035
0.715061
0.715087
0.71511
0.715131
0.715149
0.715165
0.715178
0.715188
0.715194
0.715198
0.715199
0.715197
0.715193
0.715187
0.71518
0.715171
0.715161
0.71515
0.715139
0.715128
0.715116
0.715104
0.715093
0.715081
0.71507
0.715059
0.715048
0.715037
0.715027
0.715017
0.715007
0.714997
0.714987
0.714977
0.714967
0.714957
0.714947
0.714937
0.714927
0.714917
0.714907
0.714896
0.714886
0.714876
0.714866
0.714856
0.714845
0.714835
0.714825
0.714815
0.714804
0.714794
0.714784
0.714773
0.714763
0.714753
0.714743
0.714732
0.714722
0.714712
0.714702
0.714691
0.714681
0.714671
0.71466
0.71465
0.71464
0.71463
0.714619
0.714609
0.714599
0.714589
0.714578
0.714568
0.714558
0.714548
0.714537
0.714527
0.714517
0.714507
0.714496
0.714486
0.714476
0.714466
0.714455
0.714445
0.714435
0.714425
0.714414
0.714404
0.714394
0.714383
0.714373
0.714363
0.714353
0.714342
0.714332
0.714322
0.714312
0.714301
0.714291
0.712543
0.71256
0.712558
0.712562
0.712562
0.712565
0.712567
0.712569
0.712572
0.712574
0.712577
0.71258
0.712583
0.712586
0.712589
0.712593
0.712598
0.712605
0.712613
0.712624
0.712637
0.712654
0.712675
0.712701
0.712732
0.712768
0.71281
0.712858
0.712912
0.712972
0.713038
0.713109
0.713184
0.713264
0.713347
0.713432
0.713519
0.713606
0.713692
0.713777
0.713858
0.713936
0.714008
0.714075
0.714136
0.714189
0.714236
0.714275
0.714308
0.714333
0.714353
0.714367
0.714376
0.714382
0.714385
0.714387
0.714388
0.714389
0.714391
0.714395
0.7144
0.714408
0.714419
0.714433
0.714449
0.714467
0.714489
0.714511
0.714536
0.714561
0.714587
0.714612
0.714637
0.714661
0.714682
0.714702
0.714719
0.714734
0.714746
0.714756
0.714764
0.71477
0.714776
0.714781
0.714787
0.714794
0.714802
0.714813
0.714825
0.71484
0.714857
0.714876
0.714897
0.714919
0.714943
0.714968
0.714993
0.715018
0.715043
0.715067
0.715089
0.71511
0.715128
0.715145
0.715158
0.71517
0.715178
0.715184
0.715187
0.715188
0.715186
0.715183
0.715177
0.715171
0.715163
0.715154
0.715145
0.715135
0.715124
0.715114
0.715103
0.715092
0.715081
0.71507
0.715059
0.715049
0.715038
0.715028
0.715018
0.715008
0.714997
0.714987
0.714977
0.714967
0.714957
0.714947
0.714937
0.714927
0.714917
0.714907
0.714896
0.714886
0.714876
0.714866
0.714856
0.714845
0.714835
0.714825
0.714814
0.714804
0.714794
0.714784
0.714773
0.714763
0.714753
0.714743
0.714732
0.714722
0.714712
0.714702
0.714691
0.714681
0.714671
0.71466
0.71465
0.71464
0.71463
0.714619
0.714609
0.714599
0.714589
0.714578
0.714568
0.714558
0.714548
0.714537
0.714527
0.714517
0.714507
0.714496
0.714486
0.714476
0.714466
0.714455
0.714445
0.714435
0.714425
0.714414
0.714404
0.714394
0.714383
0.714373
0.714363
0.714353
0.714342
0.714332
0.714322
0.714312
0.714301
0.714291
0.712386
0.712526
0.712544
0.712565
0.712569
0.712572
0.712574
0.712576
0.712578
0.71258
0.712582
0.712585
0.712588
0.712591
0.712595
0.7126
0.712606
0.712613
0.712623
0.712635
0.71265
0.712669
0.712692
0.71272
0.712753
0.712791
0.712835
0.712884
0.712939
0.713
0.713066
0.713136
0.713211
0.713289
0.713369
0.713451
0.713533
0.713614
0.713694
0.71377
0.713843
0.713912
0.713974
0.714031
0.71408
0.714123
0.714158
0.714187
0.71421
0.714226
0.714238
0.714245
0.71425
0.714252
0.714253
0.714254
0.714255
0.714258
0.714262
0.714269
0.714278
0.71429
0.714306
0.714325
0.714346
0.714371
0.714399
0.714428
0.71446
0.714493
0.714527
0.714561
0.714595
0.714628
0.71466
0.714689
0.714716
0.71474
0.714762
0.71478
0.714796
0.71481
0.714821
0.714831
0.71484
0.714849
0.714858
0.714868
0.714879
0.714891
0.714905
0.714921
0.714938
0.714957
0.714976
0.714997
0.715017
0.715038
0.715058
0.715077
0.715096
0.715113
0.715128
0.715141
0.715152
0.715161
0.715167
0.715172
0.715174
0.715175
0.715174
0.715171
0.715166
0.715161
0.715154
0.715147
0.715138
0.71513
0.71512
0.715111
0.715101
0.715091
0.715081
0.71507
0.71506
0.71505
0.71504
0.715029
0.715019
0.715009
0.714999
0.714988
0.714978
0.714968
0.714958
0.714948
0.714937
0.714927
0.714917
0.714907
0.714896
0.714886
0.714876
0.714866
0.714855
0.714845
0.714835
0.714825
0.714814
0.714804
0.714794
0.714784
0.714773
0.714763
0.714753
0.714743
0.714732
0.714722
0.714712
0.714702
0.714691
0.714681
0.714671
0.71466
0.71465
0.71464
0.71463
0.714619
0.714609
0.714599
0.714589
0.714578
0.714568
0.714558
0.714548
0.714537
0.714527
0.714517
0.714507
0.714496
0.714486
0.714476
0.714466
0.714455
0.714445
0.714435
0.714425
0.714414
0.714404
0.714394
0.714383
0.714373
0.714363
0.714353
0.714342
0.714332
0.714322
0.714312
0.714301
0.714291
0.713124
0.713068
0.713005
0.712937
0.712864
0.712786
0.712698
0.712578
0.713131
0.713084
0.713021
0.712952
0.712878
0.712799
0.712708
0.71261
0.713135
0.713096
0.713038
0.712972
0.712903
0.712831
0.712759
0.712689
0.713146
0.713112
0.713059
0.712998
0.712933
0.712869
0.712806
0.712747
0.713159
0.713127
0.713078
0.713021
0.712963
0.712905
0.712852
0.712804
0.713174
0.713141
0.713093
0.713039
0.712985
0.712934
0.712887
0.712845
0.713189
0.713152
0.713103
0.71305
0.713
0.712952
0.712909
0.71287
0.713198
0.71315
0.713101
0.713051
0.713003
0.712958
0.712916
0.712878
0.712513
0.712533
0.712553
0.712565
0.712571
0.712575
0.712578
0.71258
0.712583
0.712586
0.712589
0.712592
0.712597
0.712601
0.712607
0.712614
0.712622
0.712633
0.712645
0.712661
0.712679
0.712702
0.712728
0.712759
0.712796
0.712837
0.712884
0.712936
0.712993
0.713055
0.713121
0.713191
0.713264
0.713339
0.713415
0.713492
0.713567
0.713641
0.713712
0.713779
0.713841
0.713897
0.713948
0.713991
0.714028
0.714059
0.714083
0.714102
0.714115
0.714124
0.71413
0.714134
0.714136
0.714138
0.71414
0.714142
0.714146
0.714152
0.714159
0.71417
0.714183
0.714199
0.714219
0.714242
0.714268
0.714297
0.71433
0.714365
0.714402
0.714441
0.714481
0.714522
0.714563
0.714604
0.714643
0.714681
0.714717
0.71475
0.71478
0.714807
0.714831
0.714852
0.71487
0.714885
0.714899
0.714911
0.714922
0.714932
0.714943
0.714953
0.714965
0.714977
0.71499
0.715004
0.715019
0.715033
0.715049
0.715064
0.715078
0.715092
0.715105
0.715117
0.715128
0.715138
0.715146
0.715152
0.715157
0.71516
0.715161
0.715162
0.715161
0.715158
0.715155
0.71515
0.715145
0.715139
0.715132
0.715125
0.715117
0.715108
0.715099
0.71509
0.715081
0.715071
0.715061
0.715051
0.715041
0.715031
0.71502
0.71501
0.715
0.714989
0.714979
0.714969
0.714958
0.714948
0.714938
0.714927
0.714917
0.714907
0.714896
0.714886
0.714876
0.714866
0.714855
0.714845
0.714835
0.714825
0.714814
0.714804
0.714794
0.714784
0.714773
0.714763
0.714753
0.714743
0.714732
0.714722
0.714712
0.714702
0.714691
0.714681
0.714671
0.71466
0.71465
0.71464
0.71463
0.714619
0.714609
0.714599
0.714589
0.714578
0.714568
0.714558
0.714548
0.714537
0.714527
0.714517
0.714507
0.714496
0.714486
0.714476
0.714466
0.714455
0.714445
0.714435
0.714425
0.714414
0.714404
0.714394
0.714383
0.714373
0.714363
0.714353
0.714342
0.714332
0.714322
0.714312
0.714301
0.714291
0.712536
0.712545
0.712559
0.712571
0.71258
0.712586
0.71259
0.712593
0.712597
0.712601
0.712605
0.712611
0.712617
0.712624
0.712633
0.712643
0.712655
0.712669
0.712686
0.712707
0.71273
0.712758
0.712789
0.712826
0.712867
0.712913
0.712963
0.713018
0.713077
0.71314
0.713206
0.713275
0.713345
0.713416
0.713486
0.713556
0.713622
0.713686
0.713745
0.713799
0.713848
0.713891
0.713927
0.713958
0.713983
0.714002
0.714017
0.714028
0.714036
0.714042
0.714047
0.714051
0.714055
0.714059
0.714064
0.71407
0.714077
0.714086
0.714097
0.71411
0.714126
0.714145
0.714167
0.714192
0.714221
0.714253
0.714288
0.714326
0.714367
0.71441
0.714454
0.7145
0.714546
0.714592
0.714637
0.714682
0.714724
0.714764
0.714801
0.714835
0.714866
0.714893
0.714917
0.714938
0.714955
0.714971
0.714984
0.714996
0.715006
0.715016
0.715025
0.715035
0.715044
0.715053
0.715062
0.715072
0.715081
0.71509
0.715099
0.715107
0.715115
0.715123
0.715129
0.715135
0.715139
0.715143
0.715146
0.715148
0.715149
0.715149
0.715149
0.715147
0.715144
0.715141
0.715137
0.715132
0.715127
0.71512
0.715113
0.715106
0.715098
0.715089
0.715081
0.715071
0.715062
0.715052
0.715042
0.715032
0.715021
0.715011
0.715001
0.71499
0.71498
0.714969
0.714959
0.714948
0.714938
0.714928
0.714917
0.714907
0.714896
0.714886
0.714876
0.714866
0.714855
0.714845
0.714835
0.714825
0.714814
0.714804
0.714794
0.714784
0.714773
0.714763
0.714753
0.714743
0.714732
0.714722
0.714712
0.714702
0.714691
0.714681
0.714671
0.71466
0.71465
0.71464
0.71463
0.714619
0.714609
0.714599
0.714589
0.714578
0.714568
0.714558
0.714548
0.714537
0.714527
0.714517
0.714507
0.714496
0.714486
0.714476
0.714466
0.714455
0.714445
0.714435
0.714425
0.714414
0.714404
0.714394
0.714383
0.714373
0.714363
0.714353
0.714342
0.714332
0.714322
0.714312
0.714301
0.714291
0.712635
0.712611
0.712605
0.712606
0.712608
0.712611
0.712613
0.712617
0.712621
0.712626
0.712632
0.712639
0.712648
0.712659
0.712671
0.712686
0.712703
0.712723
0.712746
0.712772
0.712802
0.712836
0.712874
0.712916
0.712963
0.713013
0.713068
0.713125
0.713186
0.713249
0.713313
0.713379
0.713444
0.713508
0.713571
0.71363
0.713685
0.713736
0.713781
0.713821
0.713855
0.713884
0.713908
0.713927
0.713943
0.713957
0.713968
0.713977
0.713986
0.713993
0.714
0.714007
0.714014
0.714021
0.714029
0.714037
0.714047
0.714057
0.71407
0.714084
0.714101
0.714121
0.714144
0.71417
0.7142
0.714233
0.714269
0.714308
0.714351
0.714396
0.714443
0.714491
0.714541
0.714591
0.71464
0.714688
0.714735
0.71478
0.714822
0.714861
0.714897
0.714929
0.714957
0.714982
0.715004
0.715022
0.715037
0.71505
0.715061
0.71507
0.715077
0.715084
0.715089
0.715095
0.715099
0.715104
0.715108
0.715112
0.715116
0.71512
0.715123
0.715126
0.715129
0.715131
0.715133
0.715135
0.715137
0.715138
0.715139
0.715139
0.715139
0.715138
0.715136
0.715134
0.715131
0.715127
0.715122
0.715117
0.715111
0.715104
0.715097
0.715089
0.715081
0.715072
0.715063
0.715053
0.715043
0.715033
0.715023
0.715012
0.715002
0.714991
0.71498
0.71497
0.714959
0.714949
0.714938
0.714928
0.714917
0.714907
0.714896
0.714886
0.714876
0.714866
0.714855
0.714845
0.714835
0.714824
0.714814
0.714804
0.714794
0.714783
0.714773
0.714763
0.714753
0.714743
0.714732
0.714722
0.714712
0.714702
0.714691
0.714681
0.714671
0.71466
0.71465
0.71464
0.71463
0.714619
0.714609
0.714599
0.714589
0.714578
0.714568
0.714558
0.714548
0.714537
0.714527
0.714517
0.714507
0.714496
0.714486
0.714476
0.714466
0.714455
0.714445
0.714435
0.714425
0.714414
0.714404
0.714394
0.714383
0.714373
0.714363
0.714353
0.714342
0.714332
0.714322
0.714312
0.714301
0.714291
0.712701
0.712674
0.712659
0.712653
0.71265
0.712649
0.712649
0.712651
0.712655
0.71266
0.712667
0.712676
0.712688
0.712701
0.712718
0.712737
0.712759
0.712784
0.712813
0.712846
0.712882
0.712922
0.712966
0.713015
0.713066
0.713121
0.713179
0.713238
0.713299
0.71336
0.713421
0.71348
0.713538
0.713593
0.713644
0.713691
0.713733
0.71377
0.713802
0.713829
0.713854
0.713875
0.713892
0.713907
0.71392
0.713931
0.713941
0.713951
0.713962
0.713972
0.713983
0.713993
0.714002
0.714011
0.71402
0.714029
0.714039
0.71405
0.714062
0.714077
0.714094
0.714114
0.714137
0.714163
0.714193
0.714227
0.714264
0.714304
0.714348
0.714394
0.714443
0.714493
0.714544
0.714596
0.714648
0.714699
0.714749
0.714796
0.714841
0.714884
0.714922
0.714958
0.714989
0.715016
0.71504
0.71506
0.715076
0.71509
0.7151
0.715108
0.715115
0.715119
0.715122
0.715124
0.715126
0.715126
0.715127
0.715127
0.715127
0.715127
0.715127
0.715127
0.715128
0.715128
0.715129
0.715129
0.71513
0.715131
0.715131
0.715132
0.715132
0.715131
0.71513
0.715129
0.715126
0.715123
0.71512
0.715115
0.71511
0.715103
0.715097
0.715089
0.715081
0.715072
0.715063
0.715054
0.715044
0.715034
0.715023
0.715013
0.715002
0.714992
0.714981
0.71497
0.71496
0.714949
0.714938
0.714928
0.714917
0.714907
0.714897
0.714886
0.714876
0.714865
0.714855
0.714845
0.714835
0.714824
0.714814
0.714804
0.714794
0.714783
0.714773
0.714763
0.714753
0.714743
0.714732
0.714722
0.714712
0.714702
0.714691
0.714681
0.714671
0.71466
0.71465
0.71464
0.71463
0.714619
0.714609
0.714599
0.714589
0.714578
0.714568
0.714558
0.714548
0.714537
0.714527
0.714517
0.714507
0.714496
0.714486
0.714476
0.714466
0.714455
0.714445
0.714435
0.714425
0.714414
0.714404
0.714394
0.714383
0.714373
0.714363
0.714353
0.714342
0.714332
0.714322
0.714312
0.714301
0.714291
0.712765
0.712737
0.712718
0.712706
0.712698
0.712692
0.71269
0.712689
0.712691
0.712696
0.712703
0.712714
0.712727
0.712743
0.712763
0.712786
0.712813
0.712843
0.712877
0.712915
0.712956
0.713002
0.713051
0.713103
0.713158
0.713215
0.713273
0.713332
0.713389
0.713445
0.713499
0.71355
0.713599
0.713645
0.713687
0.713725
0.713758
0.713786
0.713808
0.713827
0.713843
0.713858
0.713872
0.713887
0.713902
0.713918
0.713933
0.713947
0.71396
0.713971
0.713982
0.713991
0.714
0.714009
0.714018
0.714027
0.714037
0.714048
0.714061
0.714076
0.714094
0.714114
0.714138
0.714165
0.714195
0.714229
0.714267
0.714308
0.714352
0.714399
0.714448
0.714499
0.714551
0.714604
0.714657
0.714709
0.71476
0.71481
0.714856
0.7149
0.71494
0.714977
0.71501
0.715038
0.715063
0.715084
0.715101
0.715114
0.715124
0.715132
0.715137
0.71514
0.715141
0.715141
0.715141
0.715139
0.715137
0.715135
0.715133
0.715131
0.715129
0.715128
0.715127
0.715126
0.715126
0.715126
0.715126
0.715126
0.715127
0.715127
0.715127
0.715127
0.715127
0.715125
0.715124
0.715121
0.715118
0.715113
0.715108
0.715103
0.715096
0.715089
0.715081
0.715073
0.715064
0.715054
0.715044
0.715034
0.715024
0.715013
0.715003
0.714992
0.714981
0.714971
0.71496
0.714949
0.714939
0.714928
0.714917
0.714907
0.714897
0.714886
0.714876
0.714865
0.714855
0.714845
0.714835
0.714824
0.714814
0.714804
0.714794
0.714783
0.714773
0.714763
0.714753
0.714742
0.714732
0.714722
0.714712
0.714702
0.714691
0.714681
0.714671
0.71466
0.71465
0.71464
0.71463
0.714619
0.714609
0.714599
0.714589
0.714578
0.714568
0.714558
0.714548
0.714537
0.714527
0.714517
0.714507
0.714496
0.714486
0.714476
0.714466
0.714455
0.714445
0.714435
0.714425
0.714414
0.714404
0.714394
0.714383
0.714373
0.714363
0.714353
0.714342
0.714332
0.714322
0.714312
0.714301
0.714291
0.71281
0.712783
0.712761
0.712745
0.712733
0.712724
0.712718
0.712716
0.712716
0.712721
0.712728
0.71274
0.712755
0.712773
0.712795
0.712821
0.712851
0.712884
0.712922
0.712963
0.713007
0.713055
0.713106
0.713159
0.713215
0.713272
0.713329
0.713385
0.713439
0.71349
0.713538
0.713583
0.713624
0.713661
0.713693
0.713719
0.713742
0.713764
0.713786
0.713809
0.713831
0.713853
0.713872
0.71389
0.713905
0.71392
0.713933
0.713945
0.713957
0.713968
0.713978
0.713989
0.713998
0.714008
0.714017
0.714027
0.714038
0.71405
0.714064
0.71408
0.714098
0.714119
0.714143
0.71417
0.714201
0.714236
0.714274
0.714315
0.714359
0.714407
0.714456
0.714508
0.71456
0.714613
0.714667
0.71472
0.714771
0.71482
0.714867
0.714912
0.714952
0.714989
0.715022
0.715051
0.715076
0.715096
0.715113
0.715126
0.715136
0.715143
0.715147
0.71515
0.71515
0.715149
0.715147
0.715145
0.715142
0.715139
0.715135
0.715133
0.71513
0.715128
0.715126
0.715125
0.715124
0.715124
0.715124
0.715124
0.715125
0.715125
0.715125
0.715125
0.715125
0.715124
0.715122
0.71512
0.715117
0.715113
0.715108
0.715102
0.715096
0.715089
0.715081
0.715073
0.715064
0.715054
0.715044
0.715034
0.715024
0.715014
0.715003
0.714992
0.714981
0.714971
0.71496
0.714949
0.714939
0.714928
0.714917
0.714907
0.714897
0.714886
0.714876
0.714865
0.714855
0.714845
0.714835
0.714824
0.714814
0.714804
0.714794
0.714783
0.714773
0.714763
0.714753
0.714742
0.714732
0.714722
0.714712
0.714701
0.714691
0.714681
0.714671
0.71466
0.71465
0.71464
0.71463
0.714619
0.714609
0.714599
0.714589
0.714578
0.714568
0.714558
0.714548
0.714537
0.714527
0.714517
0.714507
0.714496
0.714486
0.714476
0.714466
0.714455
0.714445
0.714435
0.714425
0.714414
0.714404
0.714394
0.714383
0.714373
0.714363
0.714353
0.714342
0.714332
0.714322
0.714312
0.714301
0.714291
0.712837
0.712809
0.712786
0.712767
0.712752
0.71274
0.712733
0.712729
0.712729
0.712734
0.712742
0.712754
0.71277
0.71279
0.712813
0.712841
0.712872
0.712907
0.712945
0.712987
0.713033
0.713081
0.713132
0.713185
0.713239
0.713293
0.713346
0.713396
0.713443
0.713486
0.713527
0.713566
0.713605
0.713643
0.713679
0.713712
0.713742
0.713769
0.713792
0.713814
0.713833
0.713851
0.713868
0.713885
0.7139
0.713915
0.71393
0.713943
0.713955
0.713967
0.713978
0.713988
0.713998
0.714007
0.714017
0.714028
0.714039
0.714052
0.714066
0.714082
0.714101
0.714123
0.714147
0.714175
0.714206
0.714241
0.714279
0.714321
0.714366
0.714413
0.714463
0.714514
0.714567
0.71462
0.714673
0.714726
0.714777
0.714826
0.714873
0.714917
0.714957
0.714994
0.715027
0.715056
0.71508
0.715101
0.715117
0.71513
0.71514
0.715146
0.715151
0.715153
0.715153
0.715152
0.715149
0.715146
0.715143
0.71514
0.715136
0.715133
0.71513
0.715128
0.715126
0.715125
0.715124
0.715124
0.715124
0.715124
0.715124
0.715124
0.715125
0.715125
0.715124
0.715123
0.715121
0.715119
0.715116
0.715112
0.715107
0.715102
0.715095
0.715088
0.715081
0.715072
0.715063
0.715054
0.715044
0.715034
0.715024
0.715014
0.715003
0.714992
0.714982
0.714971
0.71496
0.714949
0.714939
0.714928
0.714918
0.714907
0.714897
0.714886
0.714876
0.714866
0.714855
0.714845
0.714835
0.714824
0.714814
0.714804
0.714794
0.714783
0.714773
0.714763
0.714753
0.714742
0.714732
0.714722
0.714712
0.714701
0.714691
0.714681
0.714671
0.71466
0.71465
0.71464
0.71463
0.714619
0.714609
0.714599
0.714589
0.714578
0.714568
0.714558
0.714548
0.714537
0.714527
0.714517
0.714507
0.714496
0.714486
0.714476
0.714466
0.714455
0.714445
0.714435
0.714425
0.714414
0.714404
0.714394
0.714383
0.714373
0.714363
0.714353
0.714342
0.714332
0.714322
0.714312
0.714301
0.714291
0.712844
0.712814
0.712789
0.712768
0.712751
0.712738
0.71273
0.712726
0.712726
0.71273
0.712739
0.712751
0.712767
0.712786
0.71281
0.712837
0.712867
0.712901
0.712939
0.712979
0.713023
0.713069
0.713118
0.713169
0.713221
0.713274
0.713327
0.713379
0.713428
0.713476
0.713521
0.713564
0.713605
0.713642
0.713677
0.713708
0.713735
0.713761
0.713784
0.713807
0.713828
0.713848
0.713867
0.713884
0.7139
0.713915
0.713929
0.713941
0.713953
0.713965
0.713976
0.713986
0.713996
0.714006
0.714016
0.714027
0.714038
0.714051
0.714066
0.714083
0.714103
0.714125
0.71415
0.714179
0.714211
0.714246
0.714285
0.714327
0.714372
0.71442
0.714469
0.714521
0.714574
0.714627
0.71468
0.714733
0.714784
0.714833
0.714879
0.714923
0.714963
0.714999
0.715032
0.71506
0.715084
0.715104
0.71512
0.715132
0.715142
0.715148
0.715152
0.715153
0.715153
0.715152
0.715149
0.715146
0.715143
0.715139
0.715136
0.715133
0.71513
0.715128
0.715126
0.715125
0.715124
0.715124
0.715124
0.715124
0.715124
0.715125
0.715125
0.715125
0.715124
0.715123
0.715122
0.715119
0.715116
0.715112
0.715107
0.715102
0.715095
0.715088
0.71508
0.715072
0.715063
0.715054
0.715044
0.715034
0.715024
0.715013
0.715003
0.714992
0.714981
0.714971
0.71496
0.714949
0.714939
0.714928
0.714918
0.714907
0.714897
0.714886
0.714876
0.714866
0.714855
0.714845
0.714835
0.714824
0.714814
0.714804
0.714794
0.714783
0.714773
0.714763
0.714753
0.714742
0.714732
0.714722
0.714712
0.714701
0.714691
0.714681
0.714671
0.71466
0.71465
0.71464
0.71463
0.714619
0.714609
0.714599
0.714589
0.714578
0.714568
0.714558
0.714548
0.714537
0.714527
0.714517
0.714507
0.714496
0.714486
0.714476
0.714466
0.714455
0.714445
0.714435
0.714425
0.714414
0.714404
0.714394
0.714383
0.714373
0.714363
0.714353
0.714342
0.714332
0.714322
0.714312
0.714301
0.714291
)
;

boundaryField
{
    inlet
    {
        type            zeroGradient;