/*--------------------------------*- C++ -*----------------------------------*\
| =========                 |                                                 |
| \\      /  F ield         | OpenFOAM: The Open Source CFD Toolbox           |
|  \\    /   O peration     | Version:  4.1                                   |
|   \\  /    A nd           | Web:      www.OpenFOAM.org                      |
|    \\/     M anipulation  |                                                 |
\*---------------------------------------------------------------------------*/
FoamFile
{
    version     2.0;
    format      ascii;
    class       volVectorField;
    location    "198";
    object      U;
}
// * * * * * * * * * * * * * * * * * * * * * * * * * * * * * * * * * * * * * //

dimensions      [0 1 -1 0 0 0 0];

internalField   nonuniform List<vector> 
3264
(
(3.07038e-06 -5.44385e-06 0)
(-9.42009e-05 2.0561e-05 0)
(-0.000307573 3.73237e-05 0)
(-0.000558667 3.94305e-05 0)
(-0.000831866 4.07029e-05 0)
(-0.00111815 3.9269e-05 0)
(-0.00141209 3.98514e-05 0)
(-0.00171751 4.02884e-05 0)
(-0.00203263 4.20455e-05 0)
(-0.00236202 4.44407e-05 0)
(-0.00270718 4.81515e-05 0)
(-0.00307262 5.32051e-05 0)
(-0.00346152 6.00361e-05 0)
(-0.00387786 6.88574e-05 0)
(-0.00432458 7.99276e-05 0)
(-0.00480406 9.33392e-05 0)
(-0.00531725 0.000109049 0)
(-0.00586356 0.000126793 0)
(-0.00644045 0.000146076 0)
(-0.00704329 0.000166165 0)
(-0.00766527 0.000186117 0)
(-0.0082974 0.000204849 0)
(-0.00892878 0.000221215 0)
(-0.00954693 0.000234103 0)
(-0.0101382 0.000242526 0)
(-0.0106882 0.000245691 0)
(-0.0111827 0.000243045 0)
(-0.0116076 0.000234294 0)
(-0.0119498 0.000219398 0)
(-0.0121974 0.00019855 0)
(-0.01234 0.00017214 0)
(-0.0123692 0.000140723 0)
(-0.0122782 0.000104981 0)
(-0.0120625 6.5693e-05 0)
(-0.0117195 2.37087e-05 0)
(-0.0112486 -2.00742e-05 0)
(-0.0106515 -6.47274e-05 0)
(-0.00993162 -0.000109307 0)
(-0.00909449 -0.000152865 0)
(-0.00814754 -0.000194462 0)
(-0.0071 -0.000233179 0)
(-0.00596291 -0.000268128 0)
(-0.00474896 -0.00029847 0)
(-0.00347246 -0.000323432 0)
(-0.00214915 -0.000342329 0)
(-0.000796061 -0.000354588 0)
(0.000568658 -0.000359778 0)
(0.00192603 -0.000357642 0)
(0.00325652 -0.000348126 0)
(0.00454041 -0.000331413 0)
(0.00575825 -0.00030795 0)
(0.00689129 -0.000278467 0)
(0.00792207 -0.000243984 0)
(0.00883495 -0.000205803 0)
(0.00961679 -0.000165474 0)
(0.0102575 -0.000124732 0)
(0.0107505 -8.53902e-05 0)
(0.0110934 -4.92017e-05 0)
(0.011288 -1.76728e-05 0)
(0.0113409 8.13796e-06 0)
(0.0112625 2.78009e-05 0)
(0.0110675 4.16128e-05 0)
(0.0107733 5.05429e-05 0)
(0.0103996 5.59898e-05 0)
(0.00996729 5.93842e-05 0)
(0.00949677 6.17679e-05 0)
(0.00900708 6.35295e-05 0)
(0.00851441 6.44321e-05 0)
(0.00803126 6.39233e-05 0)
(0.00756611 6.15759e-05 0)
(0.00712398 5.74571e-05 0)
(0.00670727 5.22826e-05 0)
(0.00631667 4.7292e-05 0)
(0.00595154 4.38696e-05 0)
(0.00561011 4.30517e-05 0)
(0.00528966 4.5151e-05 0)
(0.00498711 4.96946e-05 0)
(0.00469973 5.56844e-05 0)
(0.00442577 6.19944e-05 0)
(0.00416482 6.76814e-05 0)
(0.003918 7.20999e-05 0)
(0.00368789 7.48563e-05 0)
(0.00347836 7.57054e-05 0)
(0.00329427 7.44693e-05 0)
(0.00314106 7.1009e-05 0)
(0.00302436 6.52353e-05 0)
(0.00294953 5.7136e-05 0)
(0.00292137 4.67984e-05 0)
(0.00294378 3.44181e-05 0)
(0.00301961 2.02932e-05 0)
(0.00315044 4.8078e-06 0)
(0.00333656 -1.15909e-05 0)
(0.00357689 -2.8416e-05 0)
(0.00386898 -4.51643e-05 0)
(0.00420907 -6.13355e-05 0)
(0.00459213 -7.64506e-05 0)
(0.00501197 -9.00668e-05 0)
(0.00546137 -0.000101792 0)
(0.00593225 -0.000111296 0)
(0.00641588 -0.000118325 0)
(0.0069031 -0.00012271 0)
(0.00738469 -0.000124375 0)
(0.00785161 -0.000123343 0)
(0.00829545 -0.000119736 0)
(0.00870869 -0.000113772 0)
(0.00908509 -0.000105758 0)
(0.00941993 -9.60735e-05 0)
(0.00971015 -8.51532e-05 0)
(0.00995444 -7.34618e-05 0)
(0.0101532 -6.14673e-05 0)
(0.0103083 -4.96141e-05 0)
(0.0104229 -3.82981e-05 0)
(0.0105012 -2.78476e-05 0)
(0.0105481 -1.85115e-05 0)
(0.0105686 -1.04551e-05 0)
(0.010568 -3.76294e-06 0)
(0.0105514 1.55375e-06 0)
(0.0105234 5.54609e-06 0)
(0.0104881 8.31497e-06 0)
(0.0104492 9.99795e-06 0)
(0.0104094 1.07564e-05 0)
(0.010371 1.07633e-05 0)
(0.0103357 1.01927e-05 0)
(0.0103046 9.21015e-06 0)
(0.0102783 7.96617e-06 0)
(0.0102569 6.59085e-06 0)
(0.0102404 5.19122e-06 0)
(0.0102284 3.85029e-06 0)
(0.0102204 2.62779e-06 0)
(0.0102158 1.56216e-06 0)
(0.0102141 6.73374e-07 0)
(0.0102146 -3.37238e-08 0)
(0.0102167 -5.65958e-07 0)
(0.0102199 -9.38468e-07 0)
(0.0102238 -1.17168e-06 0)
(0.010228 -1.28871e-06 0)
(0.0102323 -1.31325e-06 0)
(0.0102363 -1.26804e-06 0)
(0.01024 -1.1737e-06 0)
(0.0102433 -1.04813e-06 0)
(0.0102462 -9.06128e-07 0)
(0.0102485 -7.59402e-07 0)
(0.0102505 -6.16719e-07 0)
(0.010252 -4.84211e-07 0)
(0.0102531 -3.65754e-07 0)
(0.0102539 -2.63384e-07 0)
(0.0102545 -1.77698e-07 0)
(0.0102548 -1.08236e-07 0)
(0.010255 -5.38064e-08 0)
(0.0102551 -1.27699e-08 0)
(0.010255 1.67419e-08 0)
(0.0102549 3.66533e-08 0)
(0.0102548 4.88221e-08 0)
(0.0102546 5.49569e-08 0)
(0.0102544 5.65683e-08 0)
(0.0102543 5.49463e-08 0)
(0.0102541 5.11567e-08 0)
(0.010254 4.60524e-08 0)
(0.0102539 4.02922e-08 0)
(0.0102538 3.43656e-08 0)
(0.0102537 2.8619e-08 0)
(0.0102536 2.32816e-08 0)
(0.0102535 1.84902e-08 0)
(0.0102535 1.43106e-08 0)
(0.0102535 1.07569e-08 0)
(0.0102534 7.80667e-09 0)
(0.0102534 5.41421e-09 0)
(0.0102534 3.52004e-09 0)
(0.0102534 2.05849e-09 0)
(0.0102534 9.63141e-10 0)
(0.0102534 1.70452e-10 0)
(0.0102534 -3.77849e-10 0)
(0.0102534 -7.33489e-10 0)
(0.0102534 -9.41102e-10 0)
(0.0102534 -1.03825e-09 0)
(0.0102534 -1.05583e-09 0)
(0.0102534 -1.01862e-09 0)
(0.0102534 -9.46084e-10 0)
(0.0102534 -8.53083e-10 0)
(0.0102534 -7.5065e-10 0)
(0.0102534 -6.46685e-10 0)
(0.0102534 -5.46592e-10 0)
(0.0102534 -4.53827e-10 0)
(0.0102534 -3.70365e-10 0)
(0.0102534 -2.97093e-10 0)
(0.0102534 -2.34123e-10 0)
(0.0102534 -1.81041e-10 0)
(0.0102534 -1.37102e-10 0)
(0.0102534 -1.01377e-10 0)
(0.0102534 -7.28552e-11 0)
(0.0102534 -5.05237e-11 0)
(0.0102534 -3.34186e-11 0)
(0.0102534 -2.0649e-11 0)
(0.0102534 -1.14332e-11 0)
(0.0102534 -5.06681e-12 0)
(0.0102534 -9.9205e-13 0)
(0.0102534 1.29354e-12 0)
(0.0102534 2.26773e-12 0)
(0.0102534 1.60851e-12 0)
(0.0102534 1.90428e-12 0)
(-7.27602e-05 9.62196e-05 0)
(-0.000518971 0.00030794 0)
(-0.00118929 0.000447812 0)
(-0.00192867 0.000506838 0)
(-0.00270091 0.000546104 0)
(-0.00349305 0.000567471 0)
(-0.00429232 0.000589927 0)
(-0.00510494 0.000610668 0)
(-0.00592716 0.000635505 0)
(-0.00676528 0.000664264 0)
(-0.00762006 0.000699021 0)
(-0.00849539 0.000739773 0)
(-0.00939173 0.000786473 0)
(-0.0103088 0.000837993 0)
(-0.0112433 0.000892593 0)
(-0.0121893 0.000947777 0)
(-0.0131378 0.00100048 0)
(-0.0140772 0.00104719 0)
(-0.0149932 0.00108419 0)
(-0.0158696 0.00110776 0)
(-0.0166887 0.00111446 0)
(-0.0174321 0.00110133 0)
(-0.0180813 0.00106608 0)
(-0.0186187 0.00100721 0)
(-0.0190274 0.00092406 0)
(-0.0192925 0.00081681 0)
(-0.0194008 0.000686386 0)
(-0.0193411 0.000534377 0)
(-0.0191048 0.000362907 0)
(-0.0186851 0.000174518 0)
(-0.0180778 -2.79465e-05 0)
(-0.0172809 -0.000241433 0)
(-0.0162944 -0.000462756 0)
(-0.0151204 -0.000688653 0)
(-0.0137633 -0.000915831 0)
(-0.0122291 -0.00114099 0)
(-0.0105259 -0.00136085 0)
(-0.00866355 -0.00157216 0)
(-0.00665385 -0.00177172 0)
(-0.00451025 -0.00195637 0)
(-0.00224794 -0.00212306 0)
(0.000116168 -0.00226879 0)
(0.00256354 -0.00239073 0)
(0.00507405 -0.0024862 0)
(0.00762604 -0.00255274 0)
(0.0101965 -0.0025882 0)
(0.0127611 -0.00259076 0)
(0.0152945 -0.00255909 0)
(0.0177704 -0.00249239 0)
(0.0201623 -0.00239053 0)
(0.022443 -0.00225413 0)
(0.024586 -0.00208464 0)
(0.0265651 -0.00188443 0)
(0.0283553 -0.00165685 0)
(0.0299333 -0.00140626 0)
(0.0312779 -0.00113798 0)
(0.0323709 -0.000858317 0)
(0.0331971 -0.000574372 0)
(0.0337458 -0.000293935 0)
(0.0340109 -2.52139e-05 0)
(0.033992 0.000223513 0)
(0.0336953 0.00044435 0)
(0.0331343 0.000630377 0)
(0.0323305 0.000776365 0)
(0.0313133 0.000879589 0)
(0.0301193 0.000940573 0)
(0.0287908 0.000963475 0)
(0.027373 0.000955719 0)
(0.0259115 0.000926642 0)
(0.0244491 0.000885409 0)
(0.0230234 0.000839039 0)
(0.0216646 0.000791517 0)
(0.0203937 0.000744359 0)
(0.0192222 0.000697992 0)
(0.0181533 0.000652889 0)
(0.017185 0.000609831 0)
(0.0163122 0.00056951 0)
(0.0155302 0.000532007 0)
(0.0148352 0.000496511 0)
(0.014225 0.00046134 0)
(0.013699 0.000424189 0)
(0.0132581 0.000382546 0)
(0.0129045 0.000334134 0)
(0.0126409 0.000277295 0)
(0.0124709 0.000211194 0)
(0.012398 0.000135854 0)
(0.0124251 5.20502e-05 0)
(0.0125543 -3.88451e-05 0)
(0.0127865 -0.000135033 0)
(0.0131211 -0.00023443 0)
(0.0135558 -0.000334777 0)
(0.0140868 -0.000433729 0)
(0.0147087 -0.00052892 0)
(0.0154144 -0.000618015 0)
(0.0161951 -0.000698765 0)
(0.0170405 -0.000769048 0)
(0.017939 -0.000826929 0)
(0.0188776 -0.000870726 0)
(0.019842 -0.000899077 0)
(0.020817 -0.000911032 0)
(0.0217867 -0.000906138 0)
(0.022735 -0.000884524 0)
(0.0236459 -0.000846961 0)
(0.0245043 -0.000794884 0)
(0.0252963 -0.000730365 0)
(0.0260105 -0.000656021 0)
(0.0266382 -0.000574862 0)
(0.0271737 -0.00049009 0)
(0.0276153 -0.00040489 0)
(0.0279645 -0.000322209 0)
(0.0282263 -0.000244592 0)
(0.0284083 -0.000174059 0)
(0.0285203 -0.000112041 0)
(0.0285733 -5.93824e-05 0)
(0.0285787 -1.63737e-05 0)
(0.0285477 1.71716e-05 0)
(0.0284909 4.18286e-05 0)
(0.0284175 5.84619e-05 0)
(0.0283353 6.81289e-05 0)
(0.0282509 7.19892e-05 0)
(0.0281692 7.12271e-05 0)
(0.0280937 6.69869e-05 0)
(0.0280268 6.03243e-05 0)
(0.0279698 5.21719e-05 0)
(0.0279232 4.33188e-05 0)
(0.0278867 3.44019e-05 0)
(0.0278596 2.59076e-05 0)
(0.027841 1.81804e-05 0)
(0.0278295 1.14384e-05 0)
(0.027824 5.79188e-06 0)
(0.0278232 1.26315e-06 0)
(0.0278258 -2.19247e-06 0)
(0.027831 -4.6674e-06 0)
(0.0278377 -6.28427e-06 0)
(0.0278452 -7.18115e-06 0)
(0.0278529 -7.49951e-06 0)
(0.0278604 -7.37521e-06 0)
(0.0278675 -6.93212e-06 0)
(0.0278738 -6.2782e-06 0)
(0.0278792 -5.50363e-06 0)
(0.0278839 -4.68048e-06 0)
(0.0278877 -3.8636e-06 0)
(0.0278907 -3.09229e-06 0)
(0.027893 -2.39241e-06 0)
(0.0278947 -1.77874e-06 0)
(0.0278959 -1.2573e-06 0)
(0.0278967 -8.2755e-07 0)
(0.0278972 -4.84266e-07 0)
(0.0278974 -2.19238e-07 0)
(0.0278974 -2.25812e-08 0)
(0.0278972 1.16228e-07 0)
(0.027897 2.07585e-07 0)
(0.0278968 2.61227e-07 0)
(0.0278965 2.85908e-07 0)
(0.0278962 2.89221e-07 0)
(0.027896 2.77544e-07 0)
(0.0278957 2.56069e-07 0)
(0.0278955 2.28889e-07 0)
(0.0278953 1.99124e-07 0)
(0.0278952 1.69054e-07 0)
(0.027895 1.40261e-07 0)
(0.0278949 1.13767e-07 0)
(0.0278948 9.01537e-08 0)
(0.0278948 6.9674e-08 0)
(0.0278947 5.23414e-08 0)
(0.0278947 3.80061e-08 0)
(0.0278947 2.64153e-08 0)
(0.0278946 1.72589e-08 0)
(0.0278946 1.02044e-08 0)
(0.0278946 4.9209e-09 0)
(0.0278946 1.09593e-09 0)
(0.0278946 -1.55474e-09 0)
(0.0278946 -3.28161e-09 0)
(0.0278946 -4.29974e-09 0)
(0.0278946 -4.78932e-09 0)
(0.0278946 -4.89797e-09 0)
(0.0278947 -4.74394e-09 0)
(0.0278947 -4.41977e-09 0)
(0.0278947 -3.99612e-09 0)
(0.0278947 -3.52537e-09 0)
(0.0278947 -3.04508e-09 0)
(0.0278947 -2.58097e-09 0)
(0.0278947 -2.14956e-09 0)
(0.0278947 -1.76038e-09 0)
(0.0278947 -1.41784e-09 0)
(0.0278947 -1.12267e-09 0)
(0.0278947 -8.7312e-10 0)
(0.0278947 -6.6587e-10 0)
(0.0278947 -4.96709e-10 0)
(0.0278947 -3.61029e-10 0)
(0.0278947 -2.54184e-10 0)
(0.0278947 -1.71735e-10 0)
(0.0278947 -1.09581e-10 0)
(0.0278947 -6.40829e-11 0)
(0.0278947 -3.199e-11 0)
(0.0278947 -1.0693e-11 0)
(0.0278947 2.2631e-12 0)
(0.0278947 8.71196e-12 0)
(0.0278947 8.98368e-12 0)
(0.0278947 8.39583e-12 0)
(-0.000173792 0.000572649 0)
(-0.0010136 0.00113614 0)
(-0.00212112 0.00143318 0)
(-0.00326915 0.00152287 0)
(-0.00440039 0.0015753 0)
(-0.00550579 0.00159254 0)
(-0.00656769 0.0016138 0)
(-0.00759662 0.00163335 0)
(-0.00858835 0.0016604 0)
(-0.00954985 0.00169333 0)
(-0.0104802 0.00173337 0)
(-0.0113806 0.0017783 0)
(-0.0122475 0.00182546 0)
(-0.0130764 0.00187071 0)
(-0.0138592 0.00190925 0)
(-0.0145863 0.0019357 0)
(-0.0152457 0.00194455 0)
(-0.0158244 0.0019305 0)
(-0.0163083 0.00188876 0)
(-0.0166832 0.00181534 0)
(-0.0169354 0.00170723 0)
(-0.0170517 0.00156253 0)
(-0.0170204 0.00138043 0)
(-0.0168312 0.00116126 0)
(-0.0164752 0.000906332 0)
(-0.0159456 0.000617836 0)
(-0.015237 0.000298698 0)
(-0.0143459 -4.75703e-05 0)
(-0.0132704 -0.000417016 0)
(-0.0120101 -0.000805363 0)
(-0.0105661 -0.00120811 0)
(-0.00894116 -0.0016206 0)
(-0.00713923 -0.00203809 0)
(-0.00516581 -0.00245576 0)
(-0.00302775 -0.00286877 0)
(-0.000733332 -0.00327224 0)
(0.00170776 -0.00366129 0)
(0.00428438 -0.00403103 0)
(0.00698394 -0.00437657 0)
(0.00979238 -0.00469305 0)
(0.0126942 -0.00497566 0)
(0.0156722 -0.00521966 0)
(0.0187081 -0.00542045 0)
(0.0217818 -0.0055736 0)
(0.024872 -0.005675 0)
(0.0279561 -0.0057209 0)
(0.0310105 -0.00570811 0)
(0.0340105 -0.00563407 0)
(0.0369309 -0.00549704 0)
(0.0397461 -0.00529626 0)
(0.0424304 -0.00503209 0)
(0.0449586 -0.00470611 0)
(0.0473062 -0.00432124 0)
(0.04945 -0.00388178 0)
(0.051368 -0.00339343 0)
(0.05304 -0.00286322 0)
(0.0544477 -0.00229948 0)
(0.055575 -0.00171173 0)
(0.0564079 -0.00111054 0)
(0.0569348 -0.000507463 0)
(0.0571464 8.51321e-05 0)
(0.0570365 0.000654167 0)
(0.0566021 0.00118605 0)
(0.0558443 0.00166699 0)
(0.0547698 0.00208357 0)
(0.0533919 0.00242361 0)
(0.0517328 0.00267742 0)
(0.049825 0.00283917 0)
(0.0477123 0.00290819 0)
(0.0454494 0.0028899 0)
(0.0430997 0.00279612 0)
(0.0407306 0.00264433 0)
(0.0384076 0.00245569 0)
(0.0361882 0.00225139 0)
(0.034118 0.00204869 0)
(0.0322285 0.00185786 0)
(0.0305372 0.00168183 0)
(0.029049 0.00151803 0)
(0.0277597 0.00136141 0)
(0.0266599 0.00120676 0)
(0.025738 0.00104985 0)
(0.0249836 0.000887543 0)
(0.0243882 0.000717672 0)
(0.0239452 0.00053884 0)
(0.0236497 0.000350451 0)
(0.0234975 0.00015276 0)
(0.0234847 -5.31192e-05 0)
(0.0236073 -0.000265268 0)
(0.0238605 -0.000481088 0)
(0.0242391 -0.000697452 0)
(0.0247371 -0.000910855 0)
(0.0253476 -0.00111756 0)
(0.0260627 -0.00131373 0)
(0.0268735 -0.0014955 0)
(0.0277704 -0.00165904 0)
(0.0287424 -0.00180069 0)
(0.0297777 -0.00191696 0)
(0.0308634 -0.00200464 0)
(0.0319854 -0.00206094 0)
(0.0331288 -0.00208365 0)
(0.0342775 -0.00207128 0)
(0.0354146 -0.00202334 0)
(0.036523 -0.00194052 0)
(0.0375851 -0.00182492 0)
(0.0385841 -0.0016801 0)
(0.039504 -0.00151112 0)
(0.0403312 -0.00132433 0)
(0.0410548 -0.00112701 0)
(0.0416677 -0.000926862 0)
(0.0421668 -0.000731426 0)
(0.0425538 -0.000547482 0)
(0.0428344 -0.000380563 0)
(0.0430184 -0.000234641 0)
(0.0431181 -0.000112017 0)
(0.0431481 -1.3395e-05 0)
(0.0431232 6.18902e-05 0)
(0.0430582 0.000115567 0)
(0.0429664 0.000150097 0)
(0.0428597 0.000168366 0)
(0.0427476 0.00017342 0)
(0.0426377 0.000168259 0)
(0.0425353 0.000155686 0)
(0.0424442 0.000138203 0)
(0.0423662 0.000117955 0)
(0.0423023 9.66995e-05 0)
(0.042252 7.58101e-05 0)
(0.0422146 5.62968e-05 0)
(0.0421886 3.88409e-05 0)
(0.0421724 2.38397e-05 0)
(0.0421642 1.14556e-05 0)
(0.0421623 1.66652e-06 0)
(0.0421651 -5.68574e-06 0)
(0.0421713 -1.08517e-05 0)
(0.0421795 -1.4136e-05 0)
(0.0421888 -1.58655e-05 0)
(0.0421985 -1.63652e-05 0)
(0.0422079 -1.59398e-05 0)
(0.0422166 -1.48617e-05 0)
(0.0422245 -1.33644e-05 0)
(0.0422313 -1.16399e-05 0)
(0.042237 -9.83892e-06 0)
(0.0422417 -8.07424e-06 0)
(0.0422454 -6.42482e-06 0)
(0.0422482 -4.94101e-06 0)
(0.0422503 -3.64995e-06 0)
(0.0422517 -2.56068e-06 0)
(0.0422526 -1.66898e-06 0)
(0.0422532 -9.61438e-07 0)
(0.0422534 -4.1894e-07 0)
(0.0422534 -1.93978e-08 0)
(0.0422532 2.60135e-07 0)
(0.042253 4.41954e-07 0)
(0.0422526 5.46684e-07 0)
(0.0422523 5.92667e-07 0)
(0.042252 5.95666e-07 0)
(0.0422517 5.68813e-07 0)
(0.0422514 5.22712e-07 0)
(0.0422511 4.65662e-07 0)
(0.0422509 4.03929e-07 0)
(0.0422507 3.42055e-07 0)
(0.0422506 2.83155e-07 0)
(0.0422504 2.29209e-07 0)
(0.0422503 1.81316e-07 0)
(0.0422503 1.39916e-07 0)
(0.0422502 1.0498e-07 0)
(0.0422502 7.61591e-08 0)
(0.0422501 5.29094e-08 0)
(0.0422501 3.45806e-08 0)
(0.0422501 2.04849e-08 0)
(0.0422501 9.94482e-09 0)
(0.0422501 2.32473e-09 0)
(0.0422501 -2.95027e-09 0)
(0.0422501 -6.38465e-09 0)
(0.0422501 -8.40978e-09 0)
(0.0422501 -9.38596e-09 0)
(0.0422501 -9.60746e-09 0)
(0.0422501 -9.3094e-09 0)
(0.0422501 -8.67533e-09 0)
(0.0422501 -7.84502e-09 0)
(0.0422502 -6.92195e-09 0)
(0.0422502 -5.98011e-09 0)
(0.0422502 -5.07007e-09 0)
(0.0422502 -4.22426e-09 0)
(0.0422502 -3.46132e-09 0)
(0.0422502 -2.78982e-09 0)
(0.0422502 -2.21113e-09 0)
(0.0422502 -1.72178e-09 0)
(0.0422502 -1.3152e-09 0)
(0.0422502 -9.83131e-10 0)
(0.0422502 -7.16523e-10 0)
(0.0422502 -5.06281e-10 0)
(0.0422502 -3.4371e-10 0)
(0.0422502 -2.208e-10 0)
(0.0422502 -1.30396e-10 0)
(0.0422502 -6.62146e-11 0)
(0.0422502 -2.30156e-11 0)
(0.0422502 3.93323e-12 0)
(0.0422502 1.78481e-11 0)
(0.0422502 2.19731e-11 0)
(0.0422502 1.97131e-11 0)
(-0.000311075 0.00118757 0)
(-0.00154379 0.0022016 0)
(-0.00292694 0.00264661 0)
(-0.00423358 0.00272989 0)
(-0.00538217 0.00274057 0)
(-0.00642118 0.00269466 0)
(-0.00733399 0.00265019 0)
(-0.00815136 0.00260336 0)
(-0.00887143 0.0025661 0)
(-0.0095067 0.00253613 0)
(-0.0100573 0.00251322 0)
(-0.010526 0.00249319 0)
(-0.0109101 0.00247135 0)
(-0.0112064 0.0024417 0)
(-0.0114093 0.00239794 0)
(-0.0115122 0.0023336 0)
(-0.0115073 0.00224251 0)
(-0.0113867 0.00211915 0)
(-0.0111423 0.00195885 0)
(-0.0107665 0.00175805 0)
(-0.0102521 0.00151438 0)
(-0.00959294 0.00122671 0)
(-0.00878361 0.000895115 0)
(-0.0078198 0.000520794 0)
(-0.0066982 0.000105953 0)
(-0.00541654 -0.000346337 0)
(-0.00397353 -0.000832286 0)
(-0.00236885 -0.00134753 0)
(-0.000603168 -0.00188723 0)
(0.00132191 -0.00244623 0)
(0.00340377 -0.00301907 0)
(0.00563879 -0.0036001 0)
(0.00802228 -0.00418346 0)
(0.0105484 -0.00476319 0)
(0.0132101 -0.00533314 0)
(0.015999 -0.00588707 0)
(0.0189055 -0.00641862 0)
(0.0219185 -0.00692135 0)
(0.0250254 -0.00738874 0)
(0.0282121 -0.00781422 0)
(0.0314632 -0.00819121 0)
(0.0347614 -0.00851321 0)
(0.0380882 -0.0087738 0)
(0.0414237 -0.00896682 0)
(0.0447466 -0.00908645 0)
(0.0480343 -0.0091274 0)
(0.0512636 -0.00908512 0)
(0.0544106 -0.00895598 0)
(0.0574511 -0.00873752 0)
(0.0603613 -0.00842864 0)
(0.0631179 -0.00802982 0)
(0.0656991 -0.00754326 0)
(0.0680844 -0.00697297 0)
(0.0702555 -0.00632473 0)
(0.0721964 -0.0056061 0)
(0.0738931 -0.00482622 0)
(0.0753343 -0.00399565 0)
(0.0765107 -0.00312611 0)
(0.0774148 -0.0022303 0)
(0.0780407 -0.00132167 0)
(0.0783838 -0.000414201 0)
(0.0784401 0.000477684 0)
(0.0782064 0.00133927 0)
(0.0776798 0.00215563 0)
(0.076858 0.00291175 0)
(0.0757396 0.0035927 0)
(0.0743249 0.00418387 0)
(0.0726176 0.0046714 0)
(0.0706265 0.00504274 0)
(0.0683685 0.00528764 0)
(0.0658707 0.00539964 0)
(0.0631732 0.00537805 0)
(0.0603298 0.00522997 0)
(0.0574075 0.00497123 0)
(0.0544823 0.0046256 0)
(0.0516327 0.00422188 0)
(0.0489319 0.00378948 0)
(0.0464405 0.00335369 0)
(0.0442012 0.00293196 0)
(0.0422378 0.00253247 0)
(0.0405568 0.00215517 0)
(0.0391519 0.00179467 0)
(0.0380082 0.00144365 0)
(0.0371068 0.00109557 0)
(0.0364279 0.000746067 0)
(0.0359529 0.000393298 0)
(0.0356652 3.75783e-05 0)
(0.03555 -0.000319184 0)
(0.0355944 -0.000674012 0)
(0.0357862 -0.00102325 0)
(0.0361143 -0.00136281 0)
(0.0365677 -0.00168836 0)
(0.0371356 -0.00199542 0)
(0.0378071 -0.00227945 0)
(0.038571 -0.00253591 0)
(0.0394161 -0.0027603 0)
(0.0403307 -0.00294824 0)
(0.0413027 -0.00309557 0)
(0.0423198 -0.00319843 0)
(0.043369 -0.00325347 0)
(0.044437 -0.00325807 0)
(0.0455098 -0.00321059 0)
(0.0465732 -0.00311075 0)
(0.0476124 -0.00295993 0)
(0.0486127 -0.00276148 0)
(0.0495592 -0.00252093 0)
(0.0504379 -0.00224598 0)
(0.051236 -0.0019463 0)
(0.0519424 -0.00163304 0)
(0.0525491 -0.00131808 0)
(0.0530512 -0.00101313 0)
(0.0534477 -0.000728826 0)
(0.0537419 -0.000473857 0)
(0.0539407 -0.00025441 0)
(0.0540547 -7.38899e-05 0)
(0.0540968 6.70013e-05 0)
(0.054081 0.000169917 0)
(0.0540221 0.000238326 0)
(0.0539338 0.0002769 0)
(0.0538284 0.00029093 0)
(0.0537163 0.000285822 0)
(0.0536056 0.000266724 0)
(0.0535024 0.000238266 0)
(0.0534105 0.000204416 0)
(0.0533323 0.000168416 0)
(0.0532684 0.000132784 0)
(0.0532188 9.93616e-05 0)
(0.0531823 6.93864e-05 0)
(0.0531574 4.3579e-05 0)
(0.0531424 2.22384e-05 0)
(0.0531354 5.3358e-06 0)
(0.0531346 -7.39758e-06 0)
(0.0531384 -1.63914e-05 0)
(0.0531452 -2.21685e-05 0)
(0.0531539 -2.529e-05 0)
(0.0531635 -2.63122e-05 0)
(0.0531733 -2.57555e-05 0)
(0.0531826 -2.40844e-05 0)
(0.0531911 -2.16958e-05 0)
(0.0531987 -1.89148e-05 0)
(0.0532051 -1.59964e-05 0)
(0.0532104 -1.31304e-05 0)
(0.0532147 -1.04494e-05 0)
(0.053218 -8.03769e-06 0)
(0.0532205 -5.94041e-06 0)
(0.0532223 -4.17252e-06 0)
(0.0532234 -2.72687e-06 0)
(0.0532241 -1.58118e-06 0)
(0.0532245 -7.03827e-07 0)
(0.0532246 -5.84246e-08 0)
(0.0532244 3.92689e-07 0)
(0.0532242 6.8598e-07 0)
(0.0532239 8.55063e-07 0)
(0.0532236 9.29732e-07 0)
(0.0532232 9.35507e-07 0)
(0.0532229 8.93574e-07 0)
(0.0532226 8.20984e-07 0)
(0.0532223 7.31029e-07 0)
(0.0532221 6.33712e-07 0)
(0.0532219 5.36252e-07 0)
(0.0532217 4.43579e-07 0)
(0.0532216 3.58805e-07 0)
(0.0532215 2.83638e-07 0)
(0.0532214 2.18747e-07 0)
(0.0532214 1.64057e-07 0)
(0.0532213 1.18999e-07 0)
(0.0532213 8.26951e-08 0)
(0.0532213 5.41085e-08 0)
(0.0532213 3.2148e-08 0)
(0.0532213 1.57433e-08 0)
(0.0532213 3.89316e-09 0)
(0.0532213 -4.30514e-09 0)
(0.0532213 -9.64176e-09 0)
(0.0532213 -1.27908e-08 0)
(0.0532213 -1.43139e-08 0)
(0.0532213 -1.4669e-08 0)
(0.0532213 -1.4221e-08 0)
(0.0532213 -1.32544e-08 0)
(0.0532213 -1.19855e-08 0)
(0.0532213 -1.05738e-08 0)
(0.0532213 -9.13331e-09 0)
(0.0532213 -7.74184e-09 0)
(0.0532213 -6.44905e-09 0)
(0.0532213 -5.28342e-09 0)
(0.0532213 -4.25793e-09 0)
(0.0532213 -3.37454e-09 0)
(0.0532213 -2.6278e-09 0)
(0.0532213 -2.00756e-09 0)
(0.0532213 -1.50106e-09 0)
(0.0532213 -1.09443e-09 0)
(0.0532213 -7.73712e-10 0)
(0.0532213 -5.25596e-10 0)
(0.0532213 -3.37832e-10 0)
(0.0532213 -1.99475e-10 0)
(0.0532213 -1.00983e-10 0)
(0.0532213 -3.42265e-11 0)
(0.0532213 7.72633e-12 0)
(0.0532213 3.00704e-11 0)
(0.0532213 3.86985e-11 0)
(0.0532213 3.39801e-11 0)
(-0.000416791 0.00243021 0)
(-0.00177276 0.00372942 0)
(-0.00307866 0.00410944 0)
(-0.00416374 0.00392458 0)
(-0.00494464 0.00372701 0)
(-0.00553212 0.00349956 0)
(-0.00592226 0.00330983 0)
(-0.00617259 0.00313818 0)
(-0.00628913 0.00298976 0)
(-0.00629388 0.00285665 0)
(-0.00619042 0.0027345 0)
(-0.00598525 0.00261641 0)
(-0.00567824 0.00249549 0)
(-0.00526924 0.00236435 0)
(-0.00475563 0.00221561 0)
(-0.0041345 0.0020422 0)
(-0.00340213 0.00183766 0)
(-0.0025548 0.00159643 0)
(-0.00158874 0.00131401 0)
(-0.000500421 0.000987099 0)
(0.000713346 0.00061369 0)
(0.00205536 0.000193025 0)
(0.00352797 -0.000274447 0)
(0.00513307 -0.000787164 0)
(0.00687203 -0.00134257 0)
(0.00874568 -0.00193725 0)
(0.0107543 -0.00256702 0)
(0.0128975 -0.00322709 0)
(0.0151741 -0.00391214 0)
(0.0175822 -0.00461641 0)
(0.0201191 -0.00533373 0)
(0.0227808 -0.00605761 0)
(0.0255625 -0.00678126 0)
(0.028458 -0.00749756 0)
(0.0314599 -0.00819913 0)
(0.0345592 -0.00887832 0)
(0.0377455 -0.00952724 0)
(0.0410069 -0.0101378 0)
(0.0443296 -0.0107017 0)
(0.0476983 -0.0112106 0)
(0.0510962 -0.0116561 0)
(0.0545046 -0.0120298 0)
(0.0579036 -0.0123234 0)
(0.0612718 -0.012529 0)
(0.0645866 -0.012639 0)
(0.0678246 -0.012647 0)
(0.070962 -0.0125471 0)
(0.0739752 -0.0123351 0)
(0.0768415 -0.0120084 0)
(0.0795394 -0.0115663 0)
(0.0820499 -0.0110105 0)
(0.0843565 -0.0103449 0)
(0.0864462 -0.00957556 0)
(0.0883093 -0.00871106 0)
(0.0899399 -0.00776177 0)
(0.0913353 -0.00673974 0)
(0.0924956 -0.00565825 0)
(0.0934233 -0.00453142 0)
(0.0941223 -0.00337384 0)
(0.0945973 -0.00220028 0)
(0.0948529 -0.00102548 0)
(0.0948929 0.000135928 0)
(0.0947198 0.00126947 0)
(0.0943345 0.00236076 0)
(0.093736 0.00339546 0)
(0.0929215 0.00435925 0)
(0.0918867 0.0052379 0)
(0.0906263 0.00601732 0)
(0.0891349 0.00668379 0)
(0.0874081 0.00722426 0)
(0.0854442 0.00762682 0)
(0.0832462 0.00788162 0)
(0.0808245 0.00798194 0)
(0.0782002 0.00792565 0)
(0.0754072 0.00771652 0)
(0.0724937 0.00736536 0)
(0.0695217 0.00689036 0)
(0.0665625 0.00631634 0)
(0.0636914 0.00567256 0)
(0.0609799 0.00498918 0)
(0.0584883 0.00429328 0)
(0.0562604 0.00360563 0)
(0.0543219 0.00293921 0)
(0.052681 0.0022997 0)
(0.0513321 0.00168748 0)
(0.0502597 0.00110009 0)
(0.0494431 0.000534487 0)
(0.0488591 -1.1507e-05 0)
(0.0484848 -0.000538524 0)
(0.048298 -0.00104558 0)
(0.0482787 -0.00153031 0)
(0.048408 -0.00198935 0)
(0.0486688 -0.00241869 0)
(0.0490451 -0.00281391 0)
(0.0495217 -0.00317042 0)
(0.0500843 -0.00348356 0)
(0.0507188 -0.00374874 0)
(0.0514119 -0.00396155 0)
(0.0521504 -0.00411789 0)
(0.0529217 -0.00421412 0)
(0.0537136 -0.00424731 0)
(0.0545143 -0.0042155 0)
(0.0553128 -0.00411807 0)
(0.0560984 -0.00395607 0)
(0.0568612 -0.0037326 0)
(0.0575918 -0.00345308 0)
(0.0582817 -0.00312538 0)
(0.0589226 -0.00275978 0)
(0.0595074 -0.00236857 0)
(0.0600296 -0.00196553 0)
(0.0604841 -0.00156501 0)
(0.0608671 -0.00118097 0)
(0.0611769 -0.000825942 0)
(0.0614142 -0.000510113 0)
(0.061582 -0.000240667 0)
(0.0616858 -2.14609e-05 0)
(0.0617334 0.000146941 0)
(0.061734 0.000266884 0)
(0.0616979 0.000343015 0)
(0.0616352 0.000381541 0)
(0.0615557 0.000389482 0)
(0.0614679 0.000374017 0)
(0.0613788 0.000341956 0)
(0.061294 0.00029938 0)
(0.0612173 0.000251435 0)
(0.0611511 0.000202237 0)
(0.0610963 0.000154896 0)
(0.0610532 0.000111586 0)
(0.0610211 7.36651e-05 0)
(0.0609989 4.18162e-05 0)
(0.0609851 1.6185e-05 0)
(0.0609783 -3.48096e-06 0)
(0.0609769 -1.77096e-05 0)
(0.0609795 -2.71974e-05 0)
(0.0609849 -3.27218e-05 0)
(0.0609919 -3.50725e-05 0)
(0.0609997 -3.50008e-05 0)
(0.0610077 -3.31857e-05 0)
(0.0610154 -3.02137e-05 0)
(0.0610225 -2.65705e-05 0)
(0.0610287 -2.26407e-05 0)
(0.061034 -1.87142e-05 0)
(0.0610384 -1.49966e-05 0)
(0.0610418 -1.16222e-05 0)
(0.0610445 -8.66637e-06 0)
(0.0610465 -6.15944e-06 0)
(0.0610479 -4.09793e-06 0)
(0.0610489 -2.45506e-06 0)
(0.0610494 -1.18937e-06 0)
(0.0610497 -2.51549e-07 0)
(0.0610497 4.10363e-07 0)
(0.0610496 8.47198e-07 0)
(0.0610494 1.10615e-06 0)
(0.0610491 1.22926e-06 0)
(0.0610488 1.25268e-06 0)
(0.0610486 1.20652e-06 0)
(0.0610483 1.11507e-06 0)
(0.061048 9.97335e-07 0)
(0.0610478 8.67661e-07 0)
(0.0610476 7.36444e-07 0)
(0.0610475 6.10831e-07 0)
(0.0610474 4.95381e-07 0)
(0.0610473 3.92655e-07 0)
(0.0610472 3.03723e-07 0)
(0.0610471 2.28596e-07 0)
(0.0610471 1.66569e-07 0)
(0.061047 1.16492e-07 0)
(0.061047 7.69752e-08 0)
(0.061047 4.65451e-08 0)
(0.061047 2.37465e-08 0)
(0.061047 7.2139e-09 0)
(0.061047 -4.28706e-09 0)
(0.061047 -1.18387e-08 0)
(0.061047 -1.63654e-08 0)
(0.061047 -1.86387e-08 0)
(0.061047 -1.92877e-08 0)
(0.061047 -1.88147e-08 0)
(0.061047 -1.76115e-08 0)
(0.061047 -1.59763e-08 0)
(0.061047 -1.41299e-08 0)
(0.061047 -1.22303e-08 0)
(0.061047 -1.03856e-08 0)
(0.061047 -8.66537e-09 0)
(0.061047 -7.11015e-09 0)
(0.061047 -5.73897e-09 0)
(0.061047 -4.55568e-09 0)
(0.061047 -3.55386e-09 0)
(0.061047 -2.72052e-09 0)
(0.061047 -2.03902e-09 0)
(0.061047 -1.49105e-09 0)
(0.061047 -1.05811e-09 0)
(0.061047 -7.22472e-10 0)
(0.061047 -4.67802e-10 0)
(0.061047 -2.79478e-10 0)
(0.061047 -1.44725e-10 0)
(0.061047 -5.26292e-11 0)
(0.061047 5.97161e-12 0)
(0.061047 3.84313e-11 0)
(0.061047 5.21998e-11 0)
(0.061047 4.63943e-11 0)
(-0.000708995 0.003074 0)
(-0.00214788 0.00468094 0)
(-0.00262426 0.00492916 0)
(-0.0028456 0.00452257 0)
(-0.00262948 0.00409733 0)
(-0.00229843 0.0036765 0)
(-0.00178996 0.00331621 0)
(-0.00118729 0.00299983 0)
(-0.000478427 0.00272212 0)
(0.000315008 0.00247239 0)
(0.00119557 0.00224067 0)
(0.00215868 0.00201785 0)
(0.00320644 0.00179458 0)
(0.00433954 0.00156237 0)
(0.00556057 0.00131294 0)
(0.00687177 0.00103879 0)
(0.00827576 0.000733169 0)
(0.00977497 0.000390337 0)
(0.0113718 5.63082e-06 0)
(0.0130683 -0.000424398 0)
(0.0148666 -0.000901959 0)
(0.0167683 -0.00142801 0)
(0.018775 -0.00200232 0)
(0.0208878 -0.00262347 0)
(0.0231077 -0.003289 0)
(0.0254349 -0.00399549 0)
(0.0278694 -0.00473861 0)
(0.0304102 -0.00551328 0)
(0.0330556 -0.00631369 0)
(0.035803 -0.00713344 0)
(0.0386487 -0.00796558 0)
(0.0415876 -0.00880264 0)
(0.0446135 -0.00963667 0)
(0.0477189 -0.0104593 0)
(0.0508946 -0.0112615 0)
(0.0541298 -0.0120342 0)
(0.0574119 -0.0127676 0)
(0.0607265 -0.0134517 0)
(0.0640576 -0.0140763 0)
(0.067387 -0.0146309 0)
(0.070695 -0.015105 0)
(0.0739601 -0.0154883 0)
(0.0771595 -0.0157705 0)
(0.0802691 -0.0159419 0)
(0.0832642 -0.0159936 0)
(0.08612 -0.0159178 0)
(0.0888125 -0.0157084 0)
(0.0913194 -0.0153615 0)
(0.093621 -0.0148757 0)
(0.0957017 -0.0142525 0)
(0.0975503 -0.0134966 0)
(0.0991611 -0.0126157 0)
(0.100534 -0.0116203 0)
(0.101674 -0.0105236 0)
(0.10259 -0.00934048 0)
(0.103298 -0.00808725 0)
(0.103813 -0.00678061 0)
(0.104153 -0.00543727 0)
(0.104336 -0.00407334 0)
(0.104379 -0.00270408 0)
(0.104298 -0.00134367 0)
(0.104103 -5.2574e-06 0)
(0.103804 0.00129895 0)
(0.103406 0.00255741 0)
(0.10291 0.00375902 0)
(0.102313 0.0048928 0)
(0.10161 0.00594764 0)
(0.100792 0.0069121 0)
(0.0998458 0.00777437 0)
(0.0987597 0.00852227 0)
(0.0975195 0.00914354 0)
(0.096112 0.00962636 0)
(0.0945263 0.00996003 0)
(0.0927554 0.010136 0)
(0.0907987 0.0101486 0)
(0.088664 0.00999641 0)
(0.0863699 0.009683 0)
(0.0839466 0.00921764 0)
(0.0814363 0.00861567 0)
(0.0788913 0.00789805 0)
(0.0763707 0.00709008 0)
(0.073935 0.00621934 0)
(0.0716406 0.00531318 0)
(0.0695346 0.00439623 0)
(0.0676516 0.00348863 0)
(0.0660122 0.00260525 0)
(0.0646239 0.00175593 0)
(0.063483 0.000946498 0)
(0.0625778 0.000180125 0)
(0.061891 -0.000541416 0)
(0.0614023 -0.00121675 0)
(0.0610902 -0.00184427 0)
(0.0609328 -0.00242185 0)
(0.060909 -0.00294677 0)
(0.0609985 -0.00341582 0)
(0.061182 -0.00382542 0)
(0.0614412 -0.00417184 0)
(0.0617591 -0.00445135 0)
(0.0621197 -0.00466052 0)
(0.0625083 -0.00479637 0)
(0.0629117 -0.00485673 0)
(0.0633181 -0.00484048 0)
(0.0637175 -0.00474793 0)
(0.0641016 -0.00458115 0)
(0.0644645 -0.00434428 0)
(0.0648018 -0.00404372 0)
(0.0651111 -0.00368826 0)
(0.0653917 -0.00328888 0)
(0.0656435 -0.0028585 0)
(0.0658675 -0.00241133 0)
(0.0660642 -0.00196222 0)