/*--------------------------------*- C++ -*----------------------------------*\
| =========                 |                                                 |
| \\      /  F ield         | OpenFOAM: The Open Source CFD Toolbox           |
|  \\    /   O peration     | Version:  4.1                                   |
|   \\  /    A nd           | Web:      www.OpenFOAM.org                      |
|    \\/     M anipulation  |                                                 |
\*---------------------------------------------------------------------------*/
FoamFile
{
    version     2.0;
    format      ascii;
    class       volVectorField;
    location    "339";
    object      U;
}
// * * * * * * * * * * * * * * * * * * * * * * * * * * * * * * * * * * * * * //

dimensions      [0 1 -1 0 0 0 0];

internalField   nonuniform List<vector> 
3264
(
(-2.64554e-06 -4.04023e-07 0)
(-0.000132676 3.05432e-05 0)
(-0.000388569 4.85877e-05 0)
(-0.00067522 5.08547e-05 0)
(-0.000976728 5.25073e-05 0)
(-0.00128259 5.18106e-05 0)
(-0.0015875 5.30002e-05 0)
(-0.00189299 5.35269e-05 0)
(-0.00219466 5.45229e-05 0)
(-0.00249351 5.50619e-05 0)
(-0.00278737 5.55761e-05 0)
(-0.00307693 5.58507e-05 0)
(-0.00336178 5.60884e-05 0)
(-0.00364278 5.63016e-05 0)
(-0.00392052 5.6624e-05 0)
(-0.00419619 5.71375e-05 0)
(-0.00447095 5.79571e-05 0)
(-0.00474623 5.91817e-05 0)
(-0.00502345 6.0914e-05 0)
(-0.00530405 6.32434e-05 0)
(-0.00558937 6.62453e-05 0)
(-0.00588051 6.99705e-05 0)
(-0.00617829 7.44375e-05 0)
(-0.00648307 7.96219e-05 0)
(-0.00679467 8.54477e-05 0)
(-0.00711224 9.17786e-05 0)
(-0.00743416 9.84139e-05 0)
(-0.007758 0.000105088 0)
(-0.00808047 0.000111476 0)
(-0.00839739 0.000117206 0)
(-0.00870378 0.000121874 0)
(-0.00899393 0.00012507 0)
(-0.00926152 0.000126398 0)
(-0.00949979 0.000125504 0)
(-0.00970176 0.000122093 0)
(-0.00986038 0.000115952 0)
(-0.00996881 0.000106957 0)
(-0.0100206 9.50828e-05 0)
(-0.0100097 8.03997e-05 0)
(-0.00993111 6.30714e-05 0)
(-0.00978043 4.33464e-05 0)
(-0.00955438 2.15463e-05 0)
(-0.00925071 -1.94544e-06 0)
(-0.00886832 -2.66966e-05 0)
(-0.00840724 -5.22391e-05 0)
(-0.0078687 -7.80815e-05 0)
(-0.00725509 -0.00010372 0)
(-0.00656989 -0.000128652 0)
(-0.00581771 -0.000152383 0)
(-0.00500416 -0.000174441 0)
(-0.0041358 -0.000194381 0)
(-0.00322006 -0.000211801 0)
(-0.00226514 -0.000226346 0)
(-0.00127987 -0.000237718 0)
(-0.000273628 -0.000245687 0)
(0.000743832 -0.000250095 0)
(0.00176252 -0.000250865 0)
(0.00277239 -0.000248006 0)
(0.00376346 -0.000241611 0)
(0.00472606 -0.000231864 0)
(0.00565094 -0.000219031 0)
(0.00652948 -0.000203455 0)
(0.00735384 -0.00018555 0)
(0.00811711 -0.000165782 0)
(0.00881341 -0.000144658 0)
(0.00943801 -0.000122707 0)
(0.00998742 -0.000100464 0)
(0.0104593 -7.84457e-05 0)
(0.0108528 -5.71394e-05 0)
(0.0111679 -3.69826e-05 0)
(0.0114061 -1.83517e-05 0)
(0.0115697 -1.55117e-06 0)
(0.0116622 1.31929e-05 0)
(0.0116877 2.57359e-05 0)
(0.011651 3.60142e-05 0)
(0.0115577 4.40418e-05 0)
(0.0114134 4.99046e-05 0)
(0.0112243 5.37519e-05 0)
(0.0109964 5.57865e-05 0)
(0.0107361 5.62533e-05 0)
(0.0104493 5.54258e-05 0)
(0.0101419 5.35924e-05 0)
(0.00981949 5.10398e-05 0)
(0.00948725 4.80371e-05 0)
(0.00915002 4.48196e-05 0)
(0.00881218 4.15743e-05 0)
(0.00847768 3.84302e-05 0)
(0.00814996 3.54551e-05 0)
(0.007832 3.26601e-05 0)
(0.00752631 3.00128e-05 0)
(0.00723489 2.74568e-05 0)
(0.00695927 2.49338e-05 0)
(0.00670055 2.24026e-05 0)
(0.00645937 1.98522e-05 0)
(0.00623604 1.73053e-05 0)
(0.00603053 1.48126e-05 0)
(0.00584256 1.24414e-05 0)
(0.00567169 1.02609e-05 0)
(0.0055173 8.32937e-06 0)
(0.00537869 6.68363e-06 0)
(0.00525508 5.33501e-06 0)
(0.00514562 4.26983e-06 0)
(0.00504942 3.45475e-06 0)
(0.00496561 2.84493e-06 0)
(0.00489329 2.39294e-06 0)
(0.00483161 2.05631e-06 0)
(0.00477977 1.80214e-06 0)
(0.00473701 1.60849e-06 0)
(0.00470268 1.46259e-06 0)
(0.00467618 1.35737e-06 0)
(0.00465705 1.28717e-06 0)
(0.00464491 1.24392e-06 0)
(0.0046395 1.21438e-06 0)
(0.00464072 1.17872e-06 0)
(0.00464856 1.11041e-06 0)
(0.00466317 9.77146e-07 0)
(0.0046848 7.42574e-07 0)
(0.00471384 3.68545e-07 0)
(0.00475077 -1.82438e-07 0)
(0.00479614 -9.44701e-07 0)
(0.00485055 -1.94701e-06 0)
(0.00491464 -3.21043e-06 0)
(0.004989 -4.74654e-06 0)
(0.00507419 -6.55604e-06 0)
(0.0051707 -8.62797e-06 0)
(0.00527886 -1.09393e-05 0)
(0.00539887 -1.34552e-05 0)
(0.00553073 -1.61299e-05 0)
(0.00567425 -1.89079e-05 0)
(0.00582899 -2.17259e-05 0)
(0.00599428 -2.45148e-05 0)
(0.00616918 -2.72026e-05 0)
(0.00635256 -2.97169e-05 0)
(0.006543 -3.19876e-05 0)
(0.0067389 -3.39503e-05 0)
(0.00693848 -3.55482e-05 0)
(0.0071398 -3.67349e-05 0)
(0.00734083 -3.74764e-05 0)
(0.00753947 -3.7752e-05 0)
(0.00773362 -3.75551e-05 0)
(0.00792126 -3.68936e-05 0)
(0.00810043 -3.57885e-05 0)
(0.00826938 -3.42732e-05 0)
(0.00842654 -3.23912e-05 0)
(0.0085706 -3.01942e-05 0)
(0.00870056 -2.77394e-05 0)
(0.00881571 -2.50874e-05 0)
(0.00891566 -2.22996e-05 0)
(0.00900038 -1.9437e-05 0)
(0.00907011 -1.65578e-05 0)
(0.00912542 -1.37169e-05 0)
(0.00916712 -1.09646e-05 0)
(0.00919625 -8.34627e-06 0)
(0.00921403 -5.9019e-06 0)
(0.00922183 -3.66567e-06 0)
(0.0092211 -1.66589e-06 0)
(0.00921335 7.51104e-08 0)
(0.00920009 1.54103e-06 0)
(0.00918283 2.72155e-06 0)
(0.00916299 3.61229e-06 0)
(0.00914194 4.21461e-06 0)
(0.00912093 4.53548e-06 0)
(0.00910109 4.58725e-06 0)
(0.00908341 4.3874e-06 0)
(0.00906873 3.95817e-06 0)
(0.00905774 3.32615e-06 0)
(0.00905096 2.52171e-06 0)
(0.00904876 1.57829e-06 0)
(0.00905133 5.31545e-07 0)
(0.00905874 -5.81586e-07 0)
(0.00907087 -1.72397e-06 0)
(0.00908751 -2.85937e-06 0)
(0.00910829 -3.95352e-06 0)
(0.00913278 -4.97516e-06 0)
(0.00916044 -5.89693e-06 0)
(0.00919066 -6.69606e-06 0)
(0.00922283 -7.35495e-06 0)
(0.00925628 -7.86141e-06 0)
(0.00929035 -8.20876e-06 0)
(0.00932443 -8.39569e-06 0)
(0.0093579 -8.4259e-06 0)
(0.00939023 -8.30761e-06 0)
(0.00942094 -8.05294e-06 0)
(0.00944963 -7.67716e-06 0)
(0.00947596 -7.19795e-06 0)
(0.0094997 -6.63465e-06 0)
(0.00952068 -6.00746e-06 0)
(0.00953883 -5.33678e-06 0)
(0.00955413 -4.64247e-06 0)
(0.00956665 -3.94358e-06 0)
(0.0095765 -3.2566e-06 0)
(0.00958387 -2.59882e-06 0)
(0.00958896 -1.97586e-06 0)
(0.009592 -1.41456e-06 0)
(0.00959334 -8.72013e-07 0)
(0.00959293 -4.49583e-07 0)
(0.00959186 7.14437e-08 0)
(0.00958807 4.53144e-07 0)
(0.00958689 7.94274e-07 0)
(0.00957756 2.8973e-06 0)
(-8.32991e-05 0.000135741 0)
(-0.000582249 0.000377904 0)
(-0.00131001 0.000516996 0)
(-0.0020847 0.000561482 0)
(-0.00286561 0.000583115 0)
(-0.00363633 0.000585658 0)
(-0.00438384 0.000586697 0)
(-0.00511153 0.000581489 0)
(-0.0058128 0.000574598 0)
(-0.00649059 0.000565195 0)
(-0.00714311 0.000555286 0)
(-0.00777287 0.000545293 0)
(-0.00838072 0.000536193 0)
(-0.00896908 0.000528478 0)
(-0.00953985 0.000522669 0)
(-0.0100953 0.000519093 0)
(-0.0106375 0.000517988 0)
(-0.0111681 0.000519438 0)
(-0.0116885 0.000523381 0)
(-0.0121995 0.00052958 0)
(-0.0127011 0.000537604 0)
(-0.0131925 0.00054682 0)
(-0.0136718 0.000556385 0)
(-0.0141363 0.000565253 0)
(-0.0145817 0.000572199 0)
(-0.0150031 0.000575852 0)
(-0.0153941 0.000574748 0)
(-0.0157476 0.000567388 0)
(-0.0160555 0.000552312 0)
(-0.0163092 0.000528173 0)
(-0.0164998 0.000493802 0)
(-0.0166182 0.000448276 0)
(-0.0166554 0.000390965 0)
(-0.016603 0.000321563 0)
(-0.016453 0.000240104 0)
(-0.0161984 0.000146962 0)
(-0.0158331 4.28306e-05 0)
(-0.0153521 -7.13008e-05 0)
(-0.0147517 -0.000194187 0)
(-0.0140293 -0.000324364 0)
(-0.013184 -0.000460196 0)
(-0.0122158 -0.000599913 0)
(-0.0111263 -0.00074165 0)
(-0.00991833 -0.000883487 0)
(-0.00859611 -0.00102348 0)
(-0.00716497 -0.00115968 0)
(-0.00563151 -0.00129019 0)
(-0.00400344 -0.00141314 0)
(-0.00228954 -0.00152678 0)
(-0.000499597 -0.00162943 0)
(0.0013557 -0.00171955 0)
(0.00326484 -0.00179575 0)
(0.00521559 -0.00185681 0)
(0.00719508 -0.0019017 0)
(0.00919 -0.00192962 0)
(0.0111867 -0.00194 0)
(0.0131712 -0.00193256 0)
(0.0151297 -0.00190728 0)
(0.0170483 -0.00186443 0)
(0.0189137 -0.00180458 0)
(0.0207128 -0.00172862 0)
(0.0224333 -0.00163769 0)
(0.0240638 -0.00153322 0)
(0.0255938 -0.00141685 0)
(0.027014 -0.00129043 0)
(0.0283162 -0.00115595 0)
(0.0294936 -0.00101551 0)
(0.0305409 -0.00087125 0)
(0.031454 -0.000725298 0)
(0.0322303 -0.000579731 0)
(0.0328687 -0.000436516 0)
(0.0333692 -0.000297482 0)
(0.0337332 -0.000164277 0)
(0.0339634 -3.8352e-05 0)
(0.0340633 7.90569e-05 0)
(0.0340378 0.000186937 0)
(0.0338923 0.000284499 0)
(0.0336336 0.000371171 0)
(0.0332687 0.00044659 0)
(0.0328058 0.000510588 0)
(0.0322533 0.000563181 0)
(0.0316205 0.000604555 0)
(0.0309171 0.000635053 0)
(0.030153 0.000655162 0)
(0.0293389 0.000665506 0)
(0.0284852 0.000666835 0)
(0.0276029 0.000660014 0)
(0.0267025 0.000646008 0)
(0.0257945 0.000625865 0)
(0.0248888 0.000600685 0)
(0.023995 0.000571587 0)
(0.0231214 0.000539659 0)
(0.0222755 0.000505906 0)
(0.021464 0.000471206 0)
(0.020692 0.00043627 0)
(0.0199636 0.000401634 0)
(0.0192819 0.000367672 0)
(0.0186487 0.000334637 0)
(0.018065 0.000302699 0)
(0.0175309 0.000271993 0)
(0.0170456 0.000242634 0)
(0.0166082 0.000214733 0)
(0.0162168 0.000188381 0)
(0.0158698 0.000163646 0)
(0.0155649 0.000140555 0)
(0.0153 0.000119087 0)
(0.015073 9.91759e-05 0)
(0.0148817 8.07084e-05 0)
(0.0147241 6.35301e-05 0)
(0.0145984 4.74517e-05 0)
(0.014503 3.22564e-05 0)
(0.0144363 1.77072e-05 0)
(0.0143973 3.55467e-06 0)
(0.0143851 -1.04551e-05 0)
(0.014399 -2.45723e-05 0)
(0.0144386 -3.90346e-05 0)
(0.0145039 -5.40586e-05 0)
(0.0145948 -6.98308e-05 0)
(0.0147116 -8.64986e-05 0)
(0.0148545 -0.000104163 0)
(0.0150239 -0.000122869 0)
(0.0152202 -0.000142606 0)
(0.0154435 -0.000163296 0)
(0.015694 -0.000184799 0)
(0.0159716 -0.000206911 0)
(0.016276 -0.000229369 0)
(0.0166065 -0.000251853 0)
(0.0169621 -0.000273998 0)
(0.0173416 -0.0002954 0)
(0.0177433 -0.000315631 0)
(0.0181649 -0.000334248 0)
(0.0186041 -0.000350808 0)
(0.0190579 -0.000364882 0)
(0.0195231 -0.000376072 0)
(0.0199962 -0.000384022 0)
(0.0204733 -0.000388434 0)
(0.0209503 -0.000389082 0)
(0.021423 -0.000385824 0)
(0.0218871 -0.000378607 0)
(0.0223383 -0.000367482 0)
(0.0227724 -0.000352602 0)
(0.0231855 -0.000334221 0)
(0.0235737 -0.000312694 0)
(0.0239339 -0.000288465 0)
(0.0242631 -0.000262052 0)
(0.0245591 -0.000234031 0)
(0.0248204 -0.000205016 0)
(0.0250459 -0.000175636 0)
(0.0252355 -0.00014651 0)
(0.0253896 -0.000118226 0)
(0.0255096 -9.13186e-05 0)
(0.0255972 -6.62578e-05 0)
(0.0256549 -4.34325e-05 0)
(0.0256857 -2.31456e-05 0)
(0.0256929 -5.61132e-06 0)
(0.02568 9.04214e-06 0)
(0.0256509 2.07679e-05 0)
(0.0256094 2.95924e-05 0)
(0.025559 3.5607e-05 0)
(0.0255036 3.8958e-05 0)
(0.0254462 3.9838e-05 0)
(0.0253901 3.8477e-05 0)
(0.0253377 3.51342e-05 0)
(0.0252915 3.00912e-05 0)
(0.0252532 2.36443e-05 0)
(0.0252242 1.60988e-05 0)
(0.0252056 7.76244e-06 0)
(0.0251981 -1.06078e-06 0)
(0.0252017 -1.00765e-05 0)
(0.0252165 -1.90058e-05 0)
(0.0252419 -2.7591e-05 0)
(0.0252773 -3.56008e-05 0)
(0.0253217 -4.28346e-05 0)
(0.0253739 -4.91268e-05 0)
(0.0254327 -5.4349e-05 0)
(0.0254965 -5.8412e-05 0)
(0.0255641 -6.12661e-05 0)
(0.0256338 -6.29002e-05 0)
(0.0257044 -6.33395e-05 0)
(0.0257744 -6.26428e-05 0)
(0.0258425 -6.08975e-05 0)
(0.0259077 -5.82156e-05 0)
(0.025969 -5.47277e-05 0)
(0.0260256 -5.05774e-05 0)
(0.0260768 -4.5916e-05 0)
(0.0261224 -4.08966e-05 0)
(0.0261619 -3.56695e-05 0)
(0.0261953 -3.03777e-05 0)
(0.0262227 -2.51532e-05 0)
(0.0262443 -2.01136e-05 0)
(0.0262604 -1.53596e-05 0)
(0.0262715 -1.09766e-05 0)
(0.0262781 -7.01664e-06 0)
(0.0262808 -3.55717e-06 0)
(0.0262801 -5.04493e-07 0)
(0.0262767 1.85487e-06 0)
(0.0262712 4.2482e-06 0)
(0.0262635 5.58295e-06 0)
(0.0262567 7.14926e-06 0)
(0.0262437 1.10799e-05 0)
(-0.00017911 0.00064465 0)
(-0.00104384 0.00125292 0)
(-0.00216954 0.00153245 0)
(-0.00330898 0.00157553 0)
(-0.00440119 0.00157326 0)
(-0.00543599 0.00153324 0)
(-0.00639787 0.00149372 0)
(-0.00729824 0.00144653 0)
(-0.00813404 0.00139982 0)
(-0.00891383 0.00135224 0)
(-0.00963944 0.00130665 0)
(-0.0103164 0.00126355 0)
(-0.0109477 0.00122403 0)
(-0.0115368 0.00118851 0)
(-0.0120863 0.00115729 0)
(-0.0125983 0.00113032 0)
(-0.013074 0.00110732 0)
(-0.0135143 0.00108771 0)
(-0.0139188 0.0010706 0)
(-0.0142866 0.0010548 0)
(-0.0146157 0.00103882 0)
(-0.0149033 0.00102089 0)
(-0.0151456 0.000999029 0)
(-0.015338 0.000971046 0)
(-0.0154749 0.000934675 0)
(-0.0155504 0.000887641 0)
(-0.0155578 0.000827763 0)
(-0.0154902 0.000753051 0)
(-0.0153404 0.000661799 0)
(-0.0151016 0.000552665 0)
(-0.0147671 0.000424731 0)
(-0.0143304 0.000277545 0)
(-0.0137861 0.00011114 0)
(-0.0131293 -7.39673e-05 0)
(-0.0123558 -0.000276799 0)
(-0.0114626 -0.000495946 0)
(-0.0104477 -0.000729617 0)
(-0.00930984 -0.00097569 0)
(-0.00804916 -0.00123176 0)
(-0.00666664 -0.00149521 0)
(-0.00516438 -0.00176323 0)
(-0.00354552 -0.0020329 0)
(-0.0018142 -0.00230121 0)
(2.44025e-05 -0.00256511 0)
(0.00196415 -0.00282154 0)
(0.00399794 -0.00306748 0)
(0.00611773 -0.00329993 0)
(0.00831462 -0.00351604 0)
(0.0105788 -0.00371303 0)
(0.0128999 -0.00388829 0)
(0.0152664 -0.00403941 0)
(0.0176665 -0.00416419 0)
(0.0200877 -0.0042607 0)
(0.022517 -0.00432731 0)
(0.0249411 -0.00436272 0)
(0.0273465 -0.00436604 0)
(0.0297195 -0.00433679 0)
(0.0320467 -0.00427494 0)
(0.0343148 -0.00418093 0)
(0.0365109 -0.00405571 0)
(0.038623 -0.00390068 0)
(0.0406395 -0.00371772 0)
(0.0425499 -0.00350915 0)
(0.0443449 -0.00327765 0)
(0.046016 -0.00302623 0)
(0.0475563 -0.00275814 0)
(0.0489598 -0.00247677 0)
(0.0502221 -0.0021856 0)
(0.0513397 -0.00188811 0)
(0.0523105 -0.00158769 0)
(0.0531334 -0.00128757 0)
(0.0538083 -0.000990784 0)
(0.0543361 -0.000700131 0)
(0.0547182 -0.00041813 0)
(0.0549572 -0.00014702 0)
(0.0550558 0.00011124 0)
(0.0550177 0.000354961 0)
(0.0548468 0.000582704 0)
(0.0545476 0.000793259 0)
(0.0541251 0.000985614 0)
(0.0535845 0.00115893 0)
(0.0529318 0.00131254 0)
(0.0521733 0.00144587 0)
(0.051316 0.00155853 0)
(0.0503675 0.00165024 0)
(0.049336 0.00172087 0)
(0.0482306 0.00177048 0)
(0.0470609 0.00179938 0)
(0.0458376 0.00180811 0)
(0.0445718 0.00179755 0)
(0.0432756 0.00176891 0)
(0.0419613 0.00172375 0)
(0.0406417 0.00166397 0)
(0.0393294 0.00159171 0)
(0.0380368 0.00150932 0)
(0.0367757 0.00141921 0)
(0.0355568 0.00132378 0)
(0.0343897 0.00122525 0)
(0.0332823 0.00112562 0)
(0.032241 0.00102659 0)
(0.0312705 0.000929538 0)
(0.030374 0.000835467 0)
(0.029553 0.000745084 0)
(0.0288079 0.000658817 0)
(0.0281379 0.000576872 0)
(0.0275415 0.000499289 0)
(0.0270166 0.000425977 0)
(0.0265604 0.00035675 0)
(0.0261703 0.000291342 0)
(0.0258432 0.000229412 0)
(0.0255762 0.000170554 0)
(0.0253667 0.000114308 0)
(0.0252119 6.01674e-05 0)
(0.0251095 7.60287e-06 0)
(0.0250574 -4.39193e-05 0)
(0.0250536 -9.49116e-05 0)
(0.0250966 -0.000145842 0)
(0.0251849 -0.000197108 0)
(0.0253173 -0.000249022 0)
(0.0254927 -0.000301786 0)
(0.02571 -0.000355487 0)
(0.0259683 -0.000410082 0)
(0.0262666 -0.000465401 0)
(0.0266037 -0.000521144 0)
(0.0269784 -0.000576885 0)
(0.0273892 -0.000632089 0)
(0.0278344 -0.000686115 0)
(0.028312 -0.000738242 0)
(0.0288198 -0.000787679 0)
(0.0293551 -0.000833593 0)
(0.0299149 -0.000875126 0)
(0.0304958 -0.000911422 0)
(0.0310943 -0.000941653 0)
(0.0317063 -0.00096504 0)
(0.0323275 -0.000980885 0)
(0.0329533 -0.000988592 0)
(0.0335791 -0.000987692 0)
(0.0341997 -0.000977871 0)
(0.0348103 -0.000958986 0)
(0.0354057 -0.000931083 0)
(0.035981 -0.000894414 0)
(0.0365312 -0.000849441 0)
(0.0370517 -0.000796839 0)
(0.0375384 -0.000737488 0)
(0.0379873 -0.000672457 0)
(0.0383952 -0.000602981 0)
(0.0387596 -0.000530425 0)
(0.0390785 -0.000456245 0)
(0.0393509 -0.000381942 0)
(0.0395764 -0.000309003 0)
(0.0397558 -0.000238859 0)
(0.0398906 -0.000172825 0)
(0.039983 -0.000112057 0)
(0.0400363 -5.75193e-05 0)
(0.0400542 -9.95187e-06 0)
(0.040041 3.01403e-05 0)
(0.0400016 6.24912e-05 0)
(0.0399409 8.70641e-05 0)
(0.039864 0.000104034 0)
(0.0397761 0.000113762 0)
(0.0396821 0.000116765 0)
(0.0395864 0.000113686 0)
(0.0394933 0.000105261 0)
(0.0394063 9.22893e-05 0)
(0.0393285 7.5609e-05 0)
(0.0392624 5.60704e-05 0)
(0.0392099 3.45162e-05 0)
(0.0391723 1.17632e-05 0)
(0.0391503 -1.14139e-05 0)
(0.039144 -3.42961e-05 0)
(0.0391531 -5.62318e-05 0)
(0.039177 -7.66471e-05 0)
(0.0392145 -9.50538e-05 0)
(0.0392643 -0.000111055 0)
(0.0393247 -0.000124351 0)
(0.0393939 -0.000134737 0)
(0.0394701 -0.000142106 0)
(0.0395511 -0.000146444 0)
(0.0396352 -0.000147824 0)
(0.0397204 -0.000146398 0)
(0.0398049 -0.000142387 0)
(0.039887 -0.000136071 0)
(0.0399655 -0.000127774 0)
(0.040039 -0.000117852 0)
(0.0401065 -0.000106678 0)
(0.0401672 -9.46324e-05 0)
(0.0402206 -8.20864e-05 0)
(0.0402664 -6.93939e-05 0)
(0.0403046 -5.68808e-05 0)
(0.0403352 -4.48376e-05 0)
(0.0403586 -3.35137e-05 0)
(0.0403753 -2.31113e-05 0)
(0.0403858 -1.3787e-05 0)
(0.0403908 -5.64952e-06 0)
(0.0403911 1.28006e-06 0)
(0.0403875 6.8573e-06 0)
(0.0403808 1.159e-05 0)
(0.0403719 1.45405e-05 0)
(0.0403618 1.74996e-05 0)
(0.0403483 2.06693e-05 0)
(-0.000306496 0.00126148 0)
(-0.00152034 0.00231464 0)
(-0.00287734 0.00272446 0)
(-0.00414799 0.0027377 0)
(-0.00525094 0.00267007 0)
(-0.00623553 0.00254592 0)
(-0.00708766 0.00242286 0)
(-0.00784073 0.00229472 0)
(-0.00849593 0.00217275 0)
(-0.00906961 0.00205576 0)
(-0.00956651 0.00194629 0)
(-0.00999496 0.00184413 0)
(-0.010359 0.00174947 0)
(-0.0106628 0.00166183 0)
(-0.0109089 0.00158061 0)
(-0.0110987 0.00150491 0)
(-0.011233 0.00143356 0)
(-0.0113114 0.00136517 0)
(-0.011333 0.00129802 0)
(-0.011296 0.00123015 0)
(-0.0111978 0.00115933 0)
(-0.0110355 0.00108314 0)
(-0.0108053 0.000998993 0)
(-0.0105033 0.000904232 0)
(-0.0101251 0.000796228 0)
(-0.00966623 0.00067247 0)
(-0.00912208 0.000530677 0)
(-0.00848818 0.000368887 0)
(-0.00776026 0.000185546 0)
(-0.00693436 -2.04227e-05 0)
(-0.00600697 -0.000249575 0)
(-0.0049751 -0.000501916 0)
(-0.00383634 -0.000776897 0)
(-0.00258895 -0.00107343 0)
(-0.00123186 -0.00138991 0)
(0.000235247 -0.00172427 0)
(0.00181197 -0.00207403 0)
(0.00349711 -0.00243633 0)
(0.00528873 -0.00280803 0)
(0.00718408 -0.00318571 0)
(0.00917961 -0.00356576 0)
(0.011271 -0.00394441 0)
(0.013453 -0.00431777 0)
(0.0157197 -0.00468191 0)
(0.0180643 -0.00503285 0)
(0.0204791 -0.00536662 0)
(0.0229556 -0.00567931 0)
(0.0254847 -0.0059671 0)
(0.0280562 -0.00622633 0)
(0.0306594 -0.00645348 0)
(0.033283 -0.0066453 0)
(0.0359149 -0.00679883 0)
(0.0385427 -0.00691142 0)
(0.0411534 -0.00698088 0)
(0.043734 -0.00700545 0)
(0.0462713 -0.00698393 0)
(0.0487522 -0.00691573 0)
(0.0511638 -0.00680088 0)
(0.0534939 -0.0066401 0)
(0.0557307 -0.00643483 0)
(0.0578637 -0.00618718 0)
(0.059883 -0.00589993 0)
(0.0617802 -0.00557648 0)
(0.0635481 -0.00522074 0)
(0.065181 -0.00483704 0)
(0.0666744 -0.00443003 0)
(0.0680253 -0.00400454 0)
(0.0692321 -0.00356544 0)
(0.0702942 -0.00311754 0)
(0.0712121 -0.00266546 0)
(0.0719874 -0.00221357 0)
(0.0726223 -0.00176586 0)
(0.0731195 -0.00132596 0)
(0.0734823 -0.00089706 0)
(0.0737142 -0.000481929 0)
(0.0738188 -8.29291e-05 0)
(0.0738 0.000297957 0)
(0.0736615 0.000659088 0)
(0.073407 0.00099911 0)
(0.0730401 0.00131691 0)
(0.0725643 0.00161155 0)
(0.0719832 0.00188223 0)
(0.0713003 0.00212824 0)
(0.070519 0.00234894 0)
(0.0696431 0.00254371 0)
(0.0686765 0.00271195 0)
(0.0676236 0.00285311 0)
(0.066489 0.0029667 0)
(0.0652782 0.00305234 0)
(0.0639972 0.00310977 0)
(0.062653 0.003139 0)
(0.0612537 0.0031403 0)
(0.0598081 0.00311428 0)
(0.0583263 0.00306201 0)
(0.0568195 0.00298496 0)
(0.0552994 0.00288512 0)
(0.0537787 0.00276489 0)
(0.0522705 0.0026271 0)
(0.0507878 0.00247491 0)
(0.0493433 0.00231165 0)
(0.0479491 0.0021407 0)
(0.046616 0.00196533 0)
(0.0453536 0.00178855 0)
(0.0441696 0.00161297 0)
(0.0430703 0.00144072 0)
(0.0420598 0.00127344 0)
(0.041141 0.00111226 0)
(0.0403149 0.000957838 0)
(0.0395814 0.000810444 0)
(0.0389391 0.000670009 0)
(0.038386 0.000536207 0)
(0.0379195 0.000408522 0)
(0.0375365 0.000286306 0)
(0.0372337 0.000168835 0)
(0.0370076 5.53535e-05 0)
(0.036855 -5.48828e-05 0)
(0.0367724 -0.000162568 0)
(0.0367566 -0.000268314 0)
(0.0368046 -0.000372615 0)
(0.0369133 -0.000475827 0)
(0.0370799 -0.000578149 0)
(0.0373016 -0.000679601 0)
(0.0375757 -0.000780027 0)
(0.0378994 -0.000879089 0)
(0.0382699 -0.000976275 0)
(0.0386844 -0.00107091 0)
(0.0391399 -0.00116217 0)
(0.0396333 -0.00124911 0)
(0.0401613 -0.0013307 0)
(0.0407203 -0.00140581 0)
(0.0413067 -0.00147329 0)
(0.0419166 -0.00153199 0)
(0.0425457 -0.00158077 0)
(0.0431897 -0.00161856 0)
(0.043844 -0.00164438 0)
(0.0445039 -0.00165738 0)
(0.0451643 -0.00165689 0)
(0.0458203 -0.00164242 0)
(0.0464669 -0.00161373 0)
(0.0470989 -0.00157083 0)
(0.0477114 -0.00151399 0)
(0.0482994 -0.00144379 0)
(0.0488584 -0.00136113 0)
(0.0493839 -0.00126718 0)
(0.0498719 -0.00116342 0)
(0.0503189 -0.00105157 0)
(0.050722 -0.00093362 0)
(0.0510787 -0.000811705 0)
(0.0513873 -0.000688102 0)
(0.0516469 -0.000565143 0)
(0.0518574 -0.000445146 0)
(0.0520194 -0.000330337 0)
(0.0521344 -0.000222777 0)
(0.0522048 -0.000124295 0)
(0.0522335 -3.64231e-05 0)
(0.0522245 3.96441e-05 0)
(0.0521821 0.000103085 0)
(0.0521111 0.000153463 0)
(0.0520167 0.000190722 0)
(0.0519043 0.000215165 0)
(0.0517794 0.000227422 0)
(0.0516472 0.000228404 0)
(0.0515127 0.000219245 0)
(0.0513806 0.000201257 0)
(0.051255 0.000175864 0)
(0.0511394 0.000144556 0)
(0.0510368 0.000108839 0)
(0.0509494 7.01916e-05 0)
(0.0508789 3.00306e-05 0)
(0.0508261 -1.032e-05 0)
(0.0507914 -4.96531e-05 0)
(0.0507747 -8.68984e-05 0)
(0.0507754 -0.000121136 0)
(0.0507922 -0.000151608 0)
(0.0508238 -0.00017772 0)
(0.0508684 -0.00019905 0)
(0.0509242 -0.000215338 0)
(0.050989 -0.000226487 0)
(0.0510609 -0.000232549 0)
(0.0511376 -0.000233715 0)
(0.0512172 -0.000230299 0)
(0.0512975 -0.000222717 0)
(0.051377 -0.000211472 0)
(0.0514538 -0.000197131 0)
(0.0515265 -0.000180302 0)
(0.0515941 -0.000161614 0)
(0.0516555 -0.000141698 0)
(0.05171 -0.000121165 0)
(0.0517571 -0.000100589 0)
(0.0517968 -8.04961e-05 0)
(0.0518288 -6.13484e-05 0)
(0.0518536 -4.35375e-05 0)
(0.0518714 -2.73757e-05 0)
(0.0518829 -1.30977e-05 0)
(0.0518886 -8.48119e-07 0)
(0.0518894 9.27354e-06 0)
(0.0518861 1.74232e-05 0)
(0.0518797 2.31782e-05 0)
(0.0518709 2.79971e-05 0)
(0.0518595 3.03905e-05 0)
(-0.000406376 0.00247399 0)
(-0.00172398 0.00380078 0)
(-0.00299503 0.0041467 0)
(-0.00405953 0.00389758 0)
(-0.00483603 0.00362786 0)
(-0.00543522 0.00332928 0)
(-0.00585342 0.00306968 0)
(-0.00614963 0.00282802 0)
(-0.00633224 0.0026095 0)
(-0.00642649 0.00240798 0)
(-0.00643969 0.00222232 0)
(-0.00638246 0.00205005 0)
(-0.00625906 0.00188939 0)
(-0.00607373 0.00173849 0)
(-0.00582817 0.00159556 0)
(-0.00552342 0.00145872 0)
(-0.00515928 0.00132601 0)
(-0.00473491 0.00119529 0)
(-0.00424878 0.00106427 0)
(-0.00369885 0.000930494 0)
(-0.00308267 0.000791323 0)
(-0.00239751 0.000644015 0)
(-0.00164043 0.000485768 0)
(-0.000808385 0.000313797 0)
(0.000101667 0.000125427 0)
(0.00109268 -8.18106e-05 0)
(0.00216745 -0.000310086 0)
(0.00332852 -0.000561182 0)
(0.00457813 -0.000836416 0)
(0.00591816 -0.00113659 0)
(0.00735009 -0.00146193 0)
(0.00887493 -0.00181209 0)
(0.0104932 -0.00218616 0)
(0.012205 -0.00258263 0)
(0.0140098 -0.00299948 0)
(0.0159064 -0.00343418 0)
(0.0178934 -0.00388376 0)
(0.0199683 -0.00434486 0)
(0.0221283 -0.00481374 0)
(0.0243698 -0.0052864 0)
(0.0266885 -0.00575855 0)
(0.0290793 -0.00622573 0)
(0.0315366 -0.00668329 0)
(0.0340538 -0.00712648 0)
(0.0366234 -0.00755046 0)
(0.0392373 -0.0079504 0)
(0.0418864 -0.00832147 0)
(0.044561 -0.00865894 0)
(0.0472505 -0.00895821 0)
(0.0499436 -0.00921491 0)
(0.0526284 -0.00942496 0)
(0.0552925 -0.00958462 0)
(0.0579231 -0.00969062 0)
(0.0605071 -0.0097402 0)
(0.0630316 -0.00973127 0)
(0.0654836 -0.00966244 0)
(0.0678505 -0.00953314 0)
(0.0701207 -0.00934371 0)
(0.0722832 -0.0090954 0)
(0.0743282 -0.00879042 0)
(0.0762474 -0.00843189 0)
(0.078034 -0.00802385 0)
(0.0796829 -0.00757108 0)
(0.0811904 -0.00707902 0)
(0.082555 -0.00655361 0)
(0.0837764 -0.00600109 0)
(0.0848559 -0.00542785 0)
(0.0857961 -0.00484019 0)
(0.0866007 -0.00424424 0)
(0.0872742 -0.00364575 0)
(0.0878215 -0.00305 0)
(0.0882481 -0.00246172 0)
(0.0885595 -0.00188506 0)
(0.0887612 -0.00132355 0)
(0.0888585 -0.000780153 0)
(0.0888562 -0.000257252 0)
(0.0887591 0.000243248 0)
(0.0885712 0.000719872 0)
(0.0882962 0.00117149 0)
(0.0879372 0.00159725 0)
(0.0874969 0.00199649 0)
(0.0869777 0.00236865 0)
(0.0863814 0.00271326 0)
(0.0857097 0.00302983 0)
(0.084964 0.00331784 0)
(0.0841455 0.00357673 0)
(0.0832554 0.00380584 0)
(0.082295 0.00400449 0)
(0.0812658 0.00417196 0)
(0.0801697 0.00430754 0)
(0.0790088 0.00441058 0)
(0.077786 0.00448056 0)
(0.0765049 0.00451719 0)
(0.0751701 0.0045204 0)
(0.0737868 0.00449049 0)
(0.0723616 0.00442814 0)
(0.0709022 0.00433448 0)
(0.0694173 0.00421111 0)
(0.0679166 0.00406014 0)
(0.0664109 0.00388414 0)
(0.0649116 0.00368615 0)
(0.0634307 0.00346953 0)
(0.0619803 0.00323792 0)
(0.0605723 0.00299505 0)
(0.0592179 0.00274463 0)
(0.0579277 0.00249021 0)
(0.0567108 0.00223499 0)
(0.055575 0.00198179 0)
(0.0545266 0.00173288 0)
(0.0535702 0.00149005 0)
(0.0527089 0.0012545 0)
(0.0519443 0.00102695 0)
(0.0512766 0.000807687 0)
(0.0507051 0.00059662 0)
(0.0502278 0.000393397 0)
(0.0498423 0.000197483 0)
(0.0495454 8.25317e-06 0)
(0.0493337 -0.000174934 0)
(0.0492032 -0.000352667 0)
(0.0491501 -0.000525421 0)
(0.0491701 -0.000693524 0)
(0.0492591 -0.000857116 0)
(0.0494129 -0.00101614 0)
(0.0496273 -0.00117031 0)
(0.0498981 -0.00131916 0)
(0.0502211 -0.00146201 0)
(0.0505919 -0.00159798 0)
(0.0510064 -0.00172605 0)
(0.0514601 -0.00184507 0)
(0.0519486 -0.00195378 0)
(0.0524674 -0.00205087 0)
(0.0530119 -0.00213501 0)
(0.0535773 -0.00220488 0)
(0.054159 -0.00225922 0)
(0.0547519 -0.00229689 0)
(0.0553512 -0.00231689 0)
(0.0559518 -0.00231841 0)
(0.0565489 -0.00230088 0)
(0.0571373 -0.00226399 0)
(0.0577124 -0.00220777 0)
(0.0582693 -0.00213255 0)
(0.0588034 -0.00203905 0)
(0.0593105 -0.00192834 0)
(0.0597866 -0.0018019 0)
(0.060228 -0.00166153 0)
(0.0606315 -0.00150942 0)
(0.0609943 -0.00134804 0)
(0.0613144 -0.00118011 0)
(0.0615899 -0.00100855 0)
(0.06182 -0.000836407 0)
(0.0620043 -0.000666738 0)
(0.0621431 -0.000502553 0)
(0.0622372 -0.000346713 0)
(0.0622885 -0.00020184 0)
(0.0622992 -7.02386e-05 0)
(0.0622721 4.61751e-05 0)
(0.0622108 0.00014593 0)
(0.0621193 0.000228036 0)
(0.0620019 0.000292004 0)
(0.0618632 0.000337844 0)
(0.0617083 0.000366038 0)
(0.0615419 0.000377506 0)
(0.0613691 0.000373546 0)
(0.0611944 0.00035577 0)
(0.0610223 0.00032603 0)
(0.0608568 0.000286344 0)
(0.0607012 0.000238817 0)
(0.0605586 0.000185578 0)
(0.0604312 0.000128715 0)
(0.0603209 7.02149e-05 0)
(0.0602286 1.19266e-05 0)
(0.060155 -4.44813e-05 0)
(0.0601001 -9.75463e-05 0)
(0.0600634 -0.000146031 0)
(0.060044 -0.000188937 0)
(0.0600408 -0.000225506 0)
(0.0600521 -0.00025522 0)
(0.0600763 -0.000277797 0)
(0.0601115 -0.000293173 0)
(0.0601557 -0.000301488 0)
(0.0602068 -0.000303067 0)
(0.0602631 -0.000298393 0)
(0.0603225 -0.000288082 0)
(0.0603832 -0.000272854 0)
(0.0604437 -0.000253509 0)
(0.0605024 -0.00023089 0)
(0.0605582 -0.000205862 0)
(0.0606099 -0.000179283 0)
(0.0606567 -0.000151979 0)
(0.060698 -0.000124725 0)
(0.0607335 -9.82204e-05 0)
(0.0607628 -7.30825e-05 0)
(0.0607861 -4.98284e-05 0)
(0.0608036 -2.88752e-05 0)
(0.0608156 -1.05223e-05 0)
(0.0608225 5.01474e-06 0)
(0.0608251 1.76818e-05 0)
(0.0608239 2.72722e-05 0)
(0.0608198 3.47178e-05 0)
(0.0608132 3.76883e-05 0)
(-0.000695787 0.00309793 0)
(-0.0020972 0.0047265 0)
(-0.00255805 0.00495559 0)
(-0.002791 0.0045087 0)
(-0.00261642 0.0040369 0)
(-0.0023539 0.00357052 0)
(-0.00194074 0.0031664 0)
(-0.0014607 0.00280777 0)
(-0.000903946 0.00249016 0)
(-0.000294828 0.00220492 0)
(0.000366166 0.00194534 0)
(0.00107137 0.00170641 0)
(0.00182007 0.00148351 0)
(0.00261044 0.00127316 0)
(0.00344306 0.00107206 0)
(0.00431868 0.000877348 0)
(0.00523904 0.000686246 0)
(0.00620618 0.000496068 0)
(0.00722259 0.000304097 0)
(0.00829097 0.000107596 0)
(0.00941416 -9.6221e-05 0)
(0.0105951 -0.000310155 0)
(0.0118366 -0.000536985 0)
(0.0131413 -0.000779404 0)
(0.014512 -0.00103995 0)
(0.0159508 -0.00132092 0)
(0.0174597 -0.00162429 0)
(0.0190405 -0.00195165 0)
(0.0206944 -0.00230412 0)
(0.0224224 -0.00268228 0)
(0.0242249 -0.00308618 0)
(0.0261021 -0.00351526 0)
(0.0280534 -0.00396837 0)
(0.0300781 -0.00444378 0)
(0.0321748 -0.00493919 0)
(0.0343415 -0.00545174 0)
(0.0365758 -0.00597811 0)
(0.0388745 -0.00651448 0)
(0.041234 -0.00705663 0)
(0.0436497 -0.0076 0)
(0.0461166 -0.00813967 0)
(0.0486287 -0.00867045 0)
(0.0511792 -0.00918692 0)
(0.0537607 -0.0096835 0)
(0.0563647 -0.0101544 0)
(0.058982 -0.0105939 0)
(0.0616024 -0.0109962 0)
(0.0642151 -0.0113556 0)
(0.0668083 -0.0116664 0)
(0.0693698 -0.0119235 0)
(0.0718868 -0.0121218 0)
(0.074346 -0.0122571 0)
(0.0767342 -0.0123254 0)
(0.0790382 -0.0123236 0)
(0.0812452 -0.0122495 0)
(0.0833431 -0.0121019 0)
(0.0853209 -0.0118807 0)
(0.087169 -0.011587 0)
(0.0888792 -0.0112231 0)
(0.0904457 -0.0107926 0)
(0.0918645 -0.0103004 0)
(0.093134 -0.00975237 0)
(0.0942549 -0.00915525 0)
(0.0952297 -0.00851654 0)
(0.0960633 -0.00784416 0)
(0.0967618 -0.00714619 0)
(0.0973328 -0.00643067 0)
(0.097785 -0.00570529 0)
(0.0981273 -0.00497725 0)
(0.098369 -0.0042531 0)
(0.0985193 -0.00353858 0)
(0.0985869 -0.00283863 0)
(0.0985799 -0.00215734 0)
(0.0985055 -0.00149797 0)
(0.0983704 -0.000863051 0)
(0.0981799 -0.000254419 0)
(0.0979388 0.000326661 0)
(0.0976505 0.000879394 0)
(0.097318 0.00140335 0)
(0.0969433 0.00189835 0)
(0.0965276 0.00236439 0)
(0.0960715 0.00280153 0)
(0.0955751 0.00320983 0)
(0.0950381 0.00358929 0)
(0.0944597 0.0039398 0)
(0.0938389 0.0042611 0)
(0.0931744 0.00455278 0)
(0.0924649 0.00481426 0)
(0.091709 0.00504483 0)
(0.0909055 0.00524363 0)
(0.0900532 0.00540976 0)
(0.0891515 0.00554228 0)
(0.0881999 0.0056403 0)
(0.0871987 0.00570305 0)
(0.0861487 0.00572994 0)
(0.0850517 0.00572065 0)
(0.08391 0.0056752 0)
(0.0827274 0.00559403 0)
(0.0815084 0.005478 0)
(0.0802588 0.0053285 0)
(0.0789852 0.0051474 0)
(0.0776956 0.00493706 0)
(0.0763985 0.00470028 0)