/*--------------------------------*- C++ -*----------------------------------*\
| =========                 |                                                 |
| \\      /  F ield         | OpenFOAM: The Open Source CFD Toolbox           |
|  \\    /   O peration     | Version:  4.1                                   |
|   \\  /    A nd           | Web:      www.OpenFOAM.org                      |
|    \\/     M anipulation  |                                                 |
\*---------------------------------------------------------------------------*/
FoamFile
{
    version     2.0;
    format      ascii;
    class       volScalarField;
    location    "450";
    object      p;
}
// * * * * * * * * * * * * * * * * * * * * * * * * * * * * * * * * * * * * * //

dimensions      [1 -1 -2 0 0 0 0];

internalField   nonuniform List<scalar> 
1275
(
0.713527
0.71353
0.713532
0.713533
0.713533
0.713533
0.713532
0.713529
0.713526
0.713522
0.713518
0.713513
0.713509
0.713505
0.713501
0.713498
0.713496
0.713495
0.713494
0.713492
0.713491
0.713488
0.713484
0.713479
0.713472
0.713463
0.713453
0.713442
0.713431
0.713421
0.713413
0.713406
0.713402
0.7134
0.713402
0.713407
0.713416
0.713429
0.713446
0.71347
0.713499
0.713536
0.713581
0.713636
0.713699
0.713772
0.713854
0.713943
0.714037
0.714133
0.714228
0.714318
0.714398
0.714466
0.714519
0.714556
0.714575
0.714578
0.714567
0.714543
0.71451
0.71447
0.714427
0.714381
0.714337
0.714296
0.714259
0.714228
0.714203
0.714185
0.714175
0.714172
0.714177
0.714187
0.714201
0.714217
0.714235
0.714254
0.714276
0.714298
0.714319
0.714339
0.714357
0.714374
0.71439
0.714404
0.714413
0.714415
0.714409
0.714392
0.714366
0.714329
0.714281
0.714223
0.714157
0.714084
0.714006
0.713926
0.713847
0.713773
0.713706
0.713652
0.713613
0.713593
0.713593
0.713615
0.713658
0.71372
0.713798
0.713886
0.713979
0.714071
0.714157
0.714234
0.714296
0.714346
0.714378
0.7144
0.714404
0.714405
0.714389
0.714382
0.714352
0.71435
0.714312
0.714325
0.714282
0.714315
0.713528
0.713531
0.713533
0.713534
0.713534
0.713534
0.713532
0.71353
0.713527
0.713523
0.713518
0.713513
0.713508
0.713504
0.7135
0.713497
0.713495
0.713494
0.713494
0.713493
0.713493
0.713492
0.713489
0.713485
0.713478
0.71347
0.713459
0.713448
0.713436
0.713425
0.713415
0.713407
0.713402
0.7134
0.713401
0.713405
0.713412
0.713424
0.71344
0.713462
0.71349
0.713525
0.713569
0.713621
0.713683
0.713755
0.713836
0.713925
0.71402
0.714117
0.714213
0.714305
0.714388
0.714458
0.714513
0.714551
0.714572
0.714576
0.714565
0.714542
0.714509
0.714468
0.714424
0.714379
0.714334
0.714292
0.714254
0.714223
0.714198
0.714181
0.714171
0.714169
0.714174
0.714186
0.714204
0.714223
0.714242
0.714263
0.714285
0.714305
0.71432
0.714335
0.714353
0.714374
0.714393
0.714408
0.714418
0.714422
0.714417
0.714403
0.714378
0.714342
0.714294
0.714237
0.714169
0.714094
0.714014
0.71393
0.713847
0.713769
0.713698
0.71364
0.713598
0.713574
0.713573
0.713594
0.713637
0.713701
0.713781
0.713873
0.71397
0.714066
0.714156
0.714236
0.714301
0.714351
0.714384
0.714405
0.714408
0.714408
0.71439
0.714381
0.714349
0.714345
0.714307
0.714318
0.714277
0.71431
0.713529
0.713532
0.713534
0.713535
0.713536
0.713536
0.713534
0.713532
0.713528
0.713524
0.713519
0.713513
0.713508
0.713503
0.713499
0.713495
0.713493
0.713492
0.713492
0.713493
0.713493
0.713492
0.71349
0.713486
0.713479
0.71347
0.713458
0.713446
0.713433
0.713421
0.713411
0.713403
0.713398
0.713395
0.713396
0.7134
0.713407
0.713418
0.713433
0.713453
0.713479
0.713512
0.713553
0.713603
0.713663
0.713733
0.713813
0.713901
0.713995
0.714093
0.714191
0.714284
0.714369
0.714441
0.714498
0.714538
0.71456
0.714565
0.714554
0.71453
0.714496
0.714456
0.714411
0.714365
0.71432
0.714278
0.714241
0.71421
0.714186
0.71417
0.714161
0.71416
0.714166
0.714178
0.714196
0.714215
0.714234
0.714256
0.714282
0.714307
0.714329
0.71435
0.714368
0.714382
0.714397
0.714413
0.714426
0.714432
0.714428
0.714415
0.71439
0.714353
0.714304
0.714244
0.714173
0.714094
0.714009
0.71392
0.713832
0.713748
0.713673
0.713611
0.713565
0.713539
0.713536
0.713558
0.713604
0.713672
0.713758
0.713856
0.713961
0.714064
0.71416
0.714244
0.714313
0.714365
0.714398
0.714417
0.714419
0.714416
0.714394
0.714382
0.714348
0.714341
0.714302
0.714311
0.714273
0.714304
0.713532
0.713535
0.713538
0.713539
0.713539
0.713538
0.713537
0.713534
0.71353
0.713525
0.713519
0.713513
0.713507
0.713501
0.713496
0.713493
0.71349
0.71349
0.713491
0.713492
0.713494
0.713495
0.713494
0.71349
0.713483
0.713473
0.713461
0.713447
0.713433
0.71342
0.713409
0.7134
0.713395
0.713392
0.713393
0.713396
0.713403
0.713412
0.713426
0.713444
0.713468
0.713498
0.713537
0.713584
0.713641
0.713708
0.713785
0.713871
0.713963
0.71406
0.714157
0.71425
0.714334
0.714407
0.714464
0.714503
0.714525
0.714529
0.714518
0.714495
0.714461
0.714421
0.714378
0.714334
0.714291
0.714251
0.714216
0.714188
0.714166
0.714151
0.714144
0.714144
0.714152
0.714165
0.714185
0.714207
0.71423
0.714255
0.714281
0.714305
0.714326
0.714346
0.714369
0.714394
0.714415
0.714429
0.714439
0.714446
0.714444
0.714431
0.714406
0.714368
0.714316
0.714252
0.714177
0.714092
0.714001
0.713906
0.713811
0.713721
0.71364
0.713572
0.713522
0.713493
0.713489
0.713511
0.71356
0.713633
0.713726
0.713833
0.713947
0.714059
0.714163
0.714253
0.714325
0.714378
0.714411
0.714429
0.714428
0.714421
0.714397
0.714381
0.714345
0.714334
0.714296
0.714302
0.714269
0.714296
0.713533
0.713536
0.713539
0.713542
0.713543
0.713543
0.713541
0.713538
0.713533
0.713527
0.71352
0.713513
0.713505
0.713498
0.713492
0.713487
0.713485
0.713484
0.713486
0.713489
0.713492
0.713494
0.713494
0.713491
0.713485
0.713475
0.713462
0.713448
0.713434
0.713421
0.71341
0.713402
0.713397
0.713394
0.713395
0.713398
0.713404
0.713413
0.713426
0.713443
0.713465
0.713493
0.713529
0.713573
0.713627
0.713691
0.713764
0.713846
0.713935
0.714027
0.71412
0.714208
0.714288
0.714356
0.714408
0.714443
0.714461
0.714463
0.71445
0.714426
0.714394
0.714357
0.714318
0.714279
0.714242
0.714209
0.71418
0.714156
0.714138
0.714127
0.714122
0.714123
0.714131
0.714144
0.714162
0.714183
0.714206
0.714232
0.71426
0.714288
0.714316
0.714343
0.714369
0.714391
0.714413
0.714434
0.714451
0.714457
0.714454
0.714441
0.714415
0.714375
0.71432
0.714252
0.714173
0.714083
0.713986
0.713885
0.713785
0.713689
0.713603
0.71353
0.713475
0.713443
0.713437
0.713459
0.713511
0.713589
0.713691
0.713807
0.71393
0.714052
0.714164
0.714259
0.714335
0.71439
0.714423
0.714439
0.714435
0.714426
0.714399
0.71438
0.714343
0.714329
0.714292
0.714294
0.714267
0.714289
0.713541
0.713545
0.713547
0.713547
0.713547
0.713546
0.713545
0.713542
0.713537
0.71353
0.713521
0.713512
0.713503
0.713494
0.713486
0.713481
0.713477
0.713477
0.713479
0.713483
0.713488
0.713492
0.713494
0.713493
0.713489
0.713481
0.71347
0.713457
0.713444
0.713431
0.71342
0.713412
0.713406
0.713403
0.713403
0.713406
0.713411
0.71342
0.713431
0.713447
0.713468
0.713494
0.713528
0.71357
0.71362
0.71368
0.713749
0.713826
0.713908
0.713993
0.714077
0.714156
0.714225
0.714281
0.714323
0.714347
0.714357
0.714352
0.714336
0.714312
0.714284
0.714254
0.714224
0.714195
0.71417
0.714147
0.714129
0.714114
0.714103
0.714097
0.714096
0.714099
0.714106
0.714118
0.714135
0.714154
0.714176
0.714201
0.714228
0.714256
0.714284
0.714313
0.714343
0.714374
0.714402
0.714425
0.714444
0.714456
0.714458
0.714445
0.714418
0.714377
0.714321
0.71425
0.714167
0.714073
0.713971
0.713866
0.713761
0.71366
0.713568
0.71349
0.713431
0.713394
0.713385
0.713407
0.71346
0.713543
0.713651
0.713776
0.713909
0.714039
0.714157
0.714257
0.714336
0.714391
0.714423
0.714438
0.714433
0.714422
0.714394
0.714374
0.714338
0.714322
0.714289
0.714288
0.714267
0.714284
0.713545
0.713549
0.713553
0.713556
0.713557
0.713555
0.713552
0.713547
0.71354
0.713532
0.713522
0.713512
0.7135
0.713489
0.71348
0.713472
0.713467
0.713466
0.713468
0.713473
0.71348
0.713486
0.713491
0.713494
0.713492
0.713487
0.713479
0.713468
0.713457
0.713445
0.713435
0.713427
0.713422
0.713419
0.713419
0.713421
0.713426
0.713434
0.713446
0.713461
0.713481
0.713506
0.713539
0.713578
0.713626
0.713682
0.713745
0.713815
0.713888
0.713962
0.714032
0.714095
0.714147
0.714185
0.714208
0.714216
0.714212
0.714197
0.714176
0.714152
0.71413
0.714109
0.714093
0.714081
0.714073
0.714068
0.714065
0.714064
0.714065
0.714066
0.714068
0.714073
0.714079
0.714087
0.714099
0.714113
0.71413
0.714151
0.714175
0.714202
0.714232
0.714264
0.714297
0.71433
0.714363
0.714393
0.714418
0.714434
0.71444
0.714433
0.714409
0.714368
0.714312
0.714241
0.714157
0.714061
0.713958
0.71385
0.713742
0.713638
0.713543
0.713461
0.713397
0.713357
0.713345
0.713365
0.713419
0.713505
0.713618
0.713749
0.713888
0.714022
0.714144
0.714246
0.714324
0.714379
0.71441
0.714424
0.714419
0.714407
0.714383
0.714363
0.714331
0.714316
0.714288
0.714285
0.714269
0.714281
0.713555
0.713562
0.713567
0.713569
0.713569
0.713567
0.713564
0.713558
0.71355
0.713539
0.713527
0.713513
0.7135
0.713487
0.713475
0.713465
0.713459
0.713457
0.713458
0.713463
0.71347
0.713478
0.713485
0.713491
0.713493
0.713492
0.713488
0.713481
0.713473
0.713464
0.713456
0.713449
0.713443
0.71344
0.71344
0.713442
0.713447
0.713455
0.713466
0.713481
0.713501
0.713527
0.713558
0.713596
0.713642
0.713693
0.713751
0.713812
0.713873
0.713932
0.713983
0.714025
0.714052
0.714065
0.714063
0.714049
0.714025
0.713998
0.713971
0.713949
0.713935
0.713929
0.713932
0.713942
0.713958
0.713976
0.713994
0.71401
0.714024
0.714035
0.714042
0.714047
0.714051
0.714054
0.714059
0.714066
0.714076
0.71409
0.714109
0.714132
0.71416
0.714192
0.714228
0.714266
0.714304
0.71434
0.714372
0.714396
0.714409
0.714407
0.71439
0.714355
0.714301
0.714232
0.714149
0.714055
0.713952
0.713845
0.713736
0.713631
0.713534
0.71345
0.713383
0.71334
0.713326
0.713345
0.713398
0.713486
0.7136
0.713733
0.713872
0.714005
0.714125
0.714223
0.714297
0.714349
0.714377
0.71439
0.714387
0.714378
0.714358
0.714343
0.714319
0.714307
0.714287
0.714284
0.714274
0.714281
0.713567
0.713581
0.713591
0.713596
0.713598
0.713595
0.71359
0.713581
0.71357
0.713557
0.713543
0.713527
0.713511
0.713495
0.713481
0.713468
0.71346
0.713455
0.713456
0.71346
0.713467
0.713476
0.713484
0.713491
0.713496
0.713498
0.713496
0.713493
0.713488
0.713482
0.713476
0.713471
0.713467
0.713466
0.713467
0.71347
0.713476
0.713485
0.713497
0.713513
0.713534
0.713561
0.713592
0.71363
0.713674
0.713721
0.713772
0.713822
0.71387
0.71391
0.713938
0.713952
0.713951
0.713933
0.713902
0.713862
0.713818
0.713776
0.713744
0.713724
0.713719
0.713731
0.713756
0.713792
0.713834
0.713878
0.71392
0.713957
0.713986
0.714007
0.714019
0.714024
0.714023
0.71402
0.714015
0.714012
0.714012
0.714018
0.714029
0.714048
0.714074
0.714106
0.714143
0.714184
0.714227
0.71427
0.71431
0.714342
0.714364
0.714372
0.714364
0.714336
0.71429
0.714227
0.714148
0.714057
0.713958
0.713854
0.713749
0.713647
0.713551
0.713467
0.713401
0.713357
0.713342
0.713359
0.713412
0.713497
0.713609
0.713736
0.713868
0.713993
0.714102
0.714191
0.714256
0.714301
0.714327
0.714339
0.714339
0.714335
0.714324
0.714316
0.714303
0.714296
0.714287
0.714285
0.714281
0.714283
0.713589
0.71361
0.713629
0.713639
0.713645
0.713644
0.71364
0.71363
0.713618
0.713602
0.713584
0.713565
0.713546
0.713527
0.71351
0.713496
0.713485
0.713478
0.713475
0.713477
0.713482
0.713488
0.713496
0.713503
0.713509
0.713513
0.713515
0.713514
0.713511
0.713508
0.713504
0.713501
0.7135
0.7135
0.713502
0.713506
0.713514
0.713525
0.71354
0.713559
0.713582
0.713611
0.713644
0.713682
0.713724
0.713768
0.713811
0.713849
0.713879
0.713897
0.7139
0.713885
0.713851
0.713802
0.713742
0.713676
0.713613
0.713559
0.713522
0.713506
0.713512
0.71354
0.713588
0.71365
0.713719
0.713789
0.713854
0.713909
0.713953
0.713983
0.713999
0.714003
0.713998
0.713986
0.713971
0.713957
0.713947
0.713943
0.713947
0.713961
0.713983
0.714015
0.714054
0.714098
0.714147
0.714197
0.714244
0.714286
0.714319
0.714339
0.714343
0.714328
0.714292
0.714237
0.714165
0.71408
0.713986
0.713887
0.713787
0.713689
0.713598
0.713518
0.713454
0.713412
0.713398
0.713416
0.713466
0.713546
0.713649
0.713764
0.71388
0.713987
0.714078
0.71415
0.714203
0.714238
0.71426
0.714272
0.714277
0.71428
0.71428
0.714282
0.714282
)
;

boundaryField
{
    inlet
    {
        type            zeroGradient;
    }
    outlet
    {
        type            fixedValue;
        value           uniform 0.714286;
    }
    walls
    {
        type            zeroGradient;
    }
    symwall
    {
        type            empty;
    }
    procBoundary1to0
    {
        type            processor;
        value           nonuniform List<scalar> 10(0.713524 0.713525 0.713527 0.713527 0.713531 0.713536 0.713538 0.713542 0.713547 0.713555);
    }
    procBoundary1to2
    {
        type            processor;
        value           uniform 0.713616;
    }
    procBoundary1to3
    {
        type            processor;
        value           nonuniform List<scalar> 
128
(
0.714285
0.714286
0.714287
0.714289
0.714285
0.713649
0.713681
0.7137
0.713714
0.713719
0.713718
0.71371
0.713697
0.71368
0.713661
0.713639
0.713617
0.713595
0.713574
0.713556
0.713541
0.713531
0.713525
0.713523
0.713525
0.713529
0.713534
0.713539
0.713544
0.713547
0.713549
0.71355
0.713549
0.713547
0.713546
0.713546
0.713547
0.71355
0.713555
0.713563
0.713574
0.713588
0.713606
0.713629
0.713656
0.713687
0.713723
0.713761
0.7138
0.713838
0.713872
0.713896
0.713909
0.713904
0.713881
0.713838
0.713777
0.713701
0.713616
0.71353
0.713451
0.713388
0.713347
0.713333
0.713347
0.713388
0.713453
0.713534
0.713624
0.713715
0.7138
0.713872
0.713928
0.713964
0.713983
0.713984
0.713972
0.713952
0.713927
0.713903
0.713883
0.713871
0.713869
0.713878
0.713899
0.713931
0.713972
0.714021
0.714075
0.714131
0.714187
0.714239
0.714283
0.714316
0.714334
0.714334
0.714313
0.714272
0.714211
0.714135
0.714049
0.713956
0.713862
0.713769
0.713684
0.71361
0.713552
0.713515
0.713504
0.713521
0.713567
0.713638
0.713725
0.713818
0.71391
0.713991
0.714057
0.714108
0.714145
0.71417
0.714187
0.7142
0.714211
0.714223
0.714235
0.714248
0.714285
0.714262
)
;
    }
}


// ************************************************************************* //
