/*--------------------------------*- C++ -*----------------------------------*\
| =========                 |                                                 |
| \\      /  F ield         | OpenFOAM: The Open Source CFD Toolbox           |
|  \\    /   O peration     | Version:  4.1                                   |
|   \\  /    A nd           | Web:      www.OpenFOAM.org                      |
|    \\/     M anipulation  |                                                 |
\*---------------------------------------------------------------------------*/
FoamFile
{
    version     2.0;
    format      ascii;
    class       volVectorField;
    location    "810";
    object      U;
}
// * * * * * * * * * * * * * * * * * * * * * * * * * * * * * * * * * * * * * //

dimensions      [0 1 -1 0 0 0 0];

internalField   nonuniform List<vector> 
3264
(
(-2.66406e-06 -4.77709e-07 0)
(-0.000133196 3.05675e-05 0)
(-0.000389823 4.86686e-05 0)
(-0.000677081 5.10065e-05 0)
(-0.000978998 5.27296e-05 0)
(-0.00128494 5.21311e-05 0)
(-0.00158955 5.34246e-05 0)
(-0.0018942 5.40579e-05 0)
(-0.00219425 5.51476e-05 0)
(-0.00249041 5.57545e-05 0)
(-0.00278008 5.62879e-05 0)
(-0.00306342 5.65024e-05 0)
(-0.00333934 5.65594e-05 0)
(-0.00360788 5.64196e-05 0)
(-0.00386867 5.61549e-05 0)
(-0.00412177 5.57761e-05 0)
(-0.00436713 5.53199e-05 0)
(-0.00460482 5.48032e-05 0)
(-0.0048349 5.42463e-05 0)
(-0.00505748 5.36618e-05 0)
(-0.00527263 5.30609e-05 0)
(-0.00548044 5.24511e-05 0)
(-0.00568096 5.18377e-05 0)
(-0.00587424 5.12233e-05 0)
(-0.00606028 5.06086e-05 0)
(-0.00623908 4.99921e-05 0)
(-0.00641055 4.93699e-05 0)
(-0.00657461 4.87361e-05 0)
(-0.0067311 4.80822e-05 0)
(-0.0068798 4.73977e-05 0)
(-0.00702045 4.66692e-05 0)
(-0.00715273 4.58811e-05 0)
(-0.00727623 4.50151e-05 0)
(-0.0073905 4.40506e-05 0)
(-0.007495 4.29648e-05 0)
(-0.00758912 4.1733e-05 0)
(-0.0076722 4.03289e-05 0)
(-0.00774351 3.87253e-05 0)
(-0.00780224 3.68946e-05 0)
(-0.00784755 3.48097e-05 0)
(-0.00787856 3.24446e-05 0)
(-0.00789433 2.97755e-05 0)
(-0.00789394 2.67819e-05 0)
(-0.00787645 2.34472e-05 0)
(-0.00784091 1.97597e-05 0)
(-0.00778645 1.57138e-05 0)
(-0.00771222 1.13102e-05 0)
(-0.00761743 6.55703e-06 0)
(-0.00750142 1.46975e-06 0)
(-0.00736358 -3.92825e-06 0)
(-0.00720348 -9.60585e-06 0)
(-0.0070208 -1.55244e-05 0)
(-0.00681539 -2.16381e-05 0)
(-0.00658725 -2.78947e-05 0)
(-0.00633658 -3.42364e-05 0)
(-0.00606376 -4.06008e-05 0)
(-0.00576934 -4.69221e-05 0)
(-0.00545408 -5.31323e-05 0)
(-0.00511893 -5.91629e-05 0)
(-0.00476501 -6.49456e-05 0)
(-0.00439362 -7.04144e-05 0)
(-0.00400623 -7.55066e-05 0)
(-0.00360444 -8.01642e-05 0)
(-0.00319 -8.43351e-05 0)
(-0.00276478 -8.79742e-05 0)
(-0.00233071 -9.10441e-05 0)
(-0.00188983 -9.35163e-05 0)
(-0.00144419 -9.53712e-05 0)
(-0.00099589 -9.65989e-05 0)
(-0.00054701 -9.71989e-05 0)
(-9.96117e-05 -9.71803e-05 0)
(0.000344297 -9.65614e-05 0)
(0.000782781 -9.53688e-05 0)
(0.001214 -9.36372e-05 0)
(0.00163623 -9.14081e-05 0)
(0.00204788 -8.8729e-05 0)
(0.0024475 -8.5652e-05 0)
(0.0028338 -8.22327e-05 0)
(0.00320567 -7.85287e-05 0)
(0.00356215 -7.45988e-05 0)
(0.00390248 -7.05014e-05 0)
(0.00422606 -6.62932e-05 0)
(0.00453248 -6.20287e-05 0)
(0.00482148 -5.77587e-05 0)
(0.00509298 -5.35302e-05 0)
(0.00534704 -4.93849e-05 0)
(0.00558386 -4.53598e-05 0)
(0.00580377 -4.14863e-05 0)
(0.00600721 -3.77902e-05 0)
(0.00619472 -3.4292e-05 0)
(0.00636692 -3.10069e-05 0)
(0.0065245 -2.79453e-05 0)
(0.00666821 -2.51129e-05 0)
(0.00679883 -2.25113e-05 0)
(0.00691717 -2.01388e-05 0)
(0.00702406 -1.79904e-05 0)
(0.00712032 -1.60586e-05 0)
(0.00720678 -1.4334e-05 0)
(0.00728425 -1.28055e-05 0)
(0.00735351 -1.1461e-05 0)
(0.00741534 -1.02875e-05 0)
(0.00747044 -9.27184e-06 0)
(0.00751953 -8.40062e-06 0)
(0.00756324 -7.66062e-06 0)
(0.00760219 -7.03894e-06 0)
(0.00763694 -6.52319e-06 0)
(0.00766804 -6.10161e-06 0)
(0.00769595 -5.76308e-06 0)
(0.00772113 -5.49724e-06 0)
(0.00774398 -5.29451e-06 0)
(0.00776485 -5.14606e-06 0)
(0.00778409 -5.04382e-06 0)
(0.00780198 -4.98047e-06 0)
(0.00781877 -4.94942e-06 0)
(0.00783471 -4.94472e-06 0)
(0.00784998 -4.9611e-06 0)
(0.00786476 -4.99386e-06 0)
(0.00787921 -5.03887e-06 0)
(0.00789343 -5.0925e-06 0)
(0.00790755 -5.1516e-06 0)
(0.00792164 -5.21345e-06 0)
(0.00793577 -5.27572e-06 0)
(0.00795001 -5.33643e-06 0)
(0.00796439 -5.39393e-06 0)
(0.00797894 -5.44686e-06 0)
(0.00799368 -5.4941e-06 0)
(0.00800863 -5.53479e-06 0)
(0.00802379 -5.56824e-06 0)
(0.00803915 -5.59397e-06 0)
(0.0080547 -5.61166e-06 0)
(0.00807043 -5.6211e-06 0)
(0.00808632 -5.62223e-06 0)
(0.00810236 -5.61509e-06 0)
(0.00811851 -5.59979e-06 0)
(0.00813475 -5.57655e-06 0)
(0.00815106 -5.54563e-06 0)
(0.0081674 -5.50734e-06 0)
(0.00818376 -5.46204e-06 0)
(0.00820009 -5.41013e-06 0)
(0.00821638 -5.35202e-06 0)
(0.0082326 -5.28815e-06 0)
(0.00824872 -5.21896e-06 0)
(0.00826471 -5.14491e-06 0)
(0.00828055 -5.06645e-06 0)
(0.00829623 -4.98403e-06 0)
(0.0083117 -4.89811e-06 0)
(0.00832697 -4.8091e-06 0)
(0.008342 -4.71743e-06 0)
(0.00835679 -4.62352e-06 0)
(0.00837131 -4.52775e-06 0)
(0.00838555 -4.43049e-06 0)
(0.0083995 -4.3321e-06 0)
(0.00841315 -4.23292e-06 0)
(0.00842649 -4.13326e-06 0)
(0.00843951 -4.03341e-06 0)
(0.00845221 -3.93365e-06 0)
(0.00846458 -3.83423e-06 0)
(0.00847661 -3.73539e-06 0)
(0.00848831 -3.63733e-06 0)
(0.00849968 -3.54026e-06 0)
(0.0085107 -3.44435e-06 0)
(0.0085214 -3.34974e-06 0)
(0.00853175 -3.25659e-06 0)
(0.00854178 -3.16501e-06 0)
(0.00855148 -3.0751e-06 0)
(0.00856086 -2.98695e-06 0)
(0.00856993 -2.90063e-06 0)
(0.00857868 -2.8162e-06 0)
(0.00858714 -2.7337e-06 0)
(0.00859529 -2.65315e-06 0)
(0.00860316 -2.57456e-06 0)
(0.00861075 -2.49793e-06 0)
(0.00861806 -2.42323e-06 0)
(0.00862512 -2.35044e-06 0)
(0.00863192 -2.27948e-06 0)
(0.00863847 -2.2103e-06 0)
(0.00864479 -2.14279e-06 0)
(0.00865088 -2.07684e-06 0)
(0.00865675 -2.01229e-06 0)
(0.00866241 -1.94896e-06 0)
(0.00866786 -1.88661e-06 0)
(0.00867312 -1.82494e-06 0)
(0.00867819 -1.76357e-06 0)
(0.00868308 -1.702e-06 0)
(0.00868778 -1.63957e-06 0)
(0.0086923 -1.57539e-06 0)
(0.00869663 -1.50823e-06 0)
(0.00870077 -1.4365e-06 0)
(0.00870471 -1.35766e-06 0)
(0.00870843 -1.26919e-06 0)
(0.00871189 -1.16412e-06 0)
(0.00871505 -1.04285e-06 0)
(0.00871786 -8.77165e-07 0)
(0.00872014 -7.01227e-07 0)
(0.00872203 -3.89279e-07 0)
(0.00872251 -1.24601e-07 0)
(0.00872344 4.5739e-07 0)
(0.00871933 1.14764e-06 0)
(0.0087204 1.44563e-06 0)
(0.00870597 5.36595e-06 0)
(-8.33601e-05 0.000136419 0)
(-0.000582926 0.000379263 0)
(-0.00131138 0.000518336 0)
(-0.00208602 0.000562426 0)
(-0.00286573 0.000583389 0)
(-0.00363364 0.000585093 0)
(-0.00437643 0.00058502 0)
(-0.00509694 0.000578305 0)
(-0.00578799 0.000569343 0)
(-0.00645176 0.000557122 0)
(-0.00708552 0.000543429 0)
(-0.00769069 0.000528446 0)
(-0.00826689 0.000512894 0)
(-0.00881523 0.000497001 0)
(-0.00933619 0.000481045 0)
(-0.00983069 0.000465149 0)
(-0.0102994 0.000449411 0)
(-0.0107431 0.000433874 0)
(-0.0111624 0.000418555 0)
(-0.0115578 0.000403448 0)
(-0.0119299 0.000388532 0)
(-0.012279 0.000373771 0)
(-0.0126053 0.000359118 0)
(-0.0129091 0.000344514 0)
(-0.0131904 0.000329893 0)
(-0.0134492 0.000315178 0)
(-0.0136853 0.000300285 0)
(-0.0138985 0.000285119 0)
(-0.0140885 0.000269581 0)
(-0.0142546 0.00025356 0)
(-0.0143964 0.000236942 0)
(-0.0145132 0.000219607 0)
(-0.0146042 0.000201432 0)
(-0.0146685 0.000182293 0)
(-0.0147051 0.000162065 0)
(-0.0147131 0.00014063 0)
(-0.0146912 0.000117876 0)
(-0.0146383 9.37008e-05 0)
(-0.0145533 6.80167e-05 0)
(-0.014435 4.0753e-05 0)
(-0.0142822 1.186e-05 0)
(-0.0140937 -1.86882e-05 0)
(-0.0138684 -5.08909e-05 0)
(-0.0136055 -8.47181e-05 0)
(-0.0133039 -0.000120109 0)
(-0.0129629 -0.000156969 0)
(-0.012582 -0.000195173 0)
(-0.0121606 -0.000234562 0)
(-0.0116986 -0.000274944 0)
(-0.0111959 -0.0003161 0)
(-0.0106528 -0.000357781 0)
(-0.0100697 -0.000399714 0)
(-0.00944733 -0.000441603 0)
(-0.00878666 -0.00048314 0)
(-0.00808892 -0.000523999 0)
(-0.00735559 -0.000563849 0)
(-0.00658842 -0.000602358 0)
(-0.00578941 -0.000639195 0)
(-0.00496078 -0.000674038 0)
(-0.00410499 -0.000706576 0)
(-0.00322469 -0.000736519 0)
(-0.00232272 -0.000763599 0)
(-0.0014021 -0.000787575 0)
(-0.000465957 -0.000808237 0)
(0.000482439 -0.000825411 0)
(0.00143975 -0.00083896 0)
(0.0024026 -0.000848787 0)
(0.00336755 -0.000854835 0)
(0.0043312 -0.000857092 0)
(0.00529019 -0.000855587 0)
(0.00624121 -0.000850392 0)
(0.00718106 -0.000841617 0)
(0.00810666 -0.000829413 0)
(0.0090151 -0.000813966 0)
(0.00990364 -0.000795494 0)
(0.0107697 -0.000774243 0)
(0.011611 -0.000750483 0)
(0.0124255 -0.000724505 0)
(0.0132112 -0.00069661 0)
(0.0139666 -0.000667112 0)
(0.0146905 -0.000636326 0)
(0.0153816 -0.000604568 0)
(0.0160393 -0.000572145 0)
(0.0166629 -0.000539357 0)
(0.0172523 -0.000506488 0)
(0.0178074 -0.000473804 0)
(0.0183282 -0.00044155 0)
(0.0188154 -0.000409949 0)
(0.0192693 -0.000379198 0)
(0.0196908 -0.000349471 0)
(0.0200809 -0.000320914 0)
(0.0204406 -0.000293646 0)
(0.020771 -0.000267762 0)
(0.0210735 -0.000243332 0)
(0.0213494 -0.000220405 0)
(0.0216 -0.000199006 0)
(0.021827 -0.000179141 0)
(0.0220318 -0.000160801 0)
(0.0222157 -0.000143959 0)
(0.0223804 -0.000128577 0)
(0.0225273 -0.000114604 0)
(0.0226578 -0.000101983 0)
(0.0227733 -9.06462e-05 0)
(0.0228752 -8.05243e-05 0)
(0.0229646 -7.15421e-05 0)
(0.023043 -6.3623e-05 0)
(0.0231114 -5.66894e-05 0)
(0.0231708 -5.06639e-05 0)
(0.0232224 -4.54704e-05 0)
(0.0232671 -4.10345e-05 0)
(0.0233058 -3.72846e-05 0)
(0.0233392 -3.41519e-05 0)
(0.0233682 -3.15713e-05 0)
(0.0233933 -2.9481e-05 0)
(0.0234153 -2.78233e-05 0)
(0.0234346 -2.65445e-05 0)
(0.0234518 -2.55945e-05 0)
(0.0234673 -2.49275e-05 0)
(0.0234814 -2.45012e-05 0)
(0.0234946 -2.42773e-05 0)
(0.0235071 -2.42208e-05 0)
(0.0235191 -2.43004e-05 0)
(0.0235309 -2.44878e-05 0)
(0.0235427 -2.47578e-05 0)
(0.0235545 -2.50882e-05 0)
(0.0235666 -2.54592e-05 0)
(0.0235791 -2.58537e-05 0)
(0.0235919 -2.62567e-05 0)
(0.0236051 -2.66555e-05 0)
(0.0236188 -2.70391e-05 0)
(0.0236331 -2.73984e-05 0)
(0.0236478 -2.77259e-05 0)
(0.023663 -2.80153e-05 0)
(0.0236787 -2.82619e-05 0)
(0.0236948 -2.8462e-05 0)
(0.0237113 -2.86129e-05 0)
(0.0237282 -2.8713e-05 0)
(0.0237454 -2.87611e-05 0)
(0.0237629 -2.87573e-05 0)
(0.0237807 -2.87018e-05 0)
(0.0237986 -2.85955e-05 0)
(0.0238166 -2.84398e-05 0)
(0.0238347 -2.82364e-05 0)
(0.0238529 -2.79875e-05 0)
(0.023871 -2.76953e-05 0)
(0.023889 -2.73623e-05 0)
(0.0239069 -2.69912e-05 0)
(0.0239247 -2.65848e-05 0)
(0.0239422 -2.6146e-05 0)
(0.0239595 -2.56777e-05 0)
(0.0239765 -2.51829e-05 0)
(0.0239932 -2.46644e-05 0)
(0.0240095 -2.41251e-05 0)
(0.0240255 -2.3568e-05 0)
(0.024041 -2.29958e-05 0)
(0.0240562 -2.24112e-05 0)
(0.0240708 -2.18169e-05 0)
(0.024085 -2.12153e-05 0)
(0.0240987 -2.0609e-05 0)
(0.024112 -2.00001e-05 0)
(0.0241247 -1.93909e-05 0)
(0.0241369 -1.87834e-05 0)
(0.0241486 -1.81797e-05 0)
(0.0241598 -1.75815e-05 0)
(0.0241705 -1.69905e-05 0)
(0.0241806 -1.64082e-05 0)
(0.0241903 -1.58362e-05 0)
(0.0241995 -1.52757e-05 0)
(0.0242082 -1.47279e-05 0)
(0.0242164 -1.41938e-05 0)
(0.0242242 -1.36744e-05 0)
(0.0242315 -1.31703e-05 0)
(0.0242384 -1.26822e-05 0)
(0.0242448 -1.22107e-05 0)
(0.0242509 -1.17559e-05 0)
(0.0242566 -1.13181e-05 0)
(0.0242619 -1.08972e-05 0)
(0.0242669 -1.0493e-05 0)
(0.0242715 -1.01051e-05 0)
(0.0242759 -9.73282e-06 0)
(0.02428 -9.37506e-06 0)
(0.0242838 -9.03045e-06 0)
(0.0242873 -8.69715e-06 0)
(0.0242906 -8.37266e-06 0)
(0.0242937 -8.05369e-06 0)
(0.0242966 -7.73583e-06 0)
(0.0242992 -7.4132e-06 0)
(0.0243017 -7.07771e-06 0)
(0.0243039 -6.71844e-06 0)
(0.0243059 -6.32055e-06 0)
(0.0243077 -5.86036e-06 0)
(0.0243091 -5.31894e-06 0)
(0.0243101 -4.61648e-06 0)
(0.0243107 -3.80877e-06 0)
(0.0243105 -2.50753e-06 0)
(0.0243094 -1.29959e-06 0)
(0.0243075 1.30938e-06 0)
(0.0243021 3.74967e-06 0)
(0.0242991 6.5507e-06 0)
(0.0242818 1.74794e-05 0)
(-0.000178836 0.000644991 0)
(-0.00104297 0.00125403 0)
(-0.00216766 0.00153292 0)
(-0.0033048 0.00157434 0)
(-0.00439296 0.00156947 0)
(-0.0054215 0.00152617 0)
(-0.00637474 0.00148252 0)
(-0.00726376 0.00143012 0)
(-0.00808516 0.00137682 0)
(-0.00884708 0.00132095 0)
(-0.00955088 0.00126503 0)
(-0.0102017 0.00120923 0)
(-0.0108019 0.00115438 0)
(-0.011355 0.00110066 0)
(-0.0118631 0.00104826 0)
(-0.0123286 0.000997203 0)
(-0.0127534 0.000947449 0)
(-0.013139 0.000898901 0)
(-0.0134867 0.000851429 0)
(-0.0137977 0.000804882 0)
(-0.0140729 0.000759091 0)
(-0.0143129 0.000713876 0)
(-0.0145182 0.000669049 0)
(-0.0146893 0.000624413 0)
(-0.0148262 0.000579762 0)
(-0.0149291 0.000534886 0)
(-0.0149978 0.000489568 0)
(-0.0150322 0.000443588 0)
(-0.0150319 0.000396719 0)
(-0.0149965 0.000348738 0)
(-0.0149254 0.000299419 0)
(-0.014818 0.000248543 0)
(-0.0146737 0.000195897 0)
(-0.0144916 0.000141281 0)
(-0.0142711 8.45115e-05 0)
(-0.0140113 2.5426e-05 0)
(-0.0137113 -3.6112e-05 0)
(-0.0133704 -0.000100208 0)
(-0.0129879 -0.000166932 0)
(-0.0125629 -0.000236313 0)
(-0.012095 -0.000308336 0)
(-0.0115835 -0.000382939 0)
(-0.011028 -0.000460008 0)
(-0.0104283 -0.000539378 0)
(-0.00978424 -0.000620831 0)
(-0.00909583 -0.000704096 0)
(-0.00836334 -0.00078885 0)
(-0.0075872 -0.00087472 0)
(-0.00676806 -0.000961287 0)
(-0.0059068 -0.00104809 0)
(-0.00500452 -0.00113463 0)
(-0.00406257 -0.00122038 0)
(-0.00308252 -0.00130478 0)
(-0.00206616 -0.00138726 0)
(-0.00101555 -0.00146725 0)
(6.7054e-05 -0.00154415 0)
(0.00117918 -0.00161738 0)
(0.00231815 -0.00168638 0)
(0.0034811 -0.00175062 0)
(0.00466498 -0.00180956 0)
(0.0058666 -0.00186274 0)
(0.00708266 -0.00190973 0)
(0.0083097 -0.00195014 0)
(0.00954422 -0.00198365 0)
(0.0107827 -0.00201001 0)
(0.0120214 -0.002029 0)
(0.0132568 -0.00204052 0)
(0.0144854 -0.0020445 0)
(0.0157036 -0.00204097 0)
(0.0169079 -0.00203001 0)
(0.0180951 -0.00201181 0)
(0.0192619 -0.00198658 0)
(0.0204053 -0.00195463 0)
(0.0215226 -0.00191632 0)
(0.0226109 -0.00187208 0)
(0.023668 -0.00182237 0)
(0.0246916 -0.0017677 0)
(0.0256799 -0.00170861 0)
(0.0266311 -0.00164567 0)
(0.0275439 -0.00157948 0)
(0.0284171 -0.00151062 0)
(0.0292499 -0.0014397 0)
(0.0300417 -0.00136729 0)
(0.0307921 -0.00129398 0)
(0.031501 -0.00122031 0)
(0.0321685 -0.0011468 0)
(0.0327951 -0.00107395 0)
(0.0333812 -0.0010022 0)
(0.0339277 -0.000931957 0)
(0.0344354 -0.000863594 0)
(0.0349054 -0.000797427 0)
(0.0353389 -0.000733729 0)
(0.0357373 -0.000672728 0)
(0.036102 -0.000614608 0)
(0.0364345 -0.000559507 0)
(0.0367363 -0.000507525 0)
(0.037009 -0.000458723 0)
(0.0372543 -0.000413126 0)
(0.0374739 -0.000370726 0)
(0.0376693 -0.000331488 0)
(0.0378422 -0.000295351 0)
(0.0379943 -0.000262231 0)
(0.0381271 -0.000232027 0)
(0.0382422 -0.000204622 0)
(0.038341 -0.000179885 0)
(0.038425 -0.000157679 0)
(0.0384956 -0.000137859 0)
(0.038554 -0.000120274 0)
(0.0386015 -0.000104773 0)
(0.0386393 -9.12032e-05 0)
(0.0386684 -7.94153e-05 0)
(0.03869 -6.92611e-05 0)
(0.0387049 -6.05972e-05 0)
(0.038714 -5.32851e-05 0)
(0.0387181 -4.71922e-05 0)
(0.0387181 -4.2192e-05 0)
(0.0387145 -3.81654e-05 0)
(0.0387079 -3.49999e-05 0)
(0.038699 -3.25906e-05 0)
(0.0386882 -3.084e-05 0)
(0.038676 -2.96577e-05 0)
(0.0386627 -2.89606e-05 0)
(0.0386487 -2.86726e-05 0)
(0.0386343 -2.87245e-05 0)
(0.0386197 -2.90534e-05 0)
(0.0386052 -2.96029e-05 0)
(0.0385909 -3.03222e-05 0)
(0.0385771 -3.11661e-05 0)
(0.0385637 -3.20949e-05 0)
(0.038551 -3.30733e-05 0)
(0.038539 -3.40709e-05 0)
(0.0385277 -3.50613e-05 0)
(0.0385172 -3.60219e-05 0)
(0.0385074 -3.69337e-05 0)
(0.0384985 -3.77809e-05 0)
(0.0384903 -3.85505e-05 0)
(0.0384829 -3.92323e-05 0)
(0.0384763 -3.98185e-05 0)
(0.0384703 -4.03031e-05 0)
(0.038465 -4.06824e-05 0)
(0.0384603 -4.09541e-05 0)
(0.0384562 -4.11175e-05 0)
(0.0384525 -4.11731e-05 0)
(0.0384493 -4.11226e-05 0)
(0.0384465 -4.09687e-05 0)
(0.0384441 -4.07147e-05 0)
(0.0384419 -4.03647e-05 0)
(0.0384399 -3.99236e-05 0)
(0.0384381 -3.93964e-05 0)
(0.0384365 -3.87887e-05 0)
(0.0384348 -3.81062e-05 0)
(0.0384333 -3.7355e-05 0)
(0.0384316 -3.65411e-05 0)
(0.0384299 -3.56708e-05 0)
(0.0384282 -3.47504e-05 0)
(0.0384262 -3.37859e-05 0)
(0.0384241 -3.27836e-05 0)
(0.0384218 -3.17494e-05 0)
(0.0384192 -3.06892e-05 0)
(0.0384164 -2.96088e-05 0)
(0.0384133 -2.85137e-05 0)
(0.0384099 -2.74092e-05 0)
(0.0384062 -2.63004e-05 0)
(0.0384022 -2.51923e-05 0)
(0.0383979 -2.40895e-05 0)
(0.0383932 -2.29964e-05 0)
(0.0383882 -2.1917e-05 0)
(0.0383828 -2.08554e-05 0)
(0.0383772 -1.9815e-05 0)
(0.0383712 -1.87991e-05 0)
(0.0383649 -1.78108e-05 0)
(0.0383583 -1.68527e-05 0)
(0.0383514 -1.59273e-05 0)
(0.0383442 -1.50365e-05 0)
(0.0383367 -1.4182e-05 0)
(0.038329 -1.33652e-05 0)
(0.0383211 -1.25871e-05 0)
(0.038313 -1.18481e-05 0)
(0.0383047 -1.11484e-05 0)
(0.0382962 -1.04873e-05 0)
(0.0382876 -9.86381e-06 0)
(0.0382789 -9.27608e-06 0)
(0.03827 -8.72136e-06 0)
(0.0382611 -8.1958e-06 0)
(0.0382521 -7.69414e-06 0)
(0.0382431 -7.20921e-06 0)
(0.0382341 -6.73142e-06 0)
(0.038225 -6.24758e-06 0)
(0.0382159 -5.74025e-06 0)
(0.0382068 -5.18406e-06 0)
(0.0381977 -4.54693e-06 0)
(0.0381885 -3.77942e-06 0)
(0.0381793 -2.81133e-06 0)
(0.0381699 -1.5828e-06 0)
(0.0381602 1.81545e-07 0)
(0.0381502 2.2318e-06 0)
(0.0381393 5.87013e-06 0)
(0.0381274 9.73044e-06 0)
(0.0381156 1.48576e-05 0)
(0.0380939 3.00883e-05 0)
(-0.000305529 0.00126147 0)
(-0.00151617 0.00231485 0)
(-0.00286984 0.00272287 0)
(-0.00413667 0.00273272 0)
(-0.00523536 0.00266045 0)
(-0.00621503 0.00253093 0)
(-0.00706185 0.00240169 0)
(-0.00780944 0.00226629 0)
(-0.00845932 0.0021357 0)
(-0.00902824 0.00200845 0)
(-0.00952146 0.00188681 0)
(-0.00994797 0.00177038 0)
(-0.0103126 0.00165924 0)
(-0.0106208 0.00155296 0)
(-0.0108761 0.00145111 0)
(-0.0110819 0.00135322 0)
(-0.0112407 0.00125879 0)
(-0.0113549 0.00116735 0)
(-0.0114259 0.00107844 0)
(-0.0114554 0.000991636 0)
(-0.0114444 0.00090651 0)
(-0.0113937 0.000822665 0)
(-0.011304 0.000739713 0)
(-0.0111758 0.000657283 0)
(-0.0110092 0.000575011 0)
(-0.0108045 0.000492546 0)
(-0.0105617 0.000409544 0)
(-0.0102807 0.000325673 0)
(-0.00996116 0.000240609 0)
(-0.00960296 0.000154044 0)
(-0.00920571 6.56838e-05 0)
(-0.00876904 -2.47456e-05 0)
(-0.00829255 -0.000117495 0)
(-0.00777582 -0.000212789 0)
(-0.00721844 -0.000310818 0)
(-0.00662002 -0.000411734 0)
(-0.00598023 -0.000515648 0)
(-0.00529876 -0.00062262 0)
(-0.00457542 -0.000732661 0)
(-0.00381009 -0.000845721 0)
(-0.00300274 -0.000961691 0)
(-0.0021535 -0.0010804 0)
(-0.00126261 -0.0012016 0)
(-0.000330482 -0.00132499 0)
(0.000642324 -0.0014502 0)
(0.00165506 -0.00157678 0)
(0.00270681 -0.00170424 0)
(0.00379645 -0.00183201 0)
(0.00492267 -0.00195948 0)
(0.00608395 -0.00208598 0)
(0.00727858 -0.00221081 0)
(0.00850463 -0.00233322 0)
(0.00975997 -0.00245245 0)
(0.0110423 -0.00256771 0)
(0.0123491 -0.00267821 0)
(0.0136777 -0.00278317 0)
(0.0150252 -0.00288181 0)
(0.0163887 -0.00297339 0)
(0.0177649 -0.00305719 0)
(0.0191505 -0.00313254 0)
(0.0205423 -0.00319883 0)
(0.0219367 -0.0032555 0)
(0.0233301 -0.0033021 0)
(0.0247192 -0.00333821 0)
(0.0261002 -0.00336353 0)
(0.0274696 -0.00337785 0)
(0.0288239 -0.00338105 0)
(0.0301598 -0.00337313 0)
(0.0314738 -0.00335416 0)
(0.0327628 -0.00332435 0)
(0.0340237 -0.00328398 0)
(0.0352537 -0.00323344 0)
(0.0364502 -0.00317321 0)
(0.0376106 -0.00310385 0)
(0.0387329 -0.00302602 0)
(0.0398151 -0.00294041 0)
(0.0408555 -0.00284779 0)
(0.0418527 -0.00274898 0)
(0.0428056 -0.00264481 0)
(0.0437133 -0.00253615 0)
(0.0445754 -0.00242387 0)
(0.0453914 -0.00230885 0)
(0.0461613 -0.00219193 0)
(0.0468854 -0.00207395 0)
(0.047564 -0.00195571 0)
(0.0481977 -0.00183797 0)
(0.0487875 -0.00172141 0)
(0.0493343 -0.0016067 0)
(0.0498392 -0.00149443 0)
(0.0503037 -0.00138511 0)
(0.050729 -0.00127922 0)
(0.0511167 -0.00117713 0)
(0.0514684 -0.0010792 0)
(0.0517857 -0.000985681 0)
(0.0520704 -0.000896783 0)
(0.0523241 -0.000812655 0)
(0.0525487 -0.000733391 0)
(0.0527458 -0.000659036 0)
(0.0529171 -0.00058959 0)
(0.0530644 -0.000525009 0)
(0.0531894 -0.000465215 0)
(0.0532937 -0.000410097 0)
(0.0533789 -0.000359517 0)
(0.0534465 -0.000313314 0)
(0.0534979 -0.000271308 0)
(0.0535347 -0.000233305 0)
(0.0535582 -0.000199097 0)
(0.0535696 -0.000168472 0)
(0.0535702 -0.000141211 0)
(0.0535611 -0.000117093 0)
(0.0535435 -9.5897e-05 0)
(0.0535183 -7.74048e-05 0)
(0.0534864 -6.14023e-05 0)
(0.0534488 -4.76809e-05 0)
(0.0534062 -3.60389e-05 0)
(0.0533595 -2.62826e-05 0)
(0.0533092 -1.82271e-05 0)
(0.053256 -1.16965e-05 0)
(0.0532006 -6.5251e-06 0)
(0.0531433 -2.55689e-06 0)
(0.0530847 3.53843e-07 0)
(0.0530251 2.3427e-06 0)
(0.052965 3.53524e-06 0)
(0.0529046 4.04712e-06 0)
(0.0528443 3.98442e-06 0)
(0.0527843 3.44395e-06 0)
(0.0527248 2.51356e-06 0)
(0.0526659 1.27261e-06 0)
(0.0526079 -2.07632e-07 0)
(0.0525509 -1.86354e-06 0)
(0.0524949 -3.63866e-06 0)
(0.05244 -5.48328e-06 0)
(0.0523863 -7.35394e-06 0)
(0.0523338 -9.21298e-06 0)
(0.0522826 -1.10281e-05 0)
(0.0522326 -1.27719e-05 0)
(0.0521839 -1.44216e-05 0)
(0.0521364 -1.59584e-05 0)
(0.0520901 -1.73673e-05 0)
(0.052045 -1.86366e-05 0)
(0.052001 -1.97578e-05 0)
(0.0519581 -2.07249e-05 0)
(0.0519163 -2.15345e-05 0)
(0.0518755 -2.21851e-05 0)
(0.0518357 -2.26772e-05 0)
(0.0517967 -2.30131e-05 0)
(0.0517586 -2.31961e-05 0)
(0.0517212 -2.32312e-05 0)
(0.0516846 -2.3124e-05 0)
(0.0516487 -2.28811e-05 0)
(0.0516134 -2.251e-05 0)
(0.0515786 -2.20184e-05 0)
(0.0515444 -2.14148e-05 0)
(0.0515106 -2.07079e-05 0)
(0.0514773 -1.99064e-05 0)
(0.0514443 -1.90195e-05 0)
(0.0514116 -1.80563e-05 0)
(0.0513793 -1.70259e-05 0)
(0.0513472 -1.59373e-05 0)
(0.0513154 -1.47996e-05 0)
(0.0512837 -1.36214e-05 0)
(0.0512523 -1.24114e-05 0)
(0.0512209 -1.11779e-05 0)
(0.0511898 -9.92897e-06 0)
(0.0511587 -8.67237e-06 0)
(0.0511277 -7.41559e-06 0)
(0.0510968 -6.16573e-06 0)
(0.051066 -4.92956e-06 0)
(0.0510352 -3.71345e-06 0)
(0.0510046 -2.52338e-06 0)
(0.0509739 -1.36492e-06 0)
(0.0509434 -2.43199e-07 0)
(0.0509129 8.371e-07 0)
(0.0508825 1.87178e-06 0)
(0.0508522 2.85714e-06 0)
(0.050822 3.79002e-06 0)
(0.0507919 4.66783e-06 0)
(0.0507619 5.4886e-06 0)
(0.050732 6.25104e-06 0)
(0.0507023 6.95462e-06 0)
(0.0506727 7.59968e-06 0)
(0.0506434 8.18756e-06 0)
(0.0506142 8.72078e-06 0)
(0.0505853 9.20332e-06 0)
(0.0505565 9.64095e-06 0)
(0.0505281 1.00418e-05 0)
(0.0504999 1.04169e-05 0)
(0.050472 1.07814e-05 0)
(0.0504444 1.11561e-05 0)
(0.0504171 1.15688e-05 0)
(0.0503901 1.20595e-05 0)
(0.0503635 1.26809e-05 0)
(0.0503371 1.35123e-05 0)
(0.0503111 1.46531e-05 0)
(0.0502854 1.62932e-05 0)
(0.0502598 1.85148e-05 0)
(0.0502344 2.20847e-05 0)
(0.0502092 2.64444e-05 0)
(0.0501841 3.29041e-05 0)
(0.050153 4.94267e-05 0)
(-0.000404969 0.00246863 0)
(-0.0017188 0.00379504 0)
(-0.00298678 0.00413972 0)
(-0.00404965 0.00388829 0)
(-0.00482665 0.00361496 0)
(-0.00542865 0.0033122 0)
(-0.00585262 0.00304796 0)
(-0.00615813 0.00280115 0)
(-0.00635445 0.00257684 0)
(-0.00646776 0.00236875 0)
(-0.00650657 0.00217573 0)
(-0.00648289 0.00199528 0)
(-0.00640259 0.00182578 0)
(-0.00627179 0.00166565 0)
(-0.00609428 0.00151353 0)
(-0.00587346 0.00136825 0)
(-0.00561175 0.00122874 0)
(-0.00531115 0.00109409 0)
(-0.00497316 0.000963462 0)
(-0.00459896 0.000836105 0)
(-0.00418943 0.000711338 0)
(-0.00374521 0.000588542 0)
(-0.00326677 0.000467138 0)
(-0.00275438 0.000346593 0)
(-0.0022082 0.000226405 0)
(-0.00162828 0.000106105 0)
(-0.00101456 -1.47494e-05 0)
(-0.000366914 -0.000136572 0)
(0.000314823 -0.00025975 0)
(0.00103087 -0.00038464 0)
(0.00178146 -0.00051157 0)
(0.00256684 -0.00064083 0)
(0.00338723 -0.000772676 0)
(0.00424283 -0.000907319 0)
(0.00513381 -0.00104492 0)
(0.00606026 -0.0011856 0)
(0.00702223 -0.0013294 0)
(0.00801966 -0.00147633 0)
(0.00905239 -0.0016263 0)
(0.0101202 -0.00177918 0)
(0.0112226 -0.00193475 0)
(0.0123592 -0.00209271 0)
(0.0135293 -0.0022527 0)
(0.014732 -0.00241428 0)
(0.0159664 -0.00257691 0)
(0.0172314 -0.00274 0)
(0.0185255 -0.00290288 0)
(0.0198473 -0.00306483 0)
(0.0211952 -0.00322505 0)
(0.0225672 -0.00338269 0)
(0.0239612 -0.00353687 0)
(0.0253752 -0.00368665 0)
(0.0268066 -0.00383108 0)
(0.0282529 -0.00396921 0)
(0.0297113 -0.00410006 0)
(0.031179 -0.00422267 0)
(0.032653 -0.0043361 0)
(0.03413 -0.00443947 0)
(0.0356069 -0.0045319 0)
(0.0370803 -0.00461262 0)
(0.0385467 -0.00468089 0)
(0.0400028 -0.00473608 0)
(0.0414451 -0.00477766 0)
(0.0428701 -0.00480519 0)
(0.0442745 -0.00481835 0)
(0.0456547 -0.00481694 0)
(0.0470077 -0.00480089 0)
(0.0483303 -0.00477027 0)
(0.0496194 -0.00472526 0)
(0.0508724 -0.00466619 0)
(0.0520865 -0.00459351 0)
(0.0532594 -0.00450781 0)
(0.0543891 -0.00440976 0)
(0.0554736 -0.00430018 0)
(0.0565114 -0.00417996 0)
(0.0575011 -0.00405007 0)
(0.0584418 -0.00391157 0)
(0.0593328 -0.00376556 0)
(0.0601736 -0.00361316 0)
(0.0609641 -0.00345555 0)
(0.0617045 -0.00329388 0)
(0.062395 -0.0031293 0)
(0.0630365 -0.00296294 0)
(0.0636296 -0.00279589 0)
(0.0641756 -0.00262918 0)
(0.0646755 -0.00246379 0)
(0.065131 -0.00230062 0)
(0.0655433 -0.0021405 0)
(0.0659143 -0.00198418 0)
(0.0662457 -0.00183231 0)
(0.0665393 -0.00168548 0)
(0.0667969 -0.00154416 0)
(0.0670204 -0.00140877 0)
(0.0672119 -0.00127961 0)
(0.0673731 -0.00115694 0)
(0.067506 -0.00104091 0)
(0.0676125 -0.000931625 0)
(0.0676944 -0.00082912 0)
(0.0677535 -0.000733369 0)
(0.0677915 -0.000644295 0)
(0.0678102 -0.000561777 0)
(0.0678112 -0.000485655 0)
(0.0677959 -0.000415732 0)
(0.067766 -0.000351787 0)
(0.0677227 -0.000293574 0)
(0.0676675 -0.000240828 0)
(0.0676016 -0.000193272 0)
(0.0675261 -0.00015062 0)
(0.0674423 -0.00011258 0)
(0.0673511 -7.88559e-05 0)
(0.0672535 -4.91553e-05 0)
(0.0671503 -2.31872e-05 0)
(0.0670426 -6.66596e-07 0)
(0.0669309 1.86844e-05 0)
(0.066816 3.51346e-05 0)
(0.0666985 4.89428e-05 0)
(0.0665791 6.03566e-05 0)
(0.0664583 6.96118e-05 0)
(0.0663365 7.69316e-05 0)
(0.0662142 8.25265e-05 0)
(0.0660918 8.65941e-05 0)
(0.0659696 8.93187e-05 0)
(0.065848 9.0872e-05 0)
(0.0657271 9.14127e-05 0)
(0.0656072 9.10872e-05 0)
(0.0654886 9.00299e-05 0)
(0.0653714 8.83633e-05 0)
(0.0652558 8.61989e-05 0)
(0.0651418 8.36376e-05 0)
(0.0650296 8.07701e-05 0)
(0.0649192 7.76775e-05 0)
(0.0648107 7.44319e-05 0)
(0.0647041 7.10971e-05 0)
(0.0645995 6.77289e-05 0)
(0.0644969 6.4376e-05 0)
(0.0643962 6.10801e-05 0)
(0.0642975 5.78768e-05 0)
(0.0642008 5.47961e-05 0)
(0.0641059 5.18627e-05 0)
(0.0640129 4.90965e-05 0)
(0.0639217 4.65132e-05 0)
(0.0638324 4.41246e-05 0)
(0.0637447 4.19391e-05 0)
(0.0636587 3.99618e-05 0)
(0.0635744 3.81952e-05 0)
(0.0634917 3.66395e-05 0)
(0.0634104 3.52924e-05 0)
(0.0633306 3.41502e-05 0)
(0.0632522 3.32072e-05 0)
(0.0631752 3.24567e-05 0)
(0.0630994 3.18905e-05 0)
(0.0630249 3.14996e-05 0)
(0.0629515 3.12744e-05 0)
(0.0628792 3.12043e-05 0)
(0.0628081 3.12785e-05 0)
(0.0627379 3.14857e-05 0)
(0.0626687 3.18144e-05 0)
(0.0626005 3.2253e-05 0)
(0.0625331 3.27898e-05 0)
(0.0624666 3.34131e-05 0)
(0.0624009 3.41114e-05 0)
(0.0623359 3.48732e-05 0)
(0.0622717 3.56872e-05 0)
(0.0622083 3.65426e-05 0)
(0.0621455 3.74287e-05 0)
(0.0620834 3.83352e-05 0)
(0.0620219 3.92521e-05 0)
(0.0619611 4.01699e-05 0)
(0.0619008 4.10794e-05 0)
(0.0618412 4.19722e-05 0)
(0.0617821 4.28399e-05 0)
(0.0617236 4.36751e-05 0)
(0.0616657 4.44705e-05 0)
(0.0616083 4.52198e-05 0)
(0.0615515 4.59169e-05 0)
(0.0614952 4.65568e-05 0)
(0.0614395 4.71348e-05 0)
(0.0613843 4.76472e-05 0)
(0.0613297 4.8091e-05 0)
(0.0612757 4.84643e-05 0)
(0.0612223 4.87659e-05 0)
(0.0611694 4.89962e-05 0)
(0.0611171 4.91565e-05 0)
(0.0610654 4.92501e-05 0)
(0.0610143 4.9282e-05 0)
(0.0609639 4.92598e-05 0)
(0.060914 4.9194e-05 0)
(0.0608649 4.90994e-05 0)
(0.0608163 4.8996e-05 0)
(0.0607685 4.89111e-05 0)
(0.0607213 4.88823e-05 0)
(0.0606749 4.89605e-05 0)
(0.0606291 4.92209e-05 0)
(0.0605842 4.97579e-05 0)
(0.06054 5.07359e-05 0)
(0.0604968 5.23215e-05 0)
(0.0604544 5.49932e-05 0)
(0.0604133 5.86703e-05 0)
(0.060373 6.51122e-05 0)
(0.0603314 7.91025e-05 0)
(-0.000693465 0.00309353 0)
(-0.00209163 0.00472149 0)
(-0.00255522 0.00495041 0)
(-0.00279431 0.00450335 0)
(-0.00263089 0.0040309 0)
(-0.00238407 0.00356419 0)
(-0.00199206 0.0031602 0)
(-0.00153928 0.00280221 0)
(-0.001017 0.00248579 0)
(-0.00045077 0.00220233 0)
(0.000157482 0.00194528 0)
(0.000798445 0.00170985 0)
(0.00146952 0.00149177 0)
(0.00216682 0.00128802 0)
(0.00288862 0.00109596 0)
(0.00363318 0.000913566 0)
(0.00439958 0.00073909 0)
(0.00518708 0.000571113 0)
(0.00599528 0.000408399 0)
(0.00682397 0.000249892 0)
(0.0076731 9.46597e-05 0)
(0.00854276 -5.81193e-05 0)
(0.00943311 -0.000209185 0)
(0.0103444 -0.000359204 0)
(0.011277 -0.000508783 0)
(0.0122312 -0.000658475 0)
(0.0132073 -0.000808788 0)
(0.0142059 -0.00096018 0)
(0.0152272 -0.00111307 0)
(0.0162716 -0.00126783 0)
(0.0173396 -0.00142479 0)
(0.0184313 -0.00158423 0)
(0.0195471 -0.00174638 0)
(0.0206871 -0.00191141 0)
(0.0218514 -0.00207944 0)
(0.0230402 -0.00225052 0)
(0.0242533 -0.00242465 0)
(0.0254906 -0.00260173 0)
(0.0267517 -0.0027816 0)
(0.0280362 -0.00296401 0)
(0.0293437 -0.00314866 0)
(0.0306733 -0.00333511 0)
(0.0320243 -0.0035229 0)
(0.0333956 -0.00371143 0)
(0.034786 -0.00390004 0)
(0.0361943 -0.004088 0)
(0.0376188 -0.00427449 0)
(0.039058 -0.00445861 0)
(0.0405098 -0.00463942 0)
(0.0419724 -0.00481591 0)
(0.0434435 -0.00498702 0)
(0.0449207 -0.00515166 0)
(0.0464016 -0.00530871 0)
(0.0478834 -0.00545704 0)
(0.0493633 -0.00559554 0)
(0.0508384 -0.00572308 0)
(0.0523056 -0.0058386 0)
(0.0537619 -0.00594106 0)
(0.055204 -0.0060295 0)
(0.0566287 -0.00610301 0)
(0.0580327 -0.00616081 0)
(0.0594128 -0.0062022 0)
(0.0607657 -0.00622661 0)
(0.0620882 -0.0062336 0)
(0.0633774 -0.00622288 0)
(0.0646302 -0.00619431 0)
(0.0658439 -0.0061479 0)
(0.067016 -0.00608383 0)
(0.068144 -0.00600243 0)
(0.0692258 -0.00590422 0)
(0.0702596 -0.00578986 0)
(0.0712437 -0.00566015 0)
(0.0721769 -0.00551603 0)
(0.0730583 -0.00535859 0)
(0.073887 -0.00518901 0)
(0.0746629 -0.00500857 0)
(0.0753857 -0.00481861 0)
(0.0760559 -0.00462055 0)
(0.0766738 -0.00441582 0)
(0.0772404 -0.00420588 0)
(0.0777565 -0.00399217 0)
(0.0782236 -0.00377611 0)
(0.0786429 -0.00355908 0)
(0.0790162 -0.00334239 0)
(0.0793452 -0.00312728 0)
(0.0796317 -0.0029149 0)