/*--------------------------------*- C++ -*----------------------------------*\
| =========                 |                                                 |
| \\      /  F ield         | OpenFOAM: The Open Source CFD Toolbox           |
|  \\    /   O peration     | Version:  4.1                                   |
|   \\  /    A nd           | Web:      www.OpenFOAM.org                      |
|    \\/     M anipulation  |                                                 |
\*---------------------------------------------------------------------------*/
FoamFile
{
    version     2.0;
    format      ascii;
    class       volScalarField;
    location    "892";
    object      p;
}
// * * * * * * * * * * * * * * * * * * * * * * * * * * * * * * * * * * * * * //

dimensions      [1 -1 -2 0 0 0 0];

internalField   nonuniform List<scalar> 
3264
(
0.71251
0.712508
0.712507
0.712507
0.712507
0.712507
0.712508
0.71251
0.712513
0.712516
0.712521
0.712526
0.712532
0.71254
0.712548
0.712557
0.712568
0.712579
0.712591
0.712605
0.712619
0.712635
0.712652
0.71267
0.712689
0.712708
0.71273
0.712752
0.712775
0.712799
0.712825
0.712851
0.712879
0.712908
0.712938
0.712969
0.713001
0.713034
0.713068
0.713103
0.713139
0.713176
0.713214
0.713253
0.713293
0.713334
0.713375
0.713417
0.713459
0.713502
0.713546
0.71359
0.713634
0.713678
0.713722
0.713766
0.71381
0.713853
0.713896
0.713938
0.71398
0.714021
0.714061
0.7141
0.714137
0.714174
0.714209
0.714243
0.714276
0.714307
0.714336
0.714365
0.714391
0.714417
0.71444
0.714462
0.714483
0.714503
0.714521
0.714537
0.714553
0.714567
0.71458
0.714593
0.714604
0.714614
0.714623
0.714632
0.71464
0.714647
0.714653
0.714659
0.714665
0.71467
0.714674
0.714678
0.714682
0.714685
0.714689
0.714691
0.714694
0.714696
0.714699
0.714701
0.714702
0.714704
0.714705
0.714706
0.714708
0.714708
0.714709
0.71471
0.71471
0.714711
0.714711
0.714711
0.714711
0.71471
0.71471
0.714709
0.714709
0.714708
0.714707
0.714706
0.714704
0.714703
0.714701
0.714699
0.714697
0.714695
0.714693
0.714691
0.714688
0.714686
0.714683
0.71468
0.714677
0.714673
0.71467
0.714667
0.714663
0.714659
0.714655
0.714651
0.714647
0.714643
0.714638
0.714634
0.714629
0.714625
0.71462
0.714615
0.71461
0.714604
0.714599
0.714594
0.714588
0.714583
0.714577
0.714571
0.714566
0.71456
0.714554
0.714548
0.714541
0.714535
0.714529
0.714522
0.714516
0.71451
0.714503
0.714496
0.71449
0.714483
0.714476
0.714469
0.714462
0.714455
0.714448
0.714441
0.714434
0.714426
0.714419
0.714412
0.714405
0.714397
0.71439
0.714382
0.714375
0.714367
0.714359
0.714352
0.714344
0.714336
0.714329
0.714321
0.714313
0.714305
0.714298
0.71429
0.712512
0.71251
0.712509
0.712509
0.712509
0.71251
0.712511
0.712513
0.712515
0.712518
0.712523
0.712528
0.712534
0.712541
0.712549
0.712559
0.712569
0.71258
0.712592
0.712606
0.71262
0.712636
0.712653
0.71267
0.712689
0.712709
0.71273
0.712752
0.712775
0.712799
0.712825
0.712851
0.712879
0.712907
0.712937
0.712968
0.713
0.713033
0.713067
0.713102
0.713138
0.713175
0.713213
0.713252
0.713291
0.713332
0.713373
0.713415
0.713457
0.7135
0.713543
0.713587
0.713631
0.713675
0.713719
0.713763
0.713807
0.71385
0.713893
0.713935
0.713977
0.714018
0.714057
0.714096
0.714134
0.714171
0.714206
0.71424
0.714272
0.714304
0.714333
0.714361
0.714388
0.714413
0.714437
0.71446
0.71448
0.7145
0.714518
0.714535
0.71455
0.714565
0.714578
0.71459
0.714602
0.714612
0.714621
0.71463
0.714638
0.714645
0.714652
0.714658
0.714663
0.714668
0.714673
0.714677
0.714681
0.714685
0.714688
0.714691
0.714693
0.714696
0.714698
0.7147
0.714702
0.714703
0.714705
0.714706
0.714707
0.714708
0.714709
0.71471
0.71471
0.71471
0.714711
0.714711
0.71471
0.71471
0.71471
0.714709
0.714709
0.714708
0.714707
0.714705
0.714704
0.714703
0.714701
0.714699
0.714697
0.714695
0.714693
0.714691
0.714688
0.714685
0.714683
0.71468
0.714677
0.714673
0.71467
0.714666
0.714663
0.714659
0.714655
0.714651
0.714647
0.714643
0.714638
0.714634
0.714629
0.714624
0.71462
0.714615
0.71461
0.714604
0.714599
0.714594
0.714588
0.714583
0.714577
0.714571
0.714565
0.71456
0.714554
0.714548
0.714541
0.714535
0.714529
0.714522
0.714516
0.714509
0.714503
0.714496
0.714489
0.714483
0.714476
0.714469
0.714462
0.714455
0.714448
0.714441
0.714434
0.714426
0.714419
0.714412
0.714404
0.714397
0.71439
0.714382
0.714375
0.714367
0.714359
0.714352
0.714344
0.714336
0.714329
0.714321
0.714313
0.714305
0.714298
0.714289
0.712513
0.712511
0.71251
0.712509
0.712509
0.712509
0.71251
0.712512
0.712514
0.712517
0.712522
0.712527
0.712533
0.71254
0.712548
0.712557
0.712568
0.712579
0.712591
0.712605
0.712619
0.712635
0.712651
0.712669
0.712688
0.712708
0.712729
0.712751
0.712774
0.712798
0.712823
0.71285
0.712877
0.712906
0.712936
0.712966
0.712998
0.713031
0.713065
0.7131
0.713136
0.713173
0.713211
0.71325
0.713289
0.71333
0.713371
0.713413
0.713455
0.713498
0.713541
0.713585
0.713629
0.713673
0.713717
0.713761
0.713805
0.713848
0.713891
0.713933
0.713975
0.714016
0.714055
0.714094
0.714132
0.714169
0.714204
0.714238
0.71427
0.714302
0.714331
0.71436
0.714386
0.714412
0.714435
0.714458
0.714479
0.714498
0.714516
0.714533
0.714549
0.714563
0.714576
0.714589
0.7146
0.71461
0.71462
0.714629
0.714637
0.714644
0.714651
0.714657
0.714662
0.714667
0.714672
0.714676
0.71468
0.714684
0.714687
0.71469
0.714693
0.714695
0.714698
0.7147
0.714701
0.714703
0.714705
0.714706
0.714707
0.714708
0.714709
0.714709
0.71471
0.71471
0.714711
0.714711
0.714711
0.71471
0.71471
0.714709
0.714709
0.714708
0.714707
0.714706
0.714704
0.714703
0.714701
0.714699
0.714697
0.714695
0.714693
0.714691
0.714688
0.714686
0.714683
0.71468
0.714677
0.714673
0.71467
0.714667
0.714663
0.714659
0.714655
0.714651
0.714647
0.714643
0.714638
0.714634
0.714629
0.714624
0.71462
0.714615
0.71461
0.714604
0.714599
0.714594
0.714588
0.714583
0.714577
0.714571
0.714566
0.71456
0.714554
0.714548
0.714541
0.714535
0.714529
0.714522
0.714516
0.714509
0.714503
0.714496
0.71449
0.714483
0.714476
0.714469
0.714462
0.714455
0.714448
0.714441
0.714434
0.714426
0.714419
0.714412
0.714405
0.714397
0.71439
0.714382
0.714375
0.714367
0.714359
0.714352
0.714344
0.714336
0.714329
0.714321
0.714313
0.714305
0.714297
0.714289
0.712507
0.712507
0.712506
0.712506
0.712506
0.712507
0.712508
0.712509
0.712512
0.712515
0.712519
0.712524
0.712531
0.712538
0.712546
0.712555
0.712565
0.712577
0.712589
0.712603
0.712617
0.712633
0.712649
0.712667
0.712686
0.712706
0.712726
0.712749
0.712772
0.712796
0.712821
0.712847
0.712875
0.712903
0.712933
0.712964
0.712996
0.713028
0.713062
0.713097
0.713133
0.71317
0.713208
0.713247
0.713286
0.713327
0.713368
0.713409
0.713452
0.713495
0.713538
0.713582
0.713626
0.71367
0.713714
0.713757
0.713801
0.713844
0.713887
0.713929
0.713971
0.714012
0.714052
0.71409
0.714128
0.714165
0.7142
0.714234
0.714266
0.714297
0.714327
0.714355
0.714382
0.714407
0.714431
0.714453
0.714474
0.714493
0.714512
0.714528
0.714544
0.714559
0.714572
0.714584
0.714596
0.714606
0.714616
0.714625
0.714633
0.71464
0.714647
0.714653
0.714659
0.714664
0.714669
0.714674
0.714678
0.714682
0.714685
0.714688
0.714691
0.714694
0.714696
0.714698
0.7147
0.714702
0.714704
0.714705
0.714706
0.714707
0.714708
0.714709
0.71471
0.71471
0.71471
0.714711
0.71471
0.71471
0.71471
0.714709
0.714709
0.714708
0.714707
0.714706
0.714704
0.714703
0.714701
0.7147
0.714698
0.714696
0.714693
0.714691
0.714688
0.714686
0.714683
0.71468
0.714677
0.714674
0.71467
0.714667
0.714663
0.714659
0.714655
0.714651
0.714647
0.714643
0.714639
0.714634
0.714629
0.714625
0.71462
0.714615
0.71461
0.714605
0.714599
0.714594
0.714588
0.714583
0.714577
0.714571
0.714566
0.71456
0.714554
0.714548
0.714541
0.714535
0.714529
0.714522
0.714516
0.71451
0.714503
0.714496
0.71449
0.714483
0.714476
0.714469
0.714462
0.714455
0.714448
0.714441
0.714434
0.714426
0.714419
0.714412
0.714405
0.714397
0.71439
0.714382
0.714375
0.714367
0.714359
0.714352
0.714344
0.714336
0.714329
0.714321
0.714313
0.714305
0.714297
0.714289
0.712505
0.712504
0.712502
0.712502
0.712501
0.712502
0.712503
0.712504
0.712507
0.712511
0.712515
0.712521
0.712527
0.712534
0.712543
0.712552
0.712563
0.712574
0.712586
0.7126
0.712614
0.71263
0.712647
0.712665
0.712683
0.712703
0.712724
0.712746
0.712769
0.712794
0.712819
0.712845
0.712873
0.712901
0.712931
0.712962
0.712993
0.713026
0.71306
0.713095
0.713131
0.713168
0.713206
0.713244
0.713284
0.713324
0.713365
0.713407
0.713449
0.713492
0.713536
0.713579
0.713623
0.713667
0.713711
0.713754
0.713798
0.713841
0.713884
0.713926
0.713967
0.714008
0.714047
0.714086
0.714123
0.714159
0.714194
0.714228
0.71426
0.714291
0.71432
0.714348
0.714375
0.7144
0.714423
0.714445
0.714466
0.714485
0.714504
0.71452
0.714536
0.714551
0.714564
0.714577
0.714588
0.714599
0.714609
0.714618
0.714626
0.714634
0.714641
0.714647
0.714653
0.714659
0.714664
0.714669
0.714673
0.714677
0.714681
0.714685
0.714688
0.714691
0.714693
0.714696
0.714698
0.7147
0.714702
0.714704
0.714705
0.714706
0.714707
0.714708
0.714709
0.71471
0.71471
0.71471
0.71471
0.71471
0.71471
0.714709
0.714709
0.714708
0.714707
0.714706
0.714705
0.714703
0.714702
0.7147
0.714698
0.714696
0.714694
0.714691
0.714689
0.714686
0.714683
0.71468
0.714677
0.714674
0.714671
0.714667
0.714663
0.71466
0.714656
0.714652
0.714647
0.714643
0.714639
0.714634
0.71463
0.714625
0.71462
0.714615
0.71461
0.714605
0.714599
0.714594
0.714589
0.714583
0.714577
0.714572
0.714566
0.71456
0.714554
0.714548
0.714542
0.714535
0.714529
0.714523
0.714516
0.71451
0.714503
0.714496
0.71449
0.714483
0.714476
0.714469
0.714462
0.714455
0.714448
0.714441
0.714434
0.714427
0.714419
0.714412
0.714405
0.714397
0.71439
0.714382
0.714375
0.714367
0.714359
0.714352
0.714344
0.714336
0.714328
0.714321
0.714313
0.714305
0.714297
0.714288
0.712473
0.712488
0.712487
0.712493
0.712494
0.712497
0.712498
0.712501
0.712504
0.712508
0.712513
0.712518
0.712525
0.712532
0.712541
0.71255
0.712561
0.712572
0.712585
0.712598
0.712613
0.712629
0.712646
0.712663
0.712682
0.712702
0.712723
0.712745
0.712768
0.712793
0.712818
0.712844
0.712872
0.7129
0.71293
0.712961
0.712993
0.713026
0.713059
0.713094
0.71313
0.713167
0.713205
0.713244
0.713283
0.713323
0.713364
0.713406
0.713448
0.713491
0.713534
0.713577
0.713621
0.713665
0.713708
0.713752
0.713795
0.713837
0.71388
0.713921
0.713962
0.714002
0.714041
0.714079
0.714116
0.714151
0.714186
0.714219
0.714251
0.714281
0.71431
0.714337
0.714363
0.714388
0.714411
0.714433
0.714453
0.714472
0.71449
0.714507
0.714523
0.714538
0.714551
0.714564
0.714575
0.714586
0.714597
0.714606
0.714615
0.714623
0.71463
0.714637
0.714644
0.71465
0.714656
0.714661
0.714666
0.714671
0.714675
0.714679
0.714682
0.714686
0.714689
0.714692
0.714694
0.714697
0.714699
0.714701
0.714703
0.714704
0.714706
0.714707
0.714708
0.714709
0.714709
0.71471
0.71471
0.71471
0.71471
0.714709
0.714709
0.714708
0.714707
0.714706
0.714705
0.714704
0.714702
0.7147
0.714698
0.714696
0.714694
0.714692
0.714689
0.714687
0.714684
0.714681
0.714678
0.714674
0.714671
0.714668
0.714664
0.71466
0.714656
0.714652
0.714648
0.714644
0.714639
0.714635
0.71463
0.714625
0.71462
0.714615
0.71461
0.714605
0.7146
0.714594
0.714589
0.714583
0.714577
0.714572
0.714566
0.71456
0.714554
0.714548
0.714542
0.714535
0.714529
0.714523
0.714516
0.71451
0.714503
0.714496
0.71449
0.714483
0.714476
0.714469
0.714462
0.714455
0.714448
0.714441
0.714434
0.714427
0.714419
0.714412
0.714405
0.714397
0.71439
0.714382
0.714375
0.714367
0.714359
0.714352
0.714344
0.714336
0.714328
0.714321
0.714313
0.714304
0.714296
0.714288
0.712472
0.712488
0.712487
0.71249
0.712491
0.712493
0.712495
0.712498
0.712502
0.712506
0.712511
0.712517
0.712524
0.712532
0.71254
0.71255
0.712561
0.712572
0.712585
0.712599
0.712613
0.712629
0.712646
0.712664
0.712683
0.712703
0.712724
0.712746
0.712769
0.712794
0.712819
0.712846
0.712873
0.712902
0.712932
0.712962
0.712994
0.713027
0.713061
0.713096
0.713132
0.713169
0.713207
0.713246
0.713285
0.713325
0.713366
0.713408
0.71345
0.713492
0.713535
0.713578
0.713621
0.713664
0.713707
0.71375
0.713793
0.713835
0.713876
0.713917
0.713957
0.713996
0.714034
0.714071
0.714107
0.714141
0.714175
0.714207
0.714238
0.714267
0.714295
0.714322
0.714347
0.714371
0.714394
0.714415
0.714435
0.714454
0.714472
0.714489
0.714504
0.714519
0.714533
0.714546
0.714558
0.714569
0.71458
0.71459
0.714599
0.714608
0.714616
0.714624
0.714631
0.714638
0.714644
0.71465
0.714656
0.714661
0.714666
0.714671
0.714675
0.714679
0.714683
0.714686
0.714689
0.714692
0.714695
0.714697
0.7147
0.714702
0.714703
0.714705
0.714706
0.714707
0.714708
0.714709
0.714709
0.714709
0.714709
0.714709
0.714709
0.714708
0.714708
0.714707
0.714705
0.714704
0.714703
0.714701
0.714699
0.714697
0.714695
0.714693
0.71469
0.714687
0.714685
0.714682
0.714678
0.714675
0.714672
0.714668
0.714664
0.714661
0.714657
0.714653
0.714648
0.714644
0.71464
0.714635
0.71463
0.714625
0.714621
0.714616
0.71461
0.714605
0.7146
0.714594
0.714589
0.714583
0.714578
0.714572
0.714566
0.71456
0.714554
0.714548
0.714542
0.714536
0.714529
0.714523
0.714516
0.71451
0.714503
0.714497
0.71449
0.714483
0.714476
0.714469
0.714462
0.714455
0.714448
0.714441
0.714434
0.714427
0.714419
0.714412
0.714405
0.714397
0.71439
0.714382
0.714375
0.714367
0.71436
0.714352
0.714344
0.714336
0.714328
0.71432
0.714312
0.714304
0.714296
0.714288
0.712318
0.712456
0.712473
0.712494
0.712497
0.7125
0.712502
0.712504
0.712507
0.712511
0.712515
0.712521
0.712527
0.712535
0.712543
0.712553
0.712563
0.712575
0.712588
0.712601
0.712616
0.712632
0.712649
0.712667
0.712686
0.712706
0.712727
0.712749
0.712773
0.712797
0.712823
0.71285
0.712878
0.712907
0.712937
0.712968
0.713
0.713033
0.713067
0.713102
0.713138
0.713175
0.713213
0.713252
0.713291
0.713331
0.713372
0.713413
0.713455
0.713497
0.713539
0.713582
0.713624
0.713666
0.713709
0.71375
0.713792
0.713833
0.713873
0.713913
0.713951
0.713989
0.714026
0.714061
0.714096
0.714129
0.714161
0.714192
0.714222
0.71425
0.714277
0.714303
0.714327
0.71435
0.714372
0.714393
0.714413
0.714431
0.714449
0.714465
0.714481
0.714496
0.71451
0.714523
0.714536
0.714548
0.714559
0.71457
0.71458
0.714589
0.714598
0.714607
0.714615
0.714623
0.71463
0.714637
0.714643
0.71465
0.714655
0.714661
0.714666
0.714671
0.714675
0.714679
0.714683
0.714687
0.71469
0.714693
0.714696
0.714698
0.714701
0.714703
0.714704
0.714706
0.714707
0.714708
0.714708
0.714709
0.714709
0.714709
0.714709
0.714709
0.714708
0.714707
0.714706
0.714705
0.714703
0.714702
0.7147
0.714698
0.714696
0.714693
0.714691
0.714688
0.714685
0.714682
0.714679
0.714676
0.714672
0.714669
0.714665
0.714661
0.714657
0.714653
0.714649
0.714645
0.71464
0.714636
0.714631
0.714626
0.714621
0.714616
0.714611
0.714606
0.7146
0.714595
0.714589
0.714584
0.714578
0.714572
0.714566
0.71456
0.714554
0.714548
0.714542
0.714536
0.714529
0.714523
0.714517
0.71451
0.714503
0.714497
0.71449
0.714483
0.714476
0.714469
0.714462
0.714455
0.714448
0.714441
0.714434
0.714427
0.71442
0.714412
0.714405
0.714397
0.71439
0.714382
0.714375
0.714367
0.71436
0.714352
0.714344
0.714336
0.714328
0.714321
0.714312
0.714304
0.714296
0.714288
0.71304
0.712984
0.712922
0.712855
0.712782
0.712705
0.712619
0.712501
0.713046
0.713
0.712937
0.712868
0.712795
0.712718
0.712628
0.712532
0.71305
0.713011
0.712953
0.712888
0.712819
0.712747
0.712677
0.712607
0.713059
0.713025
0.712973
0.712912
0.712848
0.712783
0.71272
0.712662
0.713072
0.71304
0.712991
0.712934
0.712875
0.712817
0.712763
0.712715
0.713086
0.713053
0.713004
0.71295
0.712896
0.712844
0.712796
0.712753
0.713101
0.713063
0.713013
0.712961
0.712909
0.712861
0.712816
0.712776
0.713109
0.713061
0.713011
0.712961
0.712912
0.712866
0.712823
0.712783
0.712441
0.712462
0.712482
0.712493
0.712499
0.712502
0.712505
0.712507
0.71251
0.712514
0.712519
0.712524
0.712531
0.712539
0.712547
0.712557
0.712567
0.712579
0.712592
0.712606
0.712621
0.712637
0.712654
0.712672
0.712692
0.712712
0.712734
0.712756
0.71278
0.712805
0.712831
0.712858
0.712886
0.712916
0.712946
0.712977
0.71301
0.713043
0.713078
0.713113
0.713149
0.713186
0.713224
0.713263
0.713302
0.713342
0.713382
0.713423
0.713464
0.713506
0.713547
0.713589
0.71363
0.713672
0.713713
0.713753
0.713793
0.713833
0.713872
0.713909
0.713946
0.713983
0.714018
0.714051
0.714084
0.714116
0.714146
0.714176
0.714204
0.714231
0.714256
0.714281
0.714304
0.714327
0.714348
0.714368
0.714387
0.714406
0.714423
0.71444
0.714456
0.714471
0.714486
0.714499
0.714513
0.714525
0.714537
0.714549
0.71456
0.71457
0.71458
0.71459
0.714599
0.714607
0.714616
0.714624
0.714631
0.714638
0.714645
0.714651
0.714657
0.714663
0.714668
0.714673
0.714677
0.714682
0.714685
0.714689
0.714692
0.714695
0.714698
0.7147
0.714702
0.714704
0.714706
0.714707
0.714708
0.714708
0.714709
0.714709
0.714709
0.714709
0.714708
0.714708
0.714707
0.714705
0.714704
0.714702
0.714701
0.714699
0.714697
0.714694
0.714692
0.714689
0.714686
0.714683
0.71468
0.714677
0.714673
0.71467
0.714666
0.714662
0.714658
0.714654
0.71465
0.714645
0.714641
0.714636
0.714631
0.714627
0.714622
0.714617
0.714611
0.714606
0.714601
0.714595
0.71459
0.714584
0.714578
0.714573
0.714567
0.714561
0.714555
0.714548
0.714542
0.714536
0.71453
0.714523
0.714517
0.71451
0.714504
0.714497
0.71449
0.714483
0.714476
0.71447
0.714463
0.714456
0.714448
0.714441
0.714434
0.714427
0.71442
0.714412
0.714405
0.714398
0.71439
0.714383
0.714375
0.714367
0.71436
0.714352
0.714344
0.714336
0.714329
0.714321
0.714313
0.714304
0.714296
0.714288
0.712461
0.712472
0.712485
0.712497
0.712505
0.712509
0.712513
0.712515
0.712518
0.712522
0.712526
0.712532
0.712538
0.712546
0.712554
0.712564
0.712575
0.712587
0.7126
0.712614
0.712629
0.712645
0.712663
0.712682
0.712701
0.712722
0.712744
0.712768
0.712792
0.712817
0.712844
0.712871
0.7129
0.71293
0.712961
0.712992
0.713025
0.713059
0.713094
0.713129
0.713166
0.713203
0.713241
0.713279
0.713318
0.713358
0.713398
0.713438
0.713478
0.713519
0.713559
0.7136
0.71364
0.71368
0.713719
0.713758
0.713796
0.713834
0.713871
0.713907
0.713942
0.713976
0.714009
0.714041
0.714072
0.714102
0.714131
0.714159
0.714185
0.714211
0.714235
0.714259
0.714282
0.714303
0.714324
0.714344
0.714363
0.714381
0.714399
0.714416
0.714432
0.714448
0.714463
0.714477
0.714491
0.714504
0.714517
0.71453
0.714542
0.714553
0.714564
0.714574
0.714584
0.714594
0.714603
0.714612
0.71462
0.714628
0.714636
0.714643
0.714649
0.714656
0.714662
0.714667
0.714672
0.714677
0.714682
0.714686
0.714689
0.714693
0.714696
0.714698
0.714701
0.714703
0.714705
0.714706
0.714707
0.714708
0.714709
0.714709
0.714709
0.714709
0.714709
0.714708
0.714707
0.714706
0.714705
0.714703
0.714702
0.7147
0.714698
0.714695
0.714693
0.71469
0.714687
0.714684
0.714681
0.714678
0.714674
0.714671
0.714667
0.714663
0.714659
0.714655
0.71465
0.714646
0.714641
0.714637
0.714632
0.714627
0.714622
0.714617
0.714612
0.714607
0.714601
0.714596
0.71459
0.714585
0.714579
0.714573
0.714567
0.714561
0.714555
0.714549
0.714543
0.714536
0.71453
0.714524
0.714517
0.71451
0.714504
0.714497
0.71449
0.714484
0.714477
0.71447
0.714463
0.714456
0.714449
0.714442
0.714434
0.714427
0.71442
0.714412
0.714405
0.714398
0.71439
0.714383
0.714375
0.714368
0.71436
0.714352
0.714344
0.714337
0.714329
0.714321
0.714313
0.714305
0.714297
0.714289
0.712555
0.712532
0.712525
0.712525
0.712526
0.712527
0.712528
0.712529
0.712531
0.712533
0.712537
0.712542
0.712548
0.712556
0.712564
0.712574
0.712585
0.712597
0.71261
0.712624
0.71264
0.712657
0.712675
0.712694
0.712714
0.712736
0.712758
0.712782
0.712807
0.712833
0.71286
0.712888
0.712917
0.712948
0.712979
0.713011
0.713044
0.713078
0.713113
0.713149
0.713185
0.713222
0.71326
0.713298
0.713337
0.713376
0.713415
0.713455
0.713494
0.713533
0.713573
0.713612
0.71365
0.713689
0.713726
0.713764
0.7138
0.713836
0.713871
0.713905
0.713938
0.71397
0.714001
0.714032
0.714061
0.714089
0.714117
0.714143
0.714168
0.714193
0.714217
0.71424
0.714262
0.714283
0.714304
0.714323
0.714343
0.714361
0.714379
0.714396
0.714413
0.714429
0.714445
0.71446
0.714475
0.714489
0.714502
0.714515
0.714528
0.71454
0.714552
0.714563
0.714574
0.714584
0.714594
0.714603
0.714612
0.714621
0.714629
0.714637
0.714644
0.714651
0.714657
0.714663
0.714669
0.714674
0.714679
0.714683
0.714687
0.714691
0.714694
0.714697
0.7147
0.714702
0.714704
0.714706
0.714707
0.714708
0.714709
0.71471
0.71471
0.71471
0.714709
0.714709
0.714708
0.714707
0.714706
0.714704
0.714702
0.714701
0.714698
0.714696
0.714694
0.714691
0.714688
0.714685
0.714682
0.714679
0.714675
0.714671
0.714668
0.714664
0.71466
0.714655
0.714651
0.714647
0.714642
0.714637
0.714633
0.714628
0.714623
0.714618
0.714612
0.714607
0.714602
0.714596
0.714591
0.714585
0.714579
0.714573
0.714567
0.714561
0.714555
0.714549
0.714543
0.714537
0.71453
0.714524
0.714517
0.714511
0.714504
0.714497
0.714491
0.714484
0.714477
0.71447
0.714463
0.714456
0.714449
0.714442
0.714435
0.714427
0.71442
0.714413
0.714405
0.714398
0.71439
0.714383
0.714375
0.714368
0.71436
0.714352
0.714345
0.714337
0.714329
0.714321
0.714313
0.714305
0.714297
0.71429
0.712616
0.712588
0.712573
0.712565
0.712559
0.712556
0.712553
0.712551
0.712551
0.712552
0.712554
0.712557
0.712562
0.712569
0.712577
0.712586
0.712597
0.712608
0.712622
0.712636
0.712652
0.712669
0.712688
0.712707
0.712728
0.71275
0.712773
0.712797
0.712823
0.712849
0.712877
0.712906
0.712935
0.712966
0.712998
0.71303
0.713063
0.713098
0.713133
0.713168
0.713205
0.713241
0.713279
0.713317
0.713355
0.713393
0.713431
0.71347
0.713508
0.713546
0.713584
0.713622
0.713659
0.713695
0.713731
0.713767
0.713802
0.713836
0.713869
0.713901
0.713933
0.713964
0.713993
0.714022
0.714051
0.714078
0.714104
0.71413
0.714155
0.714179
0.714202
0.714225
0.714247
0.714268
0.714289
0.714309
0.714328
0.714347
0.714366
0.714383
0.7144
0.714417
0.714433
0.714449
0.714464
0.714479
0.714493
0.714506
0.714519
0.714532
0.714544
0.714556
0.714567
0.714578
0.714588
0.714598
0.714608
0.714617
0.714625
0.714633
0.714641
0.714648
0.714655
0.714661
0.714667
0.714672
0.714677
0.714682
0.714686
0.71469
0.714694
0.714697
0.7147
0.714702
0.714704
0.714706
0.714708
0.714709
0.71471
0.71471
0.71471
0.71471
0.71471
0.71471
0.714709
0.714708
0.714706
0.714705
0.714703
0.714701
0.714699
0.714697
0.714694
0.714692
0.714689
0.714686
0.714683
0.714679
0.714676
0.714672
0.714668
0.714664
0.71466
0.714656
0.714652
0.714647
0.714643
0.714638
0.714633
0.714628
0.714623
0.714618
0.714613
0.714608
0.714602
0.714597
0.714591
0.714585
0.71458
0.714574
0.714568
0.714562
0.714556
0.714549
0.714543
0.714537
0.714531
0.714524
0.714518
0.714511
0.714504
0.714498
0.714491
0.714484
0.714477
0.71447
0.714463
0.714456
0.714449
0.714442
0.714435
0.714428
0.71442
0.714413
0.714405
0.714398
0.714391
0.714383
0.714375
0.714368
0.71436
0.714353
0.714345
0.714337
0.714329
0.714321
0.714314
0.714306
0.714298
0.714291
0.712675
0.712646
0.712625
0.71261
0.712599
0.712589
0.712582
0.712577
0.712573
0.712571
0.712571
0.712573
0.712576
0.712581
0.712588
0.712597
0.712607
0.712619
0.712632
0.712647
0.712663
0.71268
0.712699
0.712719
0.71274
0.712762
0.712786
0.71281
0.712836
0.712863
0.712891
0.71292
0.71295
0.712981
0.713013
0.713045
0.713079
0.713113
0.713148
0.713183
0.713219
0.713256
0.713293
0.71333
0.713367
0.713405
0.713442
0.71348
0.713517
0.713554
0.713591
0.713627
0.713663
0.713698
0.713733
0.713767
0.713801
0.713834
0.713866
0.713897
0.713928
0.713958
0.713987
0.714015
0.714043
0.71407
0.714096
0.714121
0.714146
0.71417
0.714193
0.714216
0.714238
0.71426
0.71428
0.714301
0.71432
0.71434
0.714358
0.714376
0.714394
0.714411
0.714427
0.714443
0.714458
0.714473
0.714488
0.714502
0.714515
0.714528
0.714541
0.714553
0.714564
0.714575
0.714586
0.714596
0.714605
0.714614
0.714623
0.714631
0.714639
0.714647
0.714653
0.71466
0.714666
0.714672
0.714677
0.714682
0.714686
0.71469
0.714694
0.714697
0.7147
0.714702
0.714704
0.714706
0.714708
0.714709
0.71471
0.71471
0.714711
0.714711
0.71471
0.71471
0.714709
0.714708
0.714707
0.714705
0.714704
0.714702
0.7147
0.714697
0.714695
0.714692
0.714689
0.714686
0.714683
0.71468
0.714676
0.714673
0.714669
0.714665
0.714661
0.714656
0.714652
0.714648
0.714643
0.714638
0.714634
0.714629
0.714624
0.714618
0.714613
0.714608
0.714602
0.714597
0.714591
0.714586
0.71458
0.714574
0.714568
0.714562
0.714556
0.71455
0.714543
0.714537
0.714531
0.714524
0.714518
0.714511
0.714505
0.714498
0.714491
0.714484
0.714477
0.71447
0.714463
0.714456
0.714449
0.714442
0.714435
0.714428
0.71442
0.714413
0.714406
0.714398
0.714391
0.714383
0.714376
0.714368
0.71436
0.714353
0.714345
0.714337
0.714329
0.714322
0.714314
0.714306
0.714298
0.714291
0.712716
0.712686
0.712662
0.712643
0.712626
0.712613
0.712602
0.712593
0.712586
0.712582
0.71258
0.712581
0.712583
0.712588
0.712595
0.712603
0.712613
0.712624
0.712638
0.712652
0.712669
0.712686
0.712705
0.712725
0.712746
0.712769
0.712793
0.712818
0.712844
0.712871
0.712899
0.712928
0.712958
0.712989
0.713021
0.713053
0.713087
0.713121
0.713155
0.71319
0.713226
0.713262
0.713298
0.713335
0.713372
0.713408
0.713445
0.713482
0.713519
0.713555
0.713591
0.713627
0.713662
0.713697
0.713731
0.713765
0.713798
0.71383
0.713862
0.713893
0.713923
0.713953
0.713982
0.71401
0.714038
0.714064
0.714091
0.714116
0.714141
0.714165
0.714189
0.714212
0.714234
0.714255
0.714276
0.714297
0.714317
0.714336
0.714355
0.714373
0.714391
0.714408
0.714424
0.714441
0.714456
0.714471
0.714486
0.7145
0.714513
0.714526
0.714539
0.714551
0.714563
0.714574
0.714585
0.714595
0.714605
0.714614
0.714623
0.714631
0.714639
0.714646
0.714653
0.71466
0.714666
0.714671
0.714677
0.714682
0.714686
0.71469
0.714694
0.714697
0.7147
0.714703
0.714705
0.714707
0.714708
0.714709
0.71471
0.714711
0.714711
0.714711
0.714711
0.71471
0.71471
0.714709
0.714707
0.714706
0.714704
0.714702
0.7147
0.714698
0.714695
0.714693
0.71469
0.714687
0.714684
0.71468
0.714677
0.714673
0.714669
0.714665
0.714661
0.714657
0.714653
0.714648
0.714643
0.714639
0.714634
0.714629
0.714624
0.714619
0.714613
0.714608
0.714603
0.714597
0.714592
0.714586
0.71458
0.714574
0.714568
0.714562
0.714556
0.71455
0.714544
0.714537
0.714531
0.714525
0.714518
0.714511
0.714505
0.714498
0.714491
0.714484
0.714478
0.714471
0.714464
0.714457
0.714449
0.714442
0.714435
0.714428
0.714421
0.714413
0.714406
0.714398
0.714391
0.714383
0.714376
0.714368
0.714361
0.714353
0.714345
0.714337
0.71433
0.714322
0.714314
0.714306
0.714298
0.714291
0.712741
0.71271
0.712683
0.712661
0.712641
0.712624
0.712611
0.7126
0.712592
0.712587
0.712584
0.712584
0.712586
0.712591
0.712597
0.712605
0.712615
0.712627
0.71264
0.712655
0.712671
0.712688
0.712707
0.712727
0.712749
0.712772
0.712795
0.71282
0.712846
0.712873
0.712901
0.71293
0.71296
0.712991
0.713023
0.713055
0.713088
0.713122
0.713157
0.713191
0.713227
0.713263
0.713299
0.713335
0.713371
0.713408
0.713444
0.713481
0.713517
0.713553
0.713589
0.713624
0.71366
0.713694
0.713728
0.713762
0.713795
0.713827
0.713859
0.71389
0.71392
0.71395
0.713979
0.714008
0.714035
0.714062
0.714088
0.714114
0.714139
0.714163
0.714187
0.71421
0.714232
0.714254
0.714275
0.714295
0.714315
0.714335
0.714354
0.714372
0.71439
0.714407
0.714423
0.71444
0.714455
0.71447
0.714485
0.714499
0.714513
0.714526
0.714539
0.714551
0.714562
0.714574
0.714584
0.714595
0.714604
0.714614
0.714622
0.714631
0.714639
0.714646
0.714653
0.71466
0.714666
0.714672
0.714677
0.714682
0.714686
0.71469
0.714694
0.714697
0.7147
0.714703
0.714705
0.714707
0.714708
0.71471
0.71471
0.714711
0.714711
0.714711
0.714711
0.714711
0.71471
0.714709
0.714708
0.714706
0.714705
0.714703
0.7147
0.714698
0.714696
0.714693
0.71469
0.714687
0.714684
0.71468
0.714677
0.714673
0.714669
0.714665
0.714661
0.714657
0.714653
0.714648
0.714644
0.714639
0.714634
0.714629
0.714624
0.714619
0.714614
0.714608
0.714603
0.714597
0.714592
0.714586
0.71458
0.714574
0.714568
0.714562
0.714556
0.71455
0.714544
0.714537
0.714531
0.714525
0.714518
0.714511
0.714505
0.714498
0.714491
0.714485
0.714478
0.714471
0.714464
0.714457
0.71445
0.714442
0.714435
0.714428
0.714421
0.714413
0.714406
0.714398
0.714391
0.714383
0.714376
0.714368
0.714361
0.714353
0.714345
0.714337
0.71433
0.714322
0.714314
0.714306
0.714298
0.714291
0.712747
0.712714
0.712685
0.71266
0.712639
0.712621
0.712606
0.712595
0.712587
0.712582
0.712579
0.712579
0.712581
0.712586
0.712592
0.7126
0.71261
0.712622
0.712635
0.71265
0.712666
0.712684
0.712703
0.712723
0.712745
0.712767
0.712791
0.712816
0.712842
0.712869
0.712897
0.712926
0.712956
0.712987
0.713018
0.713051
0.713084
0.713117
0.713152
0.713187
0.713222
0.713258
0.713294
0.71333
0.713367
0.713403
0.71344
0.713476
0.713513
0.713549
0.713585
0.71362
0.713656
0.71369
0.713725
0.713758
0.713791
0.713824
0.713856
0.713887
0.713918
0.713947
0.713977
0.714005
0.714033
0.71406
0.714086
0.714112
0.714137
0.714162
0.714185
0.714208
0.714231
0.714253
0.714274
0.714295
0.714315
0.714334
0.714353
0.714371
0.714389
0.714407
0.714423
0.71444
0.714455
0.714471
0.714485
0.714499
0.714513
0.714526
0.714539
0.714551
0.714563
0.714574
0.714585
0.714595
0.714605
0.714614
0.714623
0.714631
0.714639
0.714647
0.714654
0.71466
0.714667
0.714672
0.714678
0.714682
0.714687
0.714691
0.714695
0.714698
0.714701
0.714703
0.714706
0.714708
0.714709
0.71471
0.714711
0.714712
0.714712
0.714712
0.714712
0.714711
0.714711
0.71471
0.714708
0.714707
0.714705
0.714703
0.714701
0.714699
0.714696
0.714693
0.714691
0.714688
0.714684
0.714681
0.714677
0.714674
0.71467
0.714666
0.714662
0.714657
0.714653
0.714649
0.714644
0.714639
0.714634
0.714629
0.714624
0.714619
0.714614
0.714609
0.714603
0.714598
0.714592
0.714586
0.714581
0.714575
0.714569
0.714563
0.714557
0.71455
0.714544
0.714538
0.714531
0.714525
0.714518
0.714512
0.714505
0.714498
0.714492
0.714485
0.714478
0.714471
0.714464
0.714457
0.71445
0.714443
0.714435
0.714428
0.714421
0.714413
0.714406
0.714399
0.714391
0.714384
0.714376
0.714368
0.714361
0.714353
0.714345
0.714338
0.71433
0.714322
0.714314
0.714306
0.714298
0.714291
)
;

boundaryField
{
    inlet
    {
        type            zeroGradient;
    }
    outlet
    {
        type            fixedValue;
        value           uniform 0.714286;