/*--------------------------------*- C++ -*----------------------------------*\
| =========                 |                                                 |
| \\      /  F ield         | OpenFOAM: The Open Source CFD Toolbox           |
|  \\    /   O peration     | Version:  4.1                                   |
|   \\  /    A nd           | Web:      www.OpenFOAM.org                      |
|    \\/     M anipulation  |                                                 |
\*---------------------------------------------------------------------------*/
FoamFile
{
    version     2.0;
    format      ascii;
    class       volVectorField;
    location    "445";
    object      U;
}
// * * * * * * * * * * * * * * * * * * * * * * * * * * * * * * * * * * * * * //

dimensions      [0 1 -1 0 0 0 0];

internalField   nonuniform List<vector> 
3264
(
(-2.6119e-06 -5.15104e-07 0)
(-0.000133038 3.05285e-05 0)
(-0.000389656 4.86333e-05 0)
(-0.000677037 5.09657e-05 0)
(-0.000979249 5.26901e-05 0)
(-0.00128572 5.20946e-05 0)
(-0.00159115 5.33991e-05 0)
(-0.00189695 5.4051e-05 0)
(-0.00219859 5.51707e-05 0)
(-0.00249687 5.58216e-05 0)
(-0.0027893 5.64175e-05 0)
(-0.00307621 5.67194e-05 0)
(-0.00335668 5.68971e-05 0)
(-0.00363099 5.69227e-05 0)
(-0.00389904 5.68826e-05 0)
(-0.00416121 5.68053e-05 0)
(-0.00441781 5.67491e-05 0)
(-0.00466936 5.67551e-05 0)
(-0.00491637 5.68711e-05 0)
(-0.00515945 5.7139e-05 0)
(-0.00539922 5.76001e-05 0)
(-0.00563628 5.82912e-05 0)
(-0.00587121 5.92438e-05 0)
(-0.00610451 6.04815e-05 0)
(-0.00633655 6.20172e-05 0)
(-0.00656757 6.38499e-05 0)
(-0.00679756 6.59613e-05 0)
(-0.00702627 6.83126e-05 0)
(-0.00725312 7.08412e-05 0)
(-0.0074772 7.34592e-05 0)
(-0.00769716 7.6052e-05 0)
(-0.00791128 7.84791e-05 0)
(-0.00811736 8.05771e-05 0)
(-0.0083128 8.2164e-05 0)
(-0.00849457 8.3046e-05 0)
(-0.00865928 8.30254e-05 0)
(-0.00880322 8.19103e-05 0)
(-0.00892244 7.95243e-05 0)
(-0.00901287 7.57161e-05 0)
(-0.00907035 7.0368e-05 0)
(-0.00909084 6.34033e-05 0)
(-0.00907042 5.47909e-05 0)
(-0.00900547 4.45489e-05 0)
(-0.00889277 3.27446e-05 0)
(-0.00872955 1.94938e-05 0)
(-0.0085136 4.95736e-06 0)
(-0.00824335 -1.06635e-05 0)
(-0.00791788 -2.71328e-05 0)
(-0.00753701 -4.41865e-05 0)
(-0.00710127 -6.15392e-05 0)
(-0.00661195 -7.8892e-05 0)
(-0.00607108 -9.59395e-05 0)
(-0.0054814 -0.000112377 0)
(-0.00484635 -0.000127909 0)
(-0.00416999 -0.000142252 0)
(-0.003457 -0.000155148 0)
(-0.00271257 -0.000166362 0)
(-0.00194235 -0.000175694 0)
(-0.00115235 -0.000182984 0)
(-0.0003489 -0.000188109 0)
(0.000461522 -0.000190997 0)
(0.00127233 -0.00019162 0)
(0.00207694 -0.00019 0)
(0.00286892 -0.00018621 0)
(0.00364203 -0.000180367 0)
(0.00439038 -0.000172634 0)
(0.00510849 -0.000163213 0)
(0.00579138 -0.000152339 0)
(0.00643468 -0.000140274 0)
(0.00703463 -0.000127297 0)
(0.00758819 -0.000113695 0)
(0.00809303 -9.97572e-05 0)
(0.00854755 -8.57612e-05 0)
(0.00895089 -7.19685e-05 0)
(0.00930288 -5.86155e-05 0)
(0.00960403 -4.59081e-05 0)
(0.00985543 -3.40173e-05 0)
(0.0100587 -2.30766e-05 0)
(0.0102161 -1.31813e-05 0)
(0.01033 -4.38909e-06 0)
(0.0104034 3.27731e-06 0)
(0.0104391 9.82675e-06 0)
(0.0104406 1.52951e-05 0)
(0.010411 1.97402e-05 0)
(0.0103538 2.32365e-05 0)
(0.0102721 2.587e-05 0)
(0.0101691 2.77335e-05 0)
(0.0100479 2.89219e-05 0)
(0.00991144 2.9529e-05 0)
(0.00976234 2.96445e-05 0)
(0.00960316 2.9352e-05 0)
(0.0094362 2.87273e-05 0)
(0.00926359 2.78381e-05 0)
(0.00908722 2.67434e-05 0)
(0.00890881 2.54937e-05 0)
(0.0087299 2.41315e-05 0)
(0.00855184 2.26921e-05 0)
(0.00837583 2.12043e-05 0)
(0.00820289 1.96913e-05 0)
(0.00803394 1.81715e-05 0)
(0.00786974 1.66595e-05 0)
(0.00771094 1.51668e-05 0)
(0.00755808 1.37026e-05 0)
(0.00741161 1.22742e-05 0)
(0.00727188 1.08877e-05 0)
(0.00713916 9.54832e-06 0)
(0.00701365 8.26069e-06 0)
(0.00689547 7.02891e-06 0)
(0.0067847 5.85668e-06 0)
(0.00668136 4.74723e-06 0)
(0.00658541 3.70323e-06 0)
(0.0064968 2.72669e-06 0)
(0.00641541 1.81882e-06 0)
(0.00634111 9.79941e-07 0)
(0.00627375 2.09387e-07 0)
(0.00621315 -4.94466e-07 0)
(0.00615912 -1.13418e-06 0)
(0.00611147 -1.71315e-06 0)
(0.00606999 -2.23548e-06 0)
(0.00603446 -2.70585e-06 0)
(0.00600468 -3.12927e-06 0)
(0.00598043 -3.51099e-06 0)
(0.0059615 -3.8563e-06 0)
(0.00594771 -4.17039e-06 0)
(0.00593886 -4.45827e-06 0)
(0.00593478 -4.72465e-06 0)
(0.00593528 -4.97395e-06 0)
(0.00594023 -5.21023e-06 0)
(0.00594947 -5.43724e-06 0)
(0.00596287 -5.65843e-06 0)
(0.00598033 -5.87697e-06 0)
(0.00600174 -6.09583e-06 0)
(0.00602702 -6.31776e-06 0)
(0.00605608 -6.54538e-06 0)
(0.00608886 -6.78119e-06 0)
(0.00612531 -7.02753e-06 0)
(0.0061654 -7.28663e-06 0)
(0.00620908 -7.56056e-06 0)
(0.00625632 -7.85119e-06 0)
(0.00630712 -8.16015e-06 0)
(0.00636144 -8.48875e-06 0)
(0.00641928 -8.83789e-06 0)
(0.0064806 -9.20801e-06 0)
(0.00654539 -9.59897e-06 0)
(0.0066136 -1.001e-05 0)
(0.0066852 -1.04395e-05 0)
(0.00676011 -1.08853e-05 0)
(0.00683826 -1.1344e-05 0)
(0.00691953 -1.18116e-05 0)
(0.0070038 -1.22831e-05 0)
(0.0070909 -1.27527e-05 0)
(0.00718063 -1.32135e-05 0)
(0.00727276 -1.36583e-05 0)
(0.00736701 -1.40791e-05 0)
(0.00746308 -1.44675e-05 0)
(0.00756062 -1.48149e-05 0)
(0.00765923 -1.51127e-05 0)
(0.00775849 -1.53526e-05 0)
(0.00785794 -1.55269e-05 0)
(0.00795708 -1.56283e-05 0)
(0.0080554 -1.5651e-05 0)
(0.00815236 -1.559e-05 0)
(0.00824742 -1.54419e-05 0)
(0.00834 -1.52046e-05 0)
(0.00842957 -1.48779e-05 0)
(0.00851557 -1.44628e-05 0)
(0.0085975 -1.39622e-05 0)
(0.00867486 -1.33802e-05 0)
(0.00874721 -1.27224e-05 0)
(0.00881414 -1.19954e-05 0)
(0.00887532 -1.12067e-05 0)
(0.00893046 -1.03645e-05 0)
(0.00897937 -9.47733e-06 0)
(0.0090219 -8.55407e-06 0)
(0.009058 -7.60352e-06 0)
(0.00908769 -6.63436e-06 0)
(0.00911105 -5.655e-06 0)
(0.00912827 -4.67351e-06 0)
(0.00913957 -3.69753e-06 0)
(0.00914525 -2.73421e-06 0)
(0.00914567 -1.79023e-06 0)
(0.00914122 -8.71661e-07 0)
(0.00913235 1.60186e-08 0)
(0.00911952 8.68027e-07 0)
(0.00910322 1.68038e-06 0)
(0.00908394 2.44999e-06 0)
(0.00906217 3.17498e-06 0)
(0.0090384 3.85454e-06 0)
(0.0090131 4.49027e-06 0)
(0.00898668 5.08431e-06 0)
(0.00895954 5.64553e-06 0)
(0.008932 6.1773e-06 0)
(0.00890438 6.70957e-06 0)
(0.00887665 7.2251e-06 0)
(0.00884939 7.83936e-06 0)
(0.00882113 8.39602e-06 0)
(0.00879533 9.23932e-06 0)
(0.008762 1.02743e-05 0)
(0.00874323 9.81877e-06 0)
(0.00869042 1.74862e-05 0)
(-8.34203e-05 0.000136232 0)
(-0.000583401 0.000379164 0)
(-0.00131262 0.000518481 0)
(-0.00208842 0.000562895 0)
(-0.00286985 0.000584298 0)
(-0.00364019 0.000586539 0)
(-0.00438624 0.000587126 0)
(-0.00511104 0.000581211 0)
(-0.00580756 0.000573228 0)
(-0.0064782 0.000562207 0)
(-0.0071205 0.000549988 0)
(-0.00773617 0.000536815 0)
(-0.00832517 0.000523478 0)
(-0.008889 0.000510285 0)
(-0.00942856 0.000497599 0)
(-0.00994524 0.000485631 0)
(-0.0104402 0.000474562 0)
(-0.0109146 0.000464511 0)
(-0.0113696 0.000455552 0)
(-0.0118061 0.00044771 0)
(-0.0122248 0.000440958 0)
(-0.0126262 0.000435205 0)
(-0.0130104 0.000430292 0)
(-0.0133774 0.000425984 0)
(-0.0137263 0.000421959 0)
(-0.0140563 0.000417811 0)
(-0.0143655 0.000413046 0)
(-0.014652 0.000407087 0)
(-0.0149129 0.000399284 0)
(-0.015145 0.000388931 0)
(-0.0153445 0.000375285 0)
(-0.0155071 0.000357591 0)
(-0.015628 0.000335114 0)
(-0.0157022 0.000307166 0)
(-0.0157245 0.00027314 0)
(-0.0156895 0.00023254 0)
(-0.0155919 0.000185005 0)
(-0.0154266 0.000130329 0)
(-0.0151886 6.84791e-05 0)
(-0.0148736 -3.99199e-07 0)
(-0.0144777 -7.59808e-05 0)
(-0.0139975 -0.000157766 0)
(-0.0134304 -0.00024509 0)
(-0.0127748 -0.00033714 0)
(-0.0120296 -0.000432975 0)
(-0.0111946 -0.000531544 0)
(-0.0102708 -0.000631708 0)
(-0.00925983 -0.000732267 0)
(-0.00816418 -0.000831979 0)
(-0.00698733 -0.000929583 0)
(-0.00573359 -0.00102382 0)
(-0.00440806 -0.00111346 0)
(-0.00301662 -0.00119731 0)
(-0.00156587 -0.00127425 0)
(-6.3046e-05 -0.00134322 0)
(0.00148401 -0.00140327 0)
(0.00306694 -0.00145357 0)
(0.00467698 -0.00149341 0)
(0.006305 -0.00152222 0)
(0.00794164 -0.00153959 0)
(0.00957738 -0.00154528 0)
(0.0112027 -0.00153919 0)
(0.0128081 -0.00152145 0)
(0.0143843 -0.00149232 0)
(0.0159223 -0.00145227 0)
(0.0174135 -0.00140193 0)
(0.01885 -0.00134207 0)
(0.0202241 -0.00127363 0)
(0.0215292 -0.00119766 0)
(0.0227593 -0.0011153 0)
(0.0239092 -0.00102776 0)
(0.0249746 -0.000936324 0)
(0.0259523 -0.000842252 0)
(0.0268398 -0.000746811 0)
(0.0276354 -0.000651218 0)
(0.0283388 -0.000556623 0)
(0.0289499 -0.000464085 0)
(0.0294699 -0.000374557 0)
(0.0299007 -0.000288865 0)
(0.0302445 -0.000207708 0)
(0.0305045 -0.000131647 0)
(0.0306843 -6.1107e-05 0)
(0.0307879 3.61701e-06 0)
(0.0308198 6.23552e-05 0)
(0.0307845 0.000115051 0)
(0.0306869 0.000161748 0)
(0.0305321 0.000202577 0)
(0.0303251 0.000237742 0)
(0.0300711 0.000267501 0)
(0.029775 0.000292158 0)
(0.0294417 0.000312047 0)
(0.0290762 0.00032752 0)
(0.0286829 0.000338938 0)
(0.0282665 0.000346662 0)
(0.0278311 0.000351048 0)
(0.0273807 0.000352438 0)
(0.0269191 0.000351161 0)
(0.0264499 0.000347527 0)
(0.0259764 0.000341829 0)
(0.0255016 0.000334338 0)
(0.0250284 0.000325306 0)
(0.0245593 0.000314967 0)
(0.0240967 0.000303535 0)
(0.0236427 0.000291206 0)
(0.0231992 0.000278158 0)
(0.022768 0.000264554 0)
(0.0223504 0.00025054 0)
(0.0219478 0.000236245 0)
(0.0215613 0.000221787 0)
(0.0211919 0.000207269 0)
(0.0208402 0.000192778 0)
(0.0205069 0.000178392 0)
(0.0201925 0.000164178 0)
(0.0198972 0.000150189 0)
(0.0196213 0.000136473 0)
(0.0193648 0.000123067 0)
(0.0191277 0.000110001 0)
(0.01891 9.72966e-05 0)
(0.0187113 8.49715e-05 0)
(0.0185316 7.30356e-05 0)
(0.0183703 6.14937e-05 0)
(0.0182273 5.03451e-05 0)
(0.018102 3.95844e-05 0)
(0.0179941 2.92013e-05 0)
(0.0179032 1.9182e-05 0)
(0.0178287 9.50898e-06 0)
(0.0177703 1.61879e-07 0)
(0.0177275 -8.8818e-06 0)
(0.0176998 -1.76462e-05 0)
(0.0176869 -2.61564e-05 0)
(0.0176883 -3.44379e-05 0)
(0.0177036 -4.25161e-05 0)
(0.0177325 -5.04159e-05 0)
(0.0177746 -5.81609e-05 0)
(0.0178295 -6.57732e-05 0)
(0.0178971 -7.32729e-05 0)
(0.0179769 -8.06774e-05 0)
(0.0180687 -8.80014e-05 0)
(0.0181722 -9.52559e-05 0)
(0.0182872 -0.000102448 0)
(0.0184134 -0.000109579 0)
(0.0185506 -0.000116648 0)
(0.0186984 -0.000123645 0)
(0.0188567 -0.000130556 0)
(0.0190251 -0.000137359 0)
(0.0192033 -0.000144028 0)
(0.0193909 -0.000150527 0)
(0.0195875 -0.000156815 0)
(0.0197927 -0.000162841 0)
(0.020006 -0.000168553 0)
(0.0202268 -0.000173887 0)
(0.0204545 -0.000178778 0)
(0.0206882 -0.000183157 0)
(0.0209274 -0.000186949 0)
(0.0211711 -0.00019008 0)
(0.0214183 -0.000192475 0)
(0.0216681 -0.000194064 0)
(0.0219194 -0.000194778 0)
(0.022171 -0.000194555 0)
(0.0224217 -0.000193341 0)
(0.0226702 -0.000191092 0)
(0.0229153 -0.000187779 0)
(0.0231555 -0.000183382 0)
(0.0233895 -0.000177902 0)
(0.023616 -0.000171352 0)
(0.0238337 -0.000163766 0)
(0.0240412 -0.000155196 0)
(0.0242374 -0.000145711 0)
(0.024421 -0.0001354 0)
(0.0245911 -0.000124367 0)
(0.0247466 -0.000112731 0)
(0.0248869 -0.000100625 0)
(0.0250113 -8.81921e-05 0)
(0.0251193 -7.55826e-05 0)
(0.0252108 -6.29498e-05 0)
(0.0252856 -5.04474e-05 0)
(0.0253438 -3.82251e-05 0)
(0.025386 -2.64254e-05 0)
(0.0254125 -1.51803e-05 0)
(0.0254242 -4.60786e-06 0)
(0.025422 5.18936e-06 0)
(0.0254069 1.41268e-05 0)
(0.0253803 2.21387e-05 0)
(0.0253433 2.9179e-05 0)
(0.0252975 3.52216e-05 0)
(0.0252443 4.02599e-05 0)
(0.0251853 4.43073e-05 0)
(0.0251219 4.73962e-05 0)
(0.0250555 4.95802e-05 0)
(0.0249876 5.09296e-05 0)
(0.0249194 5.15479e-05 0)
(0.0248521 5.15379e-05 0)
(0.0247866 5.10971e-05 0)
(0.0247237 5.02931e-05 0)
(0.0246639 4.96715e-05 0)
(0.0246072 4.87102e-05 0)
(0.0245549 4.94993e-05 0)
(0.0245014 4.95832e-05 0)
(0.0244612 4.99117e-05 0)
(0.0243913 6.50733e-05 0)
(-0.000179104 0.000645558 0)
(-0.00104439 0.00125521 0)
(-0.00217076 0.00153483 0)
(-0.0033101 0.00157714 0)
(-0.00440112 0.00157349 0)
(-0.00543329 0.00153167 0)
(-0.00639102 0.00148984 0)
(-0.00728546 0.00143959 0)
(-0.00811332 0.00138885 0)
(-0.00888284 0.00133602 0)
(-0.00959546 0.00128372 0)
(-0.0102564 0.00123219 0)
(-0.0108683 0.00118237 0)
(-0.0114345 0.00113452 0)
(-0.0119573 0.00108894 0)
(-0.0124391 0.0010457 0)
(-0.0128816 0.00100479 0)
(-0.0132861 0.000966113 0)
(-0.0136538 0.000929459 0)
(-0.0139851 0.000894532 0)
(-0.0142804 0.00086093 0)
(-0.0145394 0.000828139 0)
(-0.0147613 0.000795528 0)
(-0.0149451 0.000762346 0)
(-0.0150892 0.000727728 0)
(-0.0151915 0.0006907 0)
(-0.0152494 0.000650199 0)
(-0.0152601 0.000605097 0)
(-0.0152202 0.000554232 0)
(-0.0151261 0.000496445 0)
(-0.0149738 0.000430619 0)
(-0.0147592 0.000355724 0)
(-0.0144783 0.000270861 0)
(-0.0141269 0.000175296 0)
(-0.013701 6.84994e-05 0)
(-0.0131968 -4.98262e-05 0)
(-0.0126108 -0.000179728 0)
(-0.01194 -0.000320992 0)
(-0.0111819 -0.000473136 0)
(-0.0103344 -0.00063542 0)
(-0.00939607 -0.000806858 0)
(-0.00836629 -0.000986233 0)
(-0.00724498 -0.00117212 0)
(-0.00603281 -0.00136293 0)
(-0.0047312 -0.00155691 0)
(-0.0033423 -0.00175219 0)
(-0.00186899 -0.0019468 0)
(-0.000314893 -0.00213874 0)
(0.00131567 -0.00232596 0)
(0.00301766 -0.00250639 0)
(0.00478539 -0.00267803 0)
(0.00661253 -0.00283889 0)
(0.00849214 -0.0029871 0)
(0.0104167 -0.00312086 0)
(0.0123784 -0.00323853 0)
(0.0143685 -0.00333861 0)
(0.0163785 -0.00341979 0)
(0.0183991 -0.00348098 0)
(0.0204211 -0.00352129 0)
(0.022435 -0.00354009 0)
(0.0244312 -0.00353704 0)
(0.0264004 -0.00351205 0)
(0.0283334 -0.00346533 0)
(0.030221 -0.00339739 0)
(0.0320548 -0.00330902 0)
(0.0338266 -0.0032013 0)
(0.0355289 -0.00307557 0)
(0.0371547 -0.00293339 0)
(0.0386979 -0.00277656 0)
(0.0401531 -0.00260702 0)
(0.0415158 -0.00242685 0)
(0.0427822 -0.0022382 0)
(0.0439495 -0.00204325 0)
(0.0450156 -0.0018442 0)
(0.0459795 -0.00164316 0)
(0.0468406 -0.00144216 0)
(0.0475993 -0.00124313 0)
(0.0482567 -0.0010478 0)
(0.0488143 -0.000857762 0)
(0.0492744 -0.000674396 0)
(0.0496395 -0.000498891 0)
(0.0499129 -0.000332234 0)
(0.0500979 -0.000175212 0)
(0.0501984 -2.84216e-05 0)
(0.0502183 0.00010772 0)
(0.0501618 0.000232961 0)
(0.0500334 0.000347199 0)
(0.0498374 0.000450465 0)
(0.0495784 0.000542902 0)
(0.049261 0.000624749 0)
(0.0488898 0.000696327 0)
(0.0484693 0.000758017 0)
(0.0480041 0.00081025 0)
(0.0474985 0.000853493 0)
(0.0469571 0.000888237 0)
(0.0463841 0.000914988 0)
(0.0457837 0.000934257 0)
(0.0451601 0.000946557 0)
(0.0445173 0.000952398 0)
(0.0438591 0.000952279 0)
(0.0431892 0.000946689 0)
(0.0425114 0.000936108 0)
(0.0418291 0.000920998 0)
(0.0411456 0.00090181 0)
(0.0404642 0.000878979 0)
(0.0397879 0.000852924 0)
(0.0391196 0.00082405 0)
(0.0384619 0.000792746 0)
(0.0378176 0.00075938 0)
(0.0371887 0.000724306 0)
(0.0365777 0.000687856 0)
(0.0359864 0.000650343 0)
(0.0354165 0.000612056 0)
(0.0348697 0.000573263 0)
(0.0343473 0.000534208 0)
(0.0338504 0.000495109 0)
(0.03338 0.000456162 0)
(0.0329369 0.000417535 0)
(0.0325217 0.000379375 0)
(0.0321347 0.000341804 0)
(0.0317762 0.000304921 0)
(0.0314463 0.000268806 0)
(0.031145 0.000233516 0)
(0.0308721 0.000199092 0)
(0.0306273 0.000165558 0)
(0.0304104 0.000132924 0)
(0.0302208 0.000101187 0)
(0.0300581 7.03324e-05 0)
(0.0299218 4.03385e-05 0)
(0.0298113 1.1175e-05 0)
(0.029726 -1.71934e-05 0)
(0.0296653 -4.48062e-05 0)
(0.0296286 -7.17049e-05 0)
(0.0296152 -9.79317e-05 0)
(0.0296246 -0.000123528 0)
(0.029656 -0.000148534 0)
(0.0297089 -0.000172983 0)
(0.0297827 -0.000196908 0)
(0.0298767 -0.000220329 0)
(0.0299904 -0.000243264 0)
(0.030123 -0.000265716 0)
(0.0302741 -0.00028768 0)
(0.0304429 -0.000309138 0)
(0.0306289 -0.000330059 0)
(0.0308314 -0.000350397 0)
(0.0310497 -0.000370091 0)
(0.0312831 -0.000389067 0)
(0.0315308 -0.000407234 0)
(0.031792 -0.000424486 0)
(0.0320659 -0.000440705 0)
(0.0323516 -0.00045576 0)
(0.0326479 -0.000469506 0)
(0.0329541 -0.000481794 0)
(0.0332687 -0.000492464 0)
(0.0335908 -0.000501355 0)
(0.033919 -0.000508305 0)
(0.0342519 -0.000513156 0)
(0.0345882 -0.000515754 0)
(0.0349263 -0.000515961 0)
(0.0352646 -0.00051365 0)
(0.0356016 -0.000508717 0)
(0.0359356 -0.000501078 0)
(0.0362648 -0.000490682 0)
(0.0365875 -0.000477505 0)
(0.0369021 -0.000461561 0)
(0.0372066 -0.000442901 0)
(0.0374995 -0.000421618 0)
(0.0377791 -0.000397846 0)
(0.0380437 -0.000371764 0)
(0.0382919 -0.000343591 0)
(0.0385222 -0.000313589 0)
(0.0387334 -0.000282061 0)
(0.0389244 -0.000249343 0)
(0.0390943 -0.000215802 0)
(0.0392424 -0.000181827 0)
(0.0393681 -0.000147828 0)
(0.0394712 -0.000114218 0)
(0.0395519 -8.14122e-05 0)
(0.0396102 -4.98137e-05 0)
(0.0396469 -1.98051e-05 0)
(0.0396627 8.2609e-06 0)
(0.0396588 3.40706e-05 0)
(0.0396365 5.73569e-05 0)
(0.0395973 7.7906e-05 0)
(0.0395431 9.55622e-05 0)
(0.0394758 0.000110231 0)
(0.0393975 0.000121883 0)
(0.0393102 0.000130552 0)
(0.0392162 0.000136335 0)
(0.0391176 0.000139395 0)
(0.0390166 0.000139961 0)
(0.038915 0.000138318 0)
(0.0388148 0.000134852 0)
(0.0387175 0.000129938 0)
(0.0386244 0.000124321 0)
(0.0385366 0.000117985 0)
(0.0384544 0.000113448 0)
(0.0383777 0.000108151 0)
(0.0383109 0.000105608 0)
(0.0382263 0.000120609 0)
(-0.000306014 0.0012627 0)
(-0.00151846 0.00231733 0)
(-0.00287415 0.00272664 0)
(-0.0041431 0.00273798 0)
(-0.00524395 0.00266761 0)
(-0.00622588 0.00254025 0)
(-0.00707496 0.00241347 0)
(-0.00782472 0.00228086 0)
(-0.00847656 0.00215343 0)
(-0.00904705 0.00202977 0)
(-0.00954125 0.00191223 0)
(-0.00996787 0.00180043 0)
(-0.0103315 0.00169452 0)
(-0.0106369 0.00159407 0)
(-0.0108875 0.00149868 0)
(-0.0110858 0.0014078 0)
(-0.0112337 0.00132087 0)
(-0.0113326 0.00123724 0)
(-0.0113831 0.00115623 0)
(-0.0113855 0.00107705 0)
(-0.0113395 0.000998867 0)
(-0.0112444 0.000920719 0)
(-0.0110992 0.000841563 0)
(-0.0109022 0.000760255 0)
(-0.0106519 0.000675562 0)
(-0.0103459 0.000586181 0)
(-0.00998208 0.000490758 0)
(-0.00955779 0.000387927 0)
(-0.00907036 0.000276342 0)
(-0.00851705 0.00015472 0)
(-0.00789507 2.18904e-05 0)
(-0.00720173 -0.000123166 0)
(-0.00643444 -0.000281272 0)
(-0.00559083 -0.000453012 0)
(-0.00466878 -0.000638708 0)
(-0.00366648 -0.000838389 0)
(-0.00258252 -0.00105178 0)
(-0.00141589 -0.00127829 0)
(-0.000166057 -0.00151704 0)
(0.00116703 -0.00176681 0)
(0.00258288 -0.00202613 0)
(0.00408048 -0.00229327 0)
(0.00565822 -0.00256626 0)
(0.00731395 -0.00284292 0)
(0.0090449 -0.00312091 0)
(0.0108477 -0.00339776 0)
(0.0127185 -0.00367086 0)
(0.0146527 -0.00393758 0)
(0.0166451 -0.00419521 0)
(0.0186902 -0.00444106 0)
(0.0207815 -0.00467246 0)
(0.0229125 -0.00488682 0)
(0.0250756 -0.00508165 0)
(0.0272633 -0.00525458 0)
(0.0294672 -0.00540344 0)
(0.031679 -0.00552624 0)
(0.0338896 -0.00562127 0)
(0.0360902 -0.00568706 0)
(0.0382715 -0.00572249 0)
(0.0404244 -0.00572677 0)
(0.0425396 -0.00569947 0)
(0.0446084 -0.00564057 0)
(0.0466219 -0.00555047 0)
(0.0485721 -0.00542995 0)
(0.0504511 -0.00528024 0)
(0.0522519 -0.00510295 0)
(0.0539682 -0.00490004 0)
(0.0555943 -0.00467383 0)
(0.0571255 -0.00442692 0)
(0.058558 -0.00416212 0)
(0.0598889 -0.00388241 0)
(0.061116 -0.00359088 0)
(0.0622383 -0.00329064 0)
(0.0632554 -0.00298476 0)
(0.0641676 -0.00267623 0)
(0.0649762 -0.00236786 0)
(0.0656827 -0.00206231 0)
(0.0662895 -0.00176197 0)
(0.0667993 -0.00146899 0)
(0.0672152 -0.00118526 0)
(0.0675404 -0.000912366 0)
(0.0677785 -0.000651639 0)
(0.0679332 -0.000404131 0)
(0.0680084 -0.000170642 0)
(0.0680078 4.82602e-05 0)
(0.0679353 0.000252222 0)
(0.0677948 0.000441078 0)
(0.0675901 0.000614826 0)
(0.0673248 0.000773603 0)
(0.0670026 0.000917661 0)
(0.0666272 0.00104735 0)
(0.066202 0.00116307 0)
(0.0657304 0.00126532 0)
(0.0652159 0.00135459 0)
(0.0646616 0.00143143 0)
(0.0640709 0.00149639 0)
(0.0634469 0.00155002 0)
(0.0627927 0.00159287 0)
(0.0621114 0.0016255 0)
(0.0614061 0.00164845 0)
(0.0606798 0.00166224 0)
(0.0599355 0.0016674 0)
(0.0591763 0.00166443 0)
(0.058405 0.00165383 0)
(0.0576247 0.00163609 0)
(0.0568383 0.0016117 0)
(0.0560488 0.00158114 0)
(0.0552591 0.00154489 0)
(0.0544721 0.00150342 0)
(0.0536907 0.00145722 0)
(0.0529176 0.00140675 0)
(0.0521555 0.00135249 0)
(0.0514072 0.00129491 0)
(0.0506751 0.00123448 0)
(0.0499617 0.00117164 0)
(0.0492692 0.00110685 0)
(0.0485998 0.00104053 0)
(0.0479555 0.000973079 0)
(0.0473381 0.000904889 0)
(0.046749 0.000836312 0)
(0.0461898 0.000767675 0)
(0.0456615 0.000699269 0)
(0.0451652 0.000631355 0)
(0.0447017 0.000564155 0)
(0.0442716 0.000497861 0)
(0.0438752 0.000432628 0)
(0.0435127 0.000368581 0)
(0.0431843 0.000305815 0)
(0.0428899 0.0002444 0)
(0.0426292 0.000184379 0)
(0.0424018 0.000125778 0)
(0.0422075 6.86042e-05 0)
(0.0420455 1.28511e-05 0)
(0.0419153 -4.14972e-05 0)
(0.0418163 -9.44636e-05 0)
(0.0417477 -0.000146075 0)
(0.0417086 -0.000196358 0)
(0.0416984 -0.000245337 0)
(0.0417162 -0.000293032 0)
(0.041761 -0.000339454 0)
(0.041832 -0.000384602 0)
(0.0419283 -0.000428464 0)
(0.0420488 -0.00047101 0)
(0.0421927 -0.000512197 0)
(0.042359 -0.000551958 0)
(0.0425465 -0.000590211 0)
(0.0427543 -0.000626851 0)
(0.0429812 -0.000661751 0)
(0.0432261 -0.000694767 0)
(0.0434879 -0.000725732 0)
(0.0437653 -0.000754464 0)
(0.0440571 -0.000780763 0)
(0.0443619 -0.000804416 0)
(0.0446784 -0.000825201 0)
(0.0450051 -0.000842889 0)
(0.0453406 -0.00085725 0)
(0.0456833 -0.000868057 0)
(0.0460317 -0.00087509 0)
(0.0463841 -0.000878144 0)
(0.0467388 -0.000877034 0)
(0.0470942 -0.000871598 0)
(0.0474484 -0.000861707 0)
(0.0477996 -0.000847269 0)
(0.0481461 -0.000828234 0)
(0.0484861 -0.0008046 0)
(0.0488178 -0.000776417 0)
(0.0491394 -0.000743792 0)
(0.049449 -0.000706892 0)
(0.0497452 -0.000665947 0)
(0.0500261 -0.000621249 0)
(0.0502903 -0.000573156 0)
(0.0505363 -0.000522086 0)
(0.0507629 -0.000468517 0)
(0.0509687 -0.000412982 0)
(0.0511528 -0.000356064 0)
(0.0513144 -0.000298384 0)
(0.0514528 -0.000240594 0)
(0.0515677 -0.000183366 0)
(0.0516588 -0.00012738 0)
(0.0517262 -7.33068e-05 0)
(0.0517703 -2.17952e-05 0)
(0.0517916 2.65423e-05 0)
(0.0517911 7.1146e-05 0)
(0.0517699 0.000111523 0)
(0.0517295 0.000147259 0)
(0.0516714 0.000178033 0)
(0.0515975 0.000203625 0)
(0.0515098 0.000223924 0)
(0.0514106 0.000238934 0)
(0.0513022 0.000248778 0)
(0.0511868 0.0002537 0)
(0.0510668 0.00025407 0)
(0.0509445 0.000250384 0)
(0.0508221 0.00024327 0)
(0.0507015 0.000233549 0)
(0.0505845 0.000221969 0)
(0.0504725 0.000210546 0)
(0.0503669 0.000198303 0)
(0.0502688 0.000190519 0)
(0.0501623 0.000196937 0)
(-0.000405449 0.00247215 0)
(-0.00172039 0.00380011 0)
(-0.0029892 0.00414584 0)
(-0.00405229 0.00389535 0)
(-0.00482856 0.00362335 0)
(-0.0054288 0.00332214 0)
(-0.0058497 0.00305962 0)
(-0.00615062 0.00281465 0)
(-0.00634049 0.00259229 0)
(-0.00644511 0.00238626 0)
(-0.00647254 0.00219537 0)
(-0.00643425 0.00201711 0)
(-0.00633549 0.0018498 0)
(-0.00618163 0.00169178 0)
(-0.00597563 0.0015416 0)
(-0.00571994 0.0013979 0)
(-0.0054159 0.00125941 0)
(-0.00506429 0.00112492 0)
(-0.00466529 0.000993216 0)
(-0.0042186 0.000863083 0)
(-0.00372353 0.000733279 0)
(-0.00317903 0.000602518 0)
(-0.00258377 0.00046946 0)
(-0.00193618 0.000332717 0)
(-0.00123449 0.000190857 0)
(-0.000476824 4.24235e-05 0)
(0.0003388 -0.00011404 0)
(0.00121438 -0.000279957 0)
(0.00215191 -0.000456682 0)
(0.00315328 -0.000645459 0)
(0.00422028 -0.000847378 0)
(0.00535451 -0.00106333 0)
(0.00655738 -0.00129398 0)
(0.00783001 -0.0015397 0)
(0.00917324 -0.00180059 0)
(0.0105876 -0.00207641 0)
(0.0120732 -0.00236659 0)
(0.0136299 -0.00267024 0)
(0.0152569 -0.00298612 0)
(0.0169532 -0.00331265 0)
(0.0187174 -0.00364799 0)
(0.0205473 -0.00398997 0)
(0.0224406 -0.0043362 0)
(0.0243942 -0.00468403 0)
(0.0264047 -0.00503064 0)
(0.0284681 -0.00537303 0)
(0.0305797 -0.00570809 0)
(0.0327346 -0.0060326 0)
(0.0349271 -0.00634329 0)
(0.037151 -0.00663691 0)
(0.0393998 -0.00691019 0)
(0.0416662 -0.00715996 0)
(0.0439427 -0.00738316 0)
(0.0462211 -0.0075769 0)
(0.0484931 -0.0077385 0)
(0.0507501 -0.00786555 0)
(0.052983 -0.00795594 0)
(0.0551831 -0.00800792 0)
(0.0573411 -0.00802017 0)
(0.0594483 -0.00799181 0)
(0.061496 -0.00792245 0)
(0.063476 -0.00781222 0)
(0.0653806 -0.00766181 0)
(0.0672026 -0.00747244 0)
(0.0689356 -0.0072459 0)
(0.0705742 -0.00698446 0)
(0.0721139 -0.00669091 0)
(0.073551 -0.00636842 0)
(0.0748831 -0.00602054 0)
(0.0761086 -0.00565107 0)
(0.0772269 -0.00526399 0)
(0.0782385 -0.00486336 0)
(0.0791447 -0.00445325 0)
(0.0799474 -0.00403762 0)
(0.0806492 -0.00362025 0)
(0.0812535 -0.00320471 0)
(0.0817637 -0.00279425 0)
(0.0821839 -0.00239181 0)
(0.0825181 -0.00199996 0)
(0.0827705 -0.00162092 0)
(0.0829456 -0.00125651 0)
(0.0830474 -0.000908228 0)
(0.0830801 -0.000577218 0)
(0.0830478 -0.000264309 0)
(0.0829544 2.99501e-05 0)
(0.0828034 0.000305263 0)
(0.0825983 0.000561554 0)
(0.0823425 0.000798929 0)
(0.082039 0.00101765 0)
(0.0816908 0.0012181 0)
(0.0813005 0.00140076 0)
(0.0808708 0.00156618 0)
(0.0804039 0.00171495 0)
(0.0799023 0.00184772 0)
(0.0793681 0.00196512 0)
(0.0788033 0.00206779 0)
(0.07821 0.00215638 0)
(0.07759 0.00223151 0)
(0.0769452 0.00229378 0)
(0.0762776 0.00234376 0)
(0.0755889 0.00238202 0)
(0.0748809 0.00240908 0)
(0.0741556 0.00242545 0)
(0.0734148 0.0024316 0)
(0.0726603 0.00242802 0)
(0.0718943 0.00241515 0)
(0.0711186 0.00239344 0)
(0.0703353 0.00236334 0)
(0.0695466 0.00232528 0)
(0.0687547 0.00227972 0)
(0.0679617 0.00222709 0)
(0.06717 0.00216786 0)
(0.066382 0.0021025 0)
(0.0655999 0.00203149 0)
(0.0648263 0.00195533 0)
(0.0640634 0.00187451 0)
(0.0633136 0.00178955 0)
(0.0625794 0.00170096 0)
(0.061863 0.00160927 0)
(0.0611665 0.00151497 0)
(0.0604922 0.00141858 0)
(0.0598421 0.00132058 0)
(0.0592179 0.00122143 0)
(0.0586214 0.0011216 0)
(0.0580542 0.00102148 0)
(0.0575176 0.000921472 0)
(0.0570128 0.000821912 0)
(0.0565407 0.000723114 0)
(0.0561023 0.000625354 0)
(0.0556979 0.000528868 0)
(0.0553282 0.000433857 0)
(0.0549933 0.000340489 0)
(0.0546933 0.000248902 0)
(0.0544281 0.000159206 0)
(0.0541975 7.14885e-05 0)
(0.054001 -1.41812e-05 0)
(0.0538383 -9.77484e-05 0)
(0.0537086 -0.000179168 0)
(0.0536112 -0.000258398 0)
(0.0535454 -0.000335399 0)
(0.0535103 -0.000410126 0)
(0.0535049 -0.000482527 0)
(0.0535282 -0.000552538 0)
(0.053579 -0.000620081 0)
(0.0536563 -0.000685058 0)
(0.0537589 -0.000747355 0)
(0.0538855 -0.000806835 0)
(0.0540348 -0.00086334 0)
(0.0542055 -0.000916688 0)
(0.0543962 -0.000966679 0)
(0.0546056 -0.00101309 0)
(0.0548321 -0.00105568 0)
(0.0550743 -0.0010942 0)
(0.0553307 -0.00112838 0)
(0.0555997 -0.00115795 0)
(0.0558796 -0.00118263 0)
(0.0561689 -0.00120215 0)
(0.056466 -0.00121626 0)
(0.056769 -0.0012247 0)
(0.0570764 -0.00122726 0)
(0.0573865 -0.00122374 0)
(0.0576974 -0.00121399 0)
(0.0580075 -0.0011979 0)
(0.0583151 -0.0011754 0)
(0.0586185 -0.00114648 0)
(0.0589159 -0.00111122 0)
(0.0592058 -0.00106972 0)
(0.0594865 -0.0010222 0)
(0.0597564 -0.000968918 0)
(0.0600142 -0.000910229 0)
(0.0602583 -0.000846563 0)
(0.0604874 -0.000778427 0)
(0.0607003 -0.000706405 0)
(0.0608958 -0.000631151 0)
(0.061073 -0.000553388 0)
(0.061231 -0.000473895 0)
(0.0613691 -0.000393501 0)
(0.0614866 -0.000313074 0)
(0.0615833 -0.000233501 0)
(0.0616589 -0.000155683 0)
(0.0617133 -8.05093e-05 0)
(0.0617469 -8.84508e-06 0)
(0.0617599 5.84887e-05 0)
(0.061753 0.000120734 0)
(0.0617271 0.000177213 0)
(0.0616832 0.000227349 0)
(0.0616225 0.000270679 0)
(0.0615466 0.000306871 0)
(0.0614569 0.000335735 0)
(0.0613555 0.000357235 0)
(0.0612441 0.000371501 0)
(0.0611247 0.000378827 0)
(0.0609995 0.000379693 0)
(0.0608706 0.000374756 0)
(0.06074 0.000364896 0)
(0.0606097 0.000351161 0)
(0.0604816 0.000335211 0)
(0.0603578 0.00031742 0)
(0.0602388 0.000304245 0)
(0.0601194 0.000295772 0)
(-0.000694249 0.00309595 0)
(-0.00209276 0.00472525 0)
(-0.00255397 0.00495478 0)
(-0.00278933 0.00450783 0)
(-0.00262009 0.0040355 0)
(-0.00236558 0.00356873 0)
(-0.00196356 0.00316446 0)
(-0.00149818 0.0028059 0)
(-0.00096025 0.00248856 0)
(-0.000374822 0.00220377 0)
(0.000256739 0.00194487 0)
(0.000925783 0.00170696 0)
(0.00163046 0.00148562 0)
(0.00236772 0.00127766 0)
(0.0031368 0.00108021 0)
(0.00393699 0.000890992 0)
(0.00476854 0.000707928 0)
(0.00563196 0.000529211 0)
(0.00652822 0.000353141 0)
(0.00745856 0.000178125 0)
(0.00842446 2.60791e-06 0)
(0.0094276 -0.000174934 0)
(0.0104698 -0.000356018 0)
(0.0115529 -0.000542155 0)
(0.0126789 -0.000734849 0)
(0.0138497 -0.000935578 0)
(0.0150673 -0.00114578 0)
(0.0163334 -0.00136682 0)
(0.0176498 -0.00159997 0)
(0.019018 -0.00184635 0)
(0.0204392 -0.0021069 0)
(0.0219147 -0.00238236 0)
(0.0234451 -0.00267321 0)
(0.0250311 -0.00297964 0)
(0.0266727 -0.00330152 0)
(0.0283699 -0.00363842 0)
(0.0301221 -0.00398953 0)
(0.0319285 -0.00435369 0)
(0.0337877 -0.0047294 0)
(0.035698 -0.0051148 0)
(0.0376572 -0.0055077 0)
(0.0396627 -0.00590562 0)
(0.0417113 -0.00630575 0)
(0.0437996 -0.00670506 0)
(0.0459233 -0.00710026 0)
(0.0480779 -0.00748787 0)
(0.0502581 -0.00786427 0)
(0.0524583 -0.00822569 0)
(0.0546723 -0.00856832 0)
(0.0568932 -0.0088883 0)
(0.0591139 -0.00918178 0)
(0.0613267 -0.00944503 0)
(0.0635235 -0.00967441 0)
(0.0656957 -0.00986653 0)
(0.0678347 -0.0100182 0)
(0.0699315 -0.0101267 0)
(0.0719773 -0.0101896 0)
(0.0739632 -0.0102049 0)
(0.0758806 -0.0101712 0)
(0.0777213 -0.0100878 0)
(0.0794777 -0.00995448 0)
(0.0811428 -0.00977181 0)
(0.0827108 -0.00954102 0)
(0.0841765 -0.00926405 0)
(0.0855361 -0.00894353 0)
(0.0867869 -0.00858275 0)
(0.0879275 -0.00818553 0)
(0.0889577 -0.00775622 0)
(0.0898786 -0.0072995 0)
(0.0906922 -0.00682032 0)
(0.0914017 -0.00632377 0)
(0.092011 -0.00581491 0)
(0.0925249 -0.00529873 0)
(0.0929484 -0.00477997 0)
(0.0932872 -0.00426306 0)
(0.0935469 -0.00375207 0)
(0.0937332 -0.00325062 0)
(0.0938517 -0.00276188 0)
(0.093908 -0.00228855 0)
(0.0939072 -0.00183283 0)
(0.0938541 -0.00139651 0)
(0.0937532 -0.000980906 0)
(0.0936085 -0.000586982 0)
(0.0934238 -0.000215331 0)
(0.0932022 0.000133759 0)
(0.0929466 0.00046026 0)
(0.0926597 0.000764368 0)
(0.0923437 0.00104646 0)
(0.0920004 0.00130705 0)
(0.0916317 0.00154676 0)
(0.091239 0.0017663 0)
(0.0908236 0.00196641 0)
(0.0903866 0.00214789 0)
(0.089929 0.00231151 0)
(0.0894517 0.00245805 0)
(0.0889555 0.00258829 0)
(0.0884412 0.00270296 0)
(0.0879094 0.00280275 0)
(0.0873608 0.00288831 0)
(0.0867961 0.00296028 0)