/*--------------------------------*- C++ -*----------------------------------*\
| =========                 |                                                 |
| \\      /  F ield         | OpenFOAM: The Open Source CFD Toolbox           |
|  \\    /   O peration     | Version:  4.1                                   |
|   \\  /    A nd           | Web:      www.OpenFOAM.org                      |
|    \\/     M anipulation  |                                                 |
\*---------------------------------------------------------------------------*/
FoamFile
{
    version     2.0;
    format      ascii;
    class       volVectorField;
    location    "0.0117";
    object      U;
}
// * * * * * * * * * * * * * * * * * * * * * * * * * * * * * * * * * * * * * //

dimensions      [0 1 -1 0 0 0 0];

internalField   nonuniform List<vector> 
441
(
(-0.000131379 0.000121349 0)
(-0.000587401 0.00030333 0)
(-0.00117011 0.000437639 0)
(-0.00181056 0.000499083 0)
(-0.00244859 0.00050135 0)
(-0.00304021 0.000461964 0)
(-0.00355536 0.000394919 0)
(-0.00397405 0.000309934 0)
(-0.00428304 0.000213509 0)
(-0.00447376 0.000110136 0)
(-0.00454117 3.24105e-06 0)
(-0.0044832 -0.000104174 0)
(-0.00430072 -0.000209038 0)
(-0.00399775 -0.000307726 0)
(-0.00358213 -0.000395415 0)
(-0.00306678 -0.000465162 0)
(-0.00247192 -0.00050673 0)
(-0.00182841 -0.000505609 0)
(-0.00118148 -0.000443885 0)
(-0.000592735 -0.000307786 0)
(-0.00013238 -0.00012302 0)
(-0.000341992 0.000565781 0)
(-0.00148053 0.00136809 0)
(-0.00288787 0.00186786 0)
(-0.00440531 0.0020756 0)
(-0.00590032 0.00205781 0)
(-0.00727734 0.00188256 0)
(-0.00847117 0.00160269 0)
(-0.00943848 0.00125474 0)
(-0.0101507 0.000863174 0)
(-0.0105893 0.000444993 0)
(-0.0107435 1.32588e-05 0)
(-0.010609 -0.000420505 0)
(-0.0101877 -0.000844517 0)
(-0.00948818 -0.00124494 0)
(-0.0085275 -0.0016035 0)
(-0.00733353 -0.00189401 0)
(-0.00595002 -0.00207794 0)
(-0.0044437 -0.00210049 0)
(-0.00291261 -0.0018921 0)
(-0.00149231 -0.00138588 0)
(-0.000344175 -0.000572582 0)
(-0.00052305 0.00116994 0)
(-0.00216047 0.00276819 0)
(-0.00413949 0.00370519 0)
(-0.00624846 0.00407183 0)
(-0.00831302 0.00401144 0)
(-0.0102075 0.0036559 0)
(-0.0118458 0.00310494 0)
(-0.0131709 0.00242701 0)
(-0.0141452 0.00166781 0)
(-0.0147448 0.000859067 0)
(-0.0149555 2.50762e-05 0)
(-0.0147718 -0.000812755 0)
(-0.014196 -0.00163254 0)
(-0.0132393 -0.00240854 0)
(-0.0119236 -0.00310663 0)
(-0.0102854 -0.00367789 0)
(-0.00838229 -0.00405008 0)
(-0.00630234 -0.00411971 0)
(-0.00417458 -0.00375198 0)
(-0.00217749 -0.00280271 0)
(-0.000526444 -0.00118313 0)
(-0.000663598 0.00189914 0)
(-0.00268224 0.00442783 0)
(-0.00508958 0.00585915 0)
(-0.00763527 0.00639428 0)
(-0.0101145 0.00627232 0)
(-0.0123811 0.00570042 0)
(-0.0143357 0.00483213 0)
(-0.0159132 0.00377211 0)
(-0.0170715 0.0025899 0)
(-0.0177841 0.00133343 0)
(-0.0180356 3.91204e-05 0)
(-0.0178197 -0.0012612 0)
(-0.0171386 -0.00253495 0)
(-0.0160039 -0.00374353 0)
(-0.0144393 -0.00483531 0)
(-0.0124854 -0.00573573 0)
(-0.0102079 -0.00633415 0)
(-0.0077084 -0.00647093 0)
(-0.00513766 -0.00593421 0)
(-0.00270593 -0.00448329 0)
(-0.000668536 -0.00192029 0)
(-0.000783339 0.00273555 0)
(-0.00313287 0.00631235 0)
(-0.00591199 0.00829106 0)
(-0.00883445 0.00900355 0)
(-0.0116672 0.0088016 0)
(-0.0142463 0.00797928 0)
(-0.0164625 0.00675149 0)
(-0.0182461 0.00526352 0)
(-0.0195534 0.0036111 0)
(-0.0203579 0.00185936 0)
(-0.0206445 5.69177e-05 0)
(-0.0204064 -0.00175422 0)
(-0.0196448 -0.00353103 0)
(-0.01837 -0.00522183 0)
(-0.0166049 -0.00675629 0)
(-0.0143908 -0.00803143 0)
(-0.0117976 -0.00889318 0)
(-0.00893759 -0.00911753 0)
(-0.00598063 -0.00840309 0)
(-0.00316726 -0.00639537 0)
(-0.000790772 -0.00276724 0)
(-0.000902827 0.00368062 0)
(-0.00359046 0.00842783 0)
(-0.00675073 0.0110101 0)
(-0.0100571 0.0119084 0)
(-0.0132454 0.0116049 0)
(-0.0161333 0.0104943 0)
(-0.0186032 0.00886182 0)
(-0.0205833 0.00689867 0)
(-0.0220315 0.00472932 0)
(-0.0229232 0.00243663 0)
(-0.0232452 8.0841e-05 0)
(-0.0229907 -0.00228709 0)
(-0.0221591 -0.00461488 0)
(-0.0207575 -0.00683824 0)
(-0.0188045 -0.00886733 0)
(-0.0163393 -0.0105677 0)
(-0.0134331 -0.0117356 0)
(-0.0102074 -0.0120724 0)
(-0.00685222 -0.0111725 0)
(-0.00364223 -0.00854901 0)
(-0.000914355 -0.00372726 0)
(-0.00103867 0.00475184 0)
(-0.00411675 0.0108124 0)
(-0.00771603 0.0140618 0)
(-0.0114596 0.0151524 0)
(-0.015046 0.0147184 0)
(-0.0182727 0.0132721 0)
(-0.0210148 0.0111809 0)
(-0.0232015 0.00868867 0)
(-0.0247954 0.0059514 0)
(-0.0257779 0.00306977 0)
(-0.0261389 0.000114014 0)
(-0.0258725 -0.00285835 0)
(-0.0249753 -0.00578818 0)
(-0.0234482 -0.00860016 0)
(-0.0213024 -0.0111845 0)
(-0.0185699 -0.0133719 0)
(-0.0153201 -0.0149009 0)
(-0.011682 -0.015385 0)
(-0.00786838 -0.0142948 0)
(-0.0041958 -0.0109882 0)
(-0.0010567 -0.00482052 0)
(-0.00120437 0.00597994 0)
(-0.00476196 0.0135297 0)
(-0.00889539 0.0175197 0)
(-0.013162 0.0188036 0)
(-0.017214 0.0181966 0)
(-0.0208264 0.0163519 0)
(-0.0238695 0.0137345 0)
(-0.0262785 0.0106493 0)
(-0.0280266 0.00728677 0)
(-0.0291046 0.00376475 0)
(-0.0295095 0.000160424 0)
(-0.0292368 -0.00346627 0)
(-0.0282788 -0.0070535 0)
(-0.0266269 -0.010518 0)
(-0.0242794 -0.0137308 0)
(-0.0212547 -0.0164837 0)
(-0.0176142 -0.0184479 0)
(-0.0134915 -0.0191305 0)
(-0.00912457 -0.0178526 0)
(-0.00488284 -0.0137846 0)
(-0.00123246 -0.00608165 0)
(-0.00141213 0.00740797 0)
(-0.00557202 0.0166658 0)
(-0.0103663 0.0214796 0)
(-0.015265 0.0229462 0)
(-0.0198628 0.022103 0)
(-0.0239113 0.0197755 0)
(-0.0272814 0.0165465 0)
(-0.0299228 0.0127925 0)
(-0.0318268 0.0087414 0)
(-0.0330014 0.00452593 0)
(-0.033454 0.000225084 0)
(-0.0331834 -0.00410537 0)
(-0.0321759 -0.00840767 0)
(-0.0304089 -0.0125962 0)
(-0.0278595 -0.0165249 0)
(-0.0245233 -0.0199437 0)
(-0.0204433 -0.022444 0)
(-0.0157506 -0.0234027 0)
(-0.0107098 -0.0219543 0)
(-0.00575615 -0.0170364 0)
(-0.00145559 -0.00755948 0)
(-0.00167391 0.00909275 0)
(-0.00659273 0.0203304 0)
(-0.0122026 0.026057 0)
(-0.0178569 0.0276746 0)
(-0.0230804 0.0265003 0)
(-0.0276037 0.0235755 0)
(-0.0313092 0.0196278 0)
(-0.0341737 0.0151174 0)
(-0.0362196 0.0103113 0)
(-0.0374809 0.00535269 0)
(-0.0379819 0.000314061 0)
(-0.0377263 -0.00476289 0)
(-0.036693 -0.00983482 0)
(-0.034839 -0.0148228 0)
(-0.0321105 -0.0195694 0)
(-0.0284653 -0.0237811 0)
(-0.023912 -0.026955 0)
(-0.0185656 -0.0283062 0)
(-0.0127132 -0.0267317 0)
(-0.00687121 -0.0208697 0)
(-0.00174054 -0.00931936 0)
(-0.0020002 0.0111077 0)
(-0.0078658 0.0246588 0)
(-0.014465 0.031384 0)
(-0.0209963 0.0330829 0)
(-0.0269035 0.031436 0)
(-0.0319059 0.0277606 0)
(-0.0359161 0.0229626 0)
(-0.0389584 0.0175987 0)
(-0.0411032 0.0119745 0)
(-0.0424226 0.006235 0)
(-0.0429653 0.000434012 0)
(-0.0427431 -0.00541515 0)
(-0.0417258 -0.0112984 0)
(-0.0398436 -0.0171576 0)
(-0.0369984 -0.0228349 0)
(-0.0330912 -0.027995 0)
(-0.0280713 -0.0320274 0)
(-0.0220134 -0.0339456 0)
(-0.0152137 -0.0323372 0)
(-0.00828203 -0.0254427 0)
(-0.00210111 -0.0114471 0)
(-0.00239445 0.0135449 0)
(-0.00940843 0.0298101 0)
(-0.0171613 0.037597 0)
(-0.024651 0.0392443 0)
(-0.0312368 0.0369178 0)
(-0.0366495 0.0322905 0)
(-0.0408626 0.0264866 0)
(-0.0439764 0.0201702 0)
(-0.0461303 0.0136795 0)
(-0.0474491 0.0071471 0)
(-0.048014 0.00059068 0)
(-0.0478487 -0.00602384 0)
(-0.0469131 -0.0127316 0)
(-0.0451044 -0.0195159 0)
(-0.0422673 -0.0262365 0)
(-0.0382222 -0.032527 0)
(-0.0328253 -0.0376588 0)
(-0.0260713 -0.0403983 0)
(-0.0182341 -0.0389274 0)
(-0.0100184 -0.0309428 0)
(-0.00254439 -0.0140521 0)
(-0.002839 0.0165127 0)
(-0.0111619 0.0359511 0)
(-0.0201513 0.0448019 0)
(-0.0285598 0.0461655 0)
(-0.035679 0.0428661 0)
(-0.0412957 0.0370346 0)
(-0.0454906 0.0300547 0)
(-0.0484749 0.0227015 0)
(-0.0504798 0.0153299 0)
(-0.0516953 0.00803856 0)
(-0.052242 0.000785592 0)
(-0.0521589 -0.0065335 0)
(-0.0513976 -0.0140276 0)
(-0.0498202 -0.0217485 0)
(-0.0472044 -0.0296024 0)
(-0.0432681 -0.0372149 0)
(-0.0377339 -0.0437423 0)
(-0.0304587 -0.0476591 0)
(-0.0216327 -0.0466202 0)
(-0.0120281 -0.0375666 0)
(-0.00305553 -0.0172645 0)
(-0.00326653 0.0201195 0)
(-0.0128867 0.0432051 0)
(-0.0229598 0.0529945 0)
(-0.0319729 0.0536963 0)
(-0.0392106 0.0490324 0)
(-0.0445922 0.041708 0)
(-0.048365 0.0333965 0)
(-0.0508858 0.0249688 0)
(-0.0524924 0.0167667 0)
(-0.0534445 0.00882339 0)
(-0.0539026 0.00101043 0)
(-0.0539231 -0.00687172 0)
(-0.0534537 -0.0150317 0)
(-0.0523279 -0.0236212 0)
(-0.0502596 -0.0326327 0)
(-0.0468546 -0.0417271 0)
(-0.0416673 -0.0499737 0)
(-0.0343448 -0.0555313 0)
(-0.0248922 -0.055394 0)
(-0.0140605 -0.0454556 0)
(-0.00356684 -0.0212171 0)
(-0.00350768 0.0244301 0)
(-0.0139732 0.051537 0)
(-0.0244545 0.0619016 0)
(-0.0332311 0.0613736 0)
(-0.0397174 0.0548735 0)
(-0.044076 0.0457847 0)
(-0.0467782 0.0360625 0)
(-0.0483408 0.0266257 0)
(-0.0491994 0.017752 0)
(-0.049667 0.0093705 0)
(-0.0499318 0.00123968 0)
(-0.0500641 -0.00695471 0)
(-0.0500171 -0.0155413 0)
(-0.0496164 -0.0248015 0)
(-0.0485403 -0.0348607 0)
(-0.0463063 -0.0454811 0)
(-0.0422975 -0.055718 0)
(-0.0358907 -0.063446 0)
(-0.0267647 -0.0648954 0)
(-0.0154585 -0.0545526 0)
(-0.00390208 -0.0259937 0)
(-0.0031982 0.0293728 0)
(-0.0131193 0.0605301 0)
(-0.0223457 0.0707111 0)
(-0.0291745 0.0681871 0)
(-0.0333867 0.0593924 0)
(-0.0355031 0.0484096 0)
(-0.0362302 0.037387 0)
(-0.0362016 0.0271925 0)
(-0.0358919 0.0179695 0)
(-0.0356167 0.00950388 0)
(-0.0355584 0.00142481 0)
(-0.0357897 -0.00670059 0)
(-0.0362818 -0.0153239 0)
(-0.0368913 -0.0248708 0)
(-0.0373264 -0.0356403 0)
(-0.0370996 -0.0475794 0)
(-0.035498 -0.0598594 0)
(-0.0316387 -0.0702114 0)
(-0.0247418 -0.0741249 0)
(-0.0148168 -0.0643329 0)
(-0.0036803 -0.0315216 0)
(-0.00159479 0.0345551 0)
(-0.00776681 0.0690001 0)
(-0.0124444 0.0776754 0)
(-0.0144241 0.0723076 0)
(-0.0141263 0.0610088 0)
(-0.0124329 0.0483727 0)
(-0.01016 0.0365156 0)
(-0.00790301 0.0261017 0)
(-0.00604333 0.0170651 0)
(-0.00480398 0.00902674 0)
(-0.00430457 0.00149676 0)
(-0.00459846 -0.00605135 0)
(-0.00568758 -0.0141634 0)
(-0.00751255 -0.0233895 0)
(-0.00991402 -0.0342121 0)
(-0.012561 -0.0468358 0)
(-0.0148522 -0.0607256 0)
(-0.0158387 -0.0737675 0)
(-0.0143118 -0.0810174 0)
(-0.00940249 -0.0733595 0)
(-0.00212906 -0.0373656 0)
(0.00289649 0.0389522 0)
(0.00705228 0.0744402 0)
(0.0125003 0.0796957 0)
(0.0193863 0.0709516 0)
(0.026728 0.0576364 0)
(0.033664 0.044279 0)
(0.0396637 0.0325864 0)
(0.044473 0.0228499 0)
(0.0480063 0.0147553 0)
(0.0502556 0.00778563 0)
(0.0512309 0.00138522 0)
(0.050926 -0.00500132 0)
(0.049302 -0.0119436 0)
(0.046287 -0.0200449 0)
(0.0417966 -0.0299162 0)
(0.0357927 -0.0420259 0)
(0.0284064 -0.05629 0)
(0.0201437 -0.0711851 0)
(0.0121211 -0.0820955 0)
(0.00598658 -0.0786922 0)
(0.00239388 -0.0423764 0)
(0.0145627 0.0400217 0)
(0.0415489 0.0719031 0)
(0.0648097 0.0719858 0)
(0.0843099 0.0606843 0)
(0.100058 0.0472267 0)
(0.112378 0.0350762 0)
(0.121734 0.0251429 0)
(0.128593 0.0172854 0)
(0.13335 0.0110132 0)
(0.136297 0.00577669 0)
(0.137607 0.00105958 0)
(0.137341 -0.00362177 0)
(0.135429 -0.00875547 0)
(0.131664 -0.0148763 0)
(0.125674 -0.0225823 0)
(0.116904 -0.0324727 0)
(0.104635 -0.044896 0)
(0.0881177 -0.0592675 0)
(0.0669569 -0.072442 0)
(0.041743 -0.0748957 0)
(0.0142533 -0.0437908 0)
(0.0487793 0.0334514 0)
(0.118977 0.0546207 0)
(0.165685 0.0498835 0)
(0.19651 0.0394604 0)
(0.217581 0.0294069 0)
(0.232194 0.0211682 0)
(0.242375 0.0148243 0)
(0.249393 0.0100148 0)
(0.254062 0.00629776 0)
(0.256888 0.00326832 0)
(0.258152 0.000580351 0)
(0.257955 -0.00207366 0)
(0.256227 -0.00499722 0)
(0.252705 -0.00852647 0)
(0.24686 -0.0130577 0)
(0.237769 -0.0190474 0)
(0.223903 -0.0269434 0)
(0.202762 -0.0369298 0)
(0.17045 -0.0481259 0)
(0.12075 -0.0551564 0)
(0.0488377 -0.0368086 0)
(0.182677 0.00437282 0)
(0.295703 0.00719444 0)
(0.348143 0.00997625 0)
(0.373505 0.00926845 0)
(0.387988 0.00732551 0)
(0.396905 0.00539005 0)
(0.402666 0.00379904 0)
(0.406441 0.00256476 0)
(0.408868 0.00160383 0)
(0.410304 0.000819771 0)
(0.410935 0.000124839 0)
(0.410831 -0.000559381 0)
(0.409957 -0.00130779 0)
(0.408161 -0.00219661 0)
(0.405114 -0.00330004 0)
(0.400179 -0.0046653 0)
(0.392095 -0.00623529 0)
(0.378137 -0.00766858 0)
(0.352212 -0.00797738 0)
(0.297053 -0.00599616 0)
(0.180955 -0.0070138 0)
)
;

boundaryField
{
    movingWall
    {
        type            fixedValue;
        value           uniform (0.5 0 0);
    }
    fixedWalls
    {
        type            noSlip;
    }
    frontAndBack
    {
        type            empty;
    }
}


// ************************************************************************* //
