/*--------------------------------*- C++ -*----------------------------------*\
| =========                 |                                                 |
| \\      /  F ield         | OpenFOAM: The Open Source CFD Toolbox           |
|  \\    /   O peration     | Version:  4.1                                   |
|   \\  /    A nd           | Web:      www.OpenFOAM.org                      |
|    \\/     M anipulation  |                                                 |
\*---------------------------------------------------------------------------*/
FoamFile
{
    version     2.0;
    format      ascii;
    class       volVectorField;
    location    "0.0243";
    object      U;
}
// * * * * * * * * * * * * * * * * * * * * * * * * * * * * * * * * * * * * * //

dimensions      [0 1 -1 0 0 0 0];

internalField   nonuniform List<vector> 
441
(
(-0.000104234 8.69951e-05 0)
(-0.000507296 0.000286488 0)
(-0.00110317 0.000478671 0)
(-0.00183727 0.000605743 0)
(-0.00263747 0.000659235 0)
(-0.00343284 0.000646259 0)
(-0.00416249 0.000578915 0)
(-0.00477837 0.000470052 0)
(-0.00524499 0.000331525 0)
(-0.00553806 0.000173741 0)
(-0.00564304 5.94172e-06 0)
(-0.00555413 -0.00016315 0)
(-0.00527421 -0.000324532 0)
(-0.00481558 -0.000468179 0)
(-0.00420136 -0.000582528 0)
(-0.00346733 -0.000654439 0)
(-0.00266326 -0.000669953 0)
(-0.00185273 -0.000616367 0)
(-0.00110963 -0.000486756 0)
(-0.00050828 -0.000290654 0)
(-0.000103846 -8.75893e-05 0)
(-0.000345025 0.000467585 0)
(-0.00152386 0.00135809 0)
(-0.00313866 0.00210177 0)
(-0.00505165 0.00257448 0)
(-0.00709422 0.00275748 0)
(-0.00910147 0.00267964 0)
(-0.0109308 0.002388 0)
(-0.0124686 0.00193278 0)
(-0.0136307 0.00136057 0)
(-0.014359 0.000712374 0)
(-0.0146189 2.46306e-05 0)
(-0.0143968 -0.000668261 0)
(-0.0136997 -0.0013308 0)
(-0.0125572 -0.00192344 0)
(-0.0110245 -0.0024006 0)
(-0.00918633 -0.00271061 0)
(-0.00715983 -0.00279883 0)
(-0.00509351 -0.00261586 0)
(-0.00315885 -0.00213351 0)
(-0.00152957 -0.0013747 0)
(-0.000345216 -0.000470439 0)
(-0.000598824 0.00107654 0)
(-0.00250082 0.00294093 0)
(-0.00499497 0.00438683 0)
(-0.00787496 0.00527037 0)
(-0.010904 0.0055842 0)
(-0.0138536 0.00539187 0)
(-0.0165265 0.004786 0)
(-0.0187656 0.0038639 0)
(-0.0204538 0.00271564 0)
(-0.0215109 0.00142047 0)
(-0.0218887 4.87978e-05 0)
(-0.0215681 -0.00133296 0)
(-0.0205587 -0.00265627 0)
(-0.0189012 -0.00384474 0)
(-0.0166717 -0.00481023 0)
(-0.0139875 -0.00545278 0)
(-0.0110104 -0.00566637 0)
(-0.00794604 -0.00535347 0)
(-0.00503236 -0.00445156 0)
(-0.00251403 -0.00297577 0)
(-0.000600573 -0.00108328 0)
(-0.000833173 0.0019022 0)
(-0.00339749 0.00500871 0)
(-0.00667929 0.00729762 0)
(-0.0104054 0.00864535 0)
(-0.014278 0.00908119 0)
(-0.0180176 0.00871995 0)
(-0.0213864 0.00771207 0)
(-0.0241971 0.00621155 0)
(-0.0263113 0.00435949 0)
(-0.0276349 0.00227934 0)
(-0.0281112 8.01952e-05 0)
(-0.0277173 -0.0021353 0)
(-0.0264632 -0.00426115 0)
(-0.0243952 -0.00617878 0)
(-0.0216015 -0.00775066 0)
(-0.0182197 -0.0088197 0)
(-0.0144431 -0.00921758 0)
(-0.0105203 -0.00878525 0)
(-0.0067439 -0.00740863 0)
(-0.00342347 -0.00507028 0)
(-0.000837764 -0.00191527 0)
(-0.00105403 0.00293393 0)
(-0.00424852 0.00754442 0)
(-0.008278 0.0108175 0)
(-0.0127998 0.0126796 0)
(-0.0174538 0.0132224 0)
(-0.0219128 0.0126325 0)
(-0.025905 0.0111333 0)
(-0.0292211 0.00894634 0)
(-0.0317097 0.00627116 0)
(-0.0332688 0.00328004 0)
(-0.0338372 0.000123562 0)
(-0.0333892 -0.00305743 0)
(-0.031933 -0.0061173 0)
(-0.0295152 -0.00889177 0)
(-0.0262286 -0.011188 0)
(-0.0222229 -0.0127827 0)
(-0.0177141 -0.0134323 0)
(-0.0129879 -0.0128991 0)
(-0.00838996 -0.0109959 0)
(-0.00429781 -0.00764689 0)
(-0.00106402 -0.00295788 0)
(-0.00127676 0.00417298 0)
(-0.00511322 0.0105558 0)
(-0.00990374 0.0149596 0)
(-0.015229 0.017385 0)
(-0.0206616 0.0180136 0)
(-0.0258254 0.0171277 0)
(-0.0304182 0.0150421 0)
(-0.0342146 0.0120591 0)
(-0.0370565 0.00844427 0)
(-0.03884 0.00442239 0)
(-0.0395029 0.000186451 0)
(-0.0390173 -0.00408493 0)
(-0.0373873 -0.0082066 0)
(-0.0346544 -0.0119668 0)
(-0.0309089 -0.0151121 0)
(-0.0263045 -0.0173428 0)
(-0.0210739 -0.0183243 0)
(-0.015537 -0.0177183 0)
(-0.0100956 -0.0152384 0)
(-0.00520326 -0.0107229 0)
(-0.00129644 -0.00421635 0)
(-0.00151761 0.0056366 0)
(-0.00605295 0.0140817 0)
(-0.0116662 0.0197711 0)
(-0.0178487 0.0228056 0)
(-0.0240972 0.0234883 0)
(-0.0299848 0.0222259 0)
(-0.0351818 0.0194483 0)
(-0.039453 0.0155534 0)
(-0.0426412 0.0108813 0)
(-0.044647 0.00571179 0)
(-0.0454116 0.000278986 0)
(-0.0449053 -0.00520392 0)
(-0.0431255 -0.0105152 0)
(-0.0401029 -0.0153958 0)
(-0.0359164 -0.0195275 0)
(-0.0307147 -0.0225229 0)
(-0.0247394 -0.0239365 0)
(-0.0183422 -0.0233021 0)
(-0.0119848 -0.0202005 0)
(-0.00620932 -0.0143512 0)
(-0.00155336 -0.00571412 0)
(-0.00179043 0.00735771 0)
(-0.00711973 0.0181903 0)
(-0.0136541 0.0253288 0)
(-0.0207761 0.0290088 0)
(-0.0278963 0.0296949 0)
(-0.0345354 0.0279559 0)
(-0.0403419 0.0243645 0)
(-0.0450802 0.0194329 0)
(-0.0486043 0.013584 0)
(-0.0508278 0.00715391 0)
(-0.0517008 0.000413351 0)
(-0.0511939 -0.00639662 0)
(-0.0492945 -0.0130242 0)
(-0.0460148 -0.019167 0)
(-0.0414116 -0.0244386 0)
(-0.0356156 -0.028352 0)
(-0.028866 -0.0303275 0)
(-0.0215398 -0.0297357 0)
(-0.0141617 -0.0259809 0)
(-0.00737724 -0.0186192 0)
(-0.00185102 -0.00749295 0)
(-0.00210441 0.00938246 0)
(-0.00834773 0.0229717 0)
(-0.015919 0.0317268 0)
(-0.0240665 0.0360681 0)
(-0.0321032 0.0366771 0)
(-0.0394996 0.0343326 0)
(-0.0458933 0.0297858 0)
(-0.0510631 0.0236838 0)
(-0.0548887 0.0165409 0)
(-0.0573092 0.00874737 0)
(-0.0582914 0.00060262 0)
(-0.0578087 -0.00763606 0)
(-0.0558356 -0.0156985 0)
(-0.0523571 -0.0232466 0)
(-0.0473934 -0.029827 0)
(-0.0410391 -0.0348414 0)
(-0.0335123 -0.0375486 0)
(-0.0252016 -0.0371114 0)
(-0.0166929 -0.0326992 0)
(-0.00875091 -0.0236414 0)
(-0.00220124 -0.00961081 0)
(-0.00246148 0.0117662 0)
(-0.00974296 0.0285255 0)
(-0.0184551 0.0390552 0)
(-0.0276812 0.044036 0)
(-0.0366278 0.0444427 0)
(-0.044725 0.0413273 0)
(-0.0516189 0.0356621 0)
(-0.0571253 0.0282524 0)
(-0.0611702 0.0197101 0)
(-0.0637347 0.0104739 0)
(-0.0648126 0.000858438 0)
(-0.0643845 -0.0088804 0)
(-0.0624097 -0.0184722 0)
(-0.0588359 -0.0275579 0)
(-0.0536293 -0.0356233 0)
(-0.0468239 -0.0419508 0)
(-0.0385881 -0.0456086 0)
(-0.0292965 -0.0454972 0)
(-0.0195834 -0.0404724 0)
(-0.0103451 -0.0295456 0)
(-0.00260855 -0.0121379 0)
(-0.00285222 0.0145668 0)
(-0.0112678 0.034941 0)
(-0.0211688 0.0473694 0)
(-0.0314407 0.0529048 0)
(-0.0411836 0.0529217 0)
(-0.0498101 0.0488262 0)
(-0.0570068 0.0418624 0)
(-0.0626588 0.033016 0)
(-0.0667655 0.0229987 0)
(-0.0693697 0.0122859 0)
(-0.0705055 0.0011871 0)
(-0.070167 -0.0100677 0)
(-0.0682971 -0.0212337 0)
(-0.0647973 -0.0319545 0)
(-0.05956 -0.0416702 0)
(-0.0525281 -0.0495433 0)
(-0.0437801 -0.0544244 0)
(-0.0336339 -0.0548889 0)
(-0.0227405 -0.0493767 0)
(-0.012127 -0.0364502 0)
(-0.00306545 -0.0151496 0)
(-0.00324942 0.0178352 0)
(-0.0128171 0.0422682 0)
(-0.0238331 0.0566425 0)
(-0.0349576 0.0625494 0)
(-0.0452023 0.0619082 0)
(-0.0540059 0.0565792 0)
(-0.0611449 0.0481319 0)
(-0.0666159 0.0377506 0)
(-0.0705236 0.0262401 0)
(-0.072994 0.0140922 0)
(-0.0741151 0.00158386 0)
(-0.0739021 -0.0111127 0)
(-0.0722837 -0.0238119 0)
(-0.0691091 -0.0361934 0)
(-0.06418 -0.04768 0)
(-0.0573147 -0.0573277 0)
(-0.0484502 -0.0637529 0)
(-0.0377825 -0.0651411 0)
(-0.0259184 -0.0593895 0)
(-0.0139883 -0.0444279 0)
(-0.00354515 -0.0187151 0)
(-0.00359778 0.0216006 0)
(-0.0141807 0.0504736 0)
(-0.02602 0.0666994 0)
(-0.0375413 0.0726519 0)
(-0.0477198 0.0709879 0)
(-0.0560947 0.0641379 0)
(-0.0626004 0.054046 0)
(-0.0673949 0.0420981 0)
(-0.0707192 0.0291719 0)
(-0.0728003 0.0157448 0)
(-0.0737906 0.00202589 0)
(-0.0737342 -0.0119067 0)
(-0.0725517 -0.0259664 0)
(-0.0700422 -0.0399121 0)
(-0.0659086 -0.0531937 0)
(-0.0598164 -0.064796 0)
(-0.0515044 -0.0731085 0)
(-0.0409589 -0.0758745 0)
(-0.0286383 -0.070305 0)
(-0.0157007 -0.0534501 0)
(-0.00398988 -0.0228796 0)
(-0.00379671 0.0258483 0)
(-0.0149832 0.0593778 0)
(-0.026997 0.0771246 0)
(-0.0380638 0.0826035 0)
(-0.0472306 0.0794543 0)
(-0.0542503 0.0707958 0)
(-0.0592985 0.0589714 0)
(-0.0627412 0.0455451 0)
(-0.064975 0.0314251 0)
(-0.0663327 0.0170311 0)
(-0.0670322 0.0024656 0)
(-0.0671507 -0.0123244 0)
(-0.0666119 -0.0273912 0)
(-0.0651806 -0.0426218 0)
(-0.062472 -0.0575534 0)
(-0.0579919 -0.0711661 0)
(-0.0512346 -0.0816718 0)
(-0.0418745 -0.0863602 0)
(-0.0300687 -0.0816193 0)
(-0.0168473 -0.0633055 0)
(-0.0042919 -0.0276367 0)
(-0.00366826 0.0304862 0)
(-0.014574 0.0685634 0)
(-0.0255545 0.0871378 0)
(-0.0347595 0.0913885 0)
(-0.041498 0.0862269 0)
(-0.0458863 0.075545 0)
(-0.0484199 0.0620555 0)
(-0.0496948 0.0474297 0)
(-0.0502519 0.0325357 0)
(-0.050507 0.0176819 0)
(-0.050726 0.00282749 0)
(-0.0510165 -0.0122393 0)
(-0.0513207 -0.0277394 0)
(-0.0514027 -0.0437325 0)
(-0.0508338 -0.0599141 0)
(-0.0489952 -0.0753594 0)
(-0.0451329 -0.0882159 0)
(-0.0385256 -0.0953923 0)
(-0.0288367 -0.0923786 0)
(-0.0167019 -0.0734819 0)
(-0.00425937 -0.032886 0)
(-0.00288956 0.0352883 0)
(-0.0118063 0.0772345 0)
(-0.0196925 0.0954288 0)
(-0.0249054 0.0974634 0)
(-0.0272989 0.0898015 0)
(-0.0274984 0.077089 0)
(-0.0263459 0.0622756 0)
(-0.0246235 0.0470021 0)
(-0.022948 0.031998 0)
(-0.0217547 0.0174042 0)
(-0.0213132 0.00301355 0)
(-0.0217457 -0.0115497 0)
(-0.0230302 -0.0266797 0)
(-0.0249818 -0.0426328 0)
(-0.0272128 -0.0593266 0)
(-0.0290835 -0.0760564 0)
(-0.0296784 -0.0910956 0)
(-0.0278846 -0.101182 0)
(-0.0227037 -0.100997 0)
(-0.0139963 -0.0829939 0)
(-0.00354697 -0.0383645 0)
(-0.000825126 0.0397756 0)
(-0.00453955 0.0839748 0)
(-0.00600467 0.0999393 0)
(-0.00428631 0.0986683 0)
(-7.41275e-05 0.0882941 0)
(0.00548067 0.0739691 0)
(0.0113138 0.0585929 0)
(0.0166199 0.0435696 0)
(0.020854 0.0293774 0)
(0.023674 0.0159508 0)
(0.0248778 0.00292352 0)
(0.0243592 -0.0102124 0)
(0.0220922 -0.0239882 0)
(0.018149 -0.0388379 0)
(0.0127566 -0.0549294 0)
(0.00639091 -0.071894 0)
(-0.000103636 -0.088379 0)
(-0.00543248 -0.101342 0)
(-0.00796616 -0.105059 0)
(-0.00641717 -0.0901097 0)
(-0.00148746 -0.0435108 0)
(0.00395881 0.0429788 0)
(0.0115633 0.0863602 0)
(0.021571 0.0976506 0)
(0.0336968 0.0922988 0)
(0.0465194 0.0797088 0)
(0.0587606 0.0648992 0)
(0.0695441 0.0502681 0)
(0.0783621 0.0367498 0)
(0.0849631 0.0244916 0)
(0.0892381 0.0132299 0)
(0.0911345 0.00249472 0)
(0.0906009 -0.00827655 0)
(0.0875639 -0.0196669 0)
(0.0819362 -0.032209 0)
(0.0736644 -0.0462761 0)
(0.0628288 -0.0618781 0)
(0.0498124 -0.0782607 0)
(0.0355378 -0.0931295 0)
(0.0216943 -0.10122 0)
(0.0105722 -0.0919657 0)
(0.00339681 -0.0472013 0)
(0.0155998 0.0425932 0)
(0.0461068 0.0799369 0)
(0.0741819 0.0843712 0)
(0.0993163 0.0755416 0)
(0.120989 0.0626072 0)
(0.139015 0.0493999 0)
(0.153461 0.0373562 0)
(0.164527 0.0268184 0)
(0.17246 0.0176353 0)
(0.177484 0.00943652 0)
(0.17974 0.00175816 0)
(0.179259 -0.00590088 0)
(0.17594 -0.0140514 0)
(0.169541 -0.0231901 0)
(0.159691 -0.033756 0)
(0.145915 -0.0460276 0)
(0.127723 -0.0598777 0)
(0.104783 -0.0741751 0)
(0.077322 -0.0853296 0)
(0.0466677 -0.083704 0)
(0.0153016 -0.0469091 0)
(0.0494449 0.0346665 0)
(0.122157 0.0587428 0)
(0.172555 0.0564582 0)
(0.20788 0.0474492 0)
(0.233767 0.0377012 0)
(0.25303 0.0288751 0)
(0.26733 0.0213607 0)
(0.277712 0.0150777 0)
(0.284888 0.00977718 0)
(0.289331 0.00515336 0)
(0.291317 0.000885911 0)
(0.290943 -0.00334641 0)
(0.288115 -0.00786345 0)
(0.282536 -0.0129832 0)
(0.273662 -0.0190157 0)
(0.260618 -0.0262403 0)
(0.242039 -0.034842 0)
(0.215761 -0.0447059 0)
(0.178407 -0.0547227 0)
(0.124401 -0.0595108 0)
(0.0495448 -0.0382551 0)
(0.182858 0.00464569 0)
(0.296707 0.0081959 0)
(0.350542 0.0116375 0)
(0.377741 0.0113121 0)
(0.394254 0.00945286 0)
(0.405146 0.00736344 0)
(0.412649 0.00546541 0)
(0.417831 0.0038462 0)
(0.421288 0.00247348 0)
(0.423371 0.00127662 0)
(0.424276 0.000174531 0)
(0.424075 -0.000914548 0)
(0.422729 -0.00206902 0)
(0.420071 -0.00335906 0)
(0.415766 -0.00483468 0)
(0.409194 -0.00649548 0)
(0.399164 -0.00821542 0)
(0.383098 -0.00957742 0)
(0.355129 -0.00954125 0)
(0.298278 -0.00695933 0)
(0.181134 -0.00728333 0)
)
;

boundaryField
{
    movingWall
    {
        type            fixedValue;
        value           uniform (0.5 0 0);
    }
    fixedWalls
    {
        type            noSlip;
    }
    frontAndBack
    {
        type            empty;
    }
}


// ************************************************************************* //
