/*--------------------------------*- C++ -*----------------------------------*\
| =========                 |                                                 |
| \\      /  F ield         | OpenFOAM: The Open Source CFD Toolbox           |
|  \\    /   O peration     | Version:  4.1                                   |
|   \\  /    A nd           | Web:      www.OpenFOAM.org                      |
|    \\/     M anipulation  |                                                 |
\*---------------------------------------------------------------------------*/
FoamFile
{
    version     2.0;
    format      ascii;
    class       volVectorField;
    location    "5430";
    object      U;
}
// * * * * * * * * * * * * * * * * * * * * * * * * * * * * * * * * * * * * * //

dimensions      [0 1 -1 0 0 0 0];

internalField   nonuniform List<vector> 
1275
(
(0.07641 -5.70162e-05 0)
(0.0766115 -0.000118072 0)
(0.0764734 -0.000216489 0)
(0.0767145 -0.000274997 0)
(0.076702 -0.000328125 0)
(0.0770161 -0.000420261 0)
(0.0771228 -0.00044004 0)
(0.0775455 -0.000603093 0)
(0.0777873 -0.000627118 0)
(0.0784315 -0.000854969 0)
(0.112436 -3.97456e-05 0)
(0.112616 -0.00012993 0)
(0.112484 -0.000258596 0)
(0.112671 -0.000341721 0)
(0.112622 -0.000451903 0)
(0.112852 -0.000552131 0)
(0.112874 -0.00066559 0)
(0.113168 -0.000801474 0)
(0.113242 -0.000980542 0)
(0.113586 -0.00112909 0)
(0.136447 -3.23771e-05 0)
(0.136616 -0.000149424 0)
(0.136478 -0.000281653 0)
(0.13663 -0.000400931 0)
(0.136549 -0.000519523 0)
(0.136712 -0.000662181 0)
(0.13668 -0.000777033 0)
(0.13687 -0.000962547 0)
(0.136875 -0.00109899 0)
(0.137073 -0.00131538 0)
(0.148452 -2.80696e-05 0)
(0.148612 -0.000150334 0)
(0.14846 -0.000281318 0)
(0.148579 -0.000406196 0)
(0.14846 -0.000538054 0)
(0.148557 -0.000677486 0)
(0.14846 -0.000821681 0)
(0.148547 -0.000984524 0)
(0.148447 -0.00116453 0)
(0.148509 -0.00133856 0)
(0.148453 -2.29324e-05 0)
(0.148607 -0.000147106 0)
(0.148438 -0.000258742 0)
(0.148526 -0.000392245 0)
(0.148369 -0.000507285 0)
(0.14841 -0.00065663 0)
(0.148255 -0.000778663 0)
(0.148256 -0.000948292 0)
(0.148086 -0.00108537 0)
(0.148035 -0.00125995 0)
(0.136449 -1.56963e-05 0)
(0.136598 -0.00012427 0)
(0.136407 -0.00020857 0)
(0.136467 -0.000328691 0)
(0.136271 -0.00042609 0)
(0.136259 -0.000556826 0)
(0.136045 -0.00066736 0)
(0.135969 -0.000808573 0)
(0.135717 -0.000935037 0)
(0.13557 -0.00107704 0)
(0.112439 -3.34621e-06 0)
(0.112585 -9.50777e-05 0)
(0.11237 -0.000141174 0)
(0.112403 -0.000247868 0)
(0.112171 -0.000311635 0)
(0.112114 -0.000425689 0)
(0.11185 -0.000499192 0)
(0.111708 -0.000617352 0)
(0.111392 -0.000698321 0)
(0.111163 -0.000809824 0)
(0.0764173 2.71867e-05 0)
(0.076563 -3.47829e-05 0)
(0.0763161 -3.7364e-05 0)
(0.0763447 -0.000114802 0)
(0.0760819 -0.000145495 0)
(0.0760108 -0.000224445 0)
(0.075706 -0.000265779 0)
(0.0755358 -0.000342718 0)
(0.0751681 -0.000389425 0)
(0.0748972 -0.00045952 0)
(0.0284323 6.12712e-05 0)
(0.0286344 3.07469e-05 0)
(0.0284831 4.744e-05 0)
(0.0286015 2.97355e-06 0)
(0.028415 3.19816e-08 0)
(0.0284241 -3.744e-05 0)
(0.0281873 -4.09828e-05 0)
(0.0280941 -7.09306e-05 0)
(0.0278001 -7.23487e-05 0)
(0.0276166 -9.35629e-05 0)
(0.0757516 -0.00227819 0)
(0.0764877 -0.00235948 0)
(0.0772323 -0.00244953 0)
(0.077988 -0.00254364 0)
(0.0787535 -0.00264577 0)
(0.0795326 -0.00275401 0)
(0.0803244 -0.00287063 0)
(0.0811319 -0.00299491 0)
(0.0819551 -0.0031284 0)
(0.0827962 -0.00327099 0)
(0.0836559 -0.00342388 0)
(0.084536 -0.00358734 0)
(0.0854373 -0.00376237 0)
(0.0863613 -0.00394949 0)
(0.087309 -0.00414962 0)
(0.0882816 -0.00436339 0)
(0.0892801 -0.00459171 0)
(0.0903054 -0.00483528 0)
(0.0913581 -0.00509496 0)
(0.0924389 -0.00537147 0)
(0.093548 -0.00566562 0)
(0.0946857 -0.00597807 0)
(0.0958516 -0.00630952 0)
(0.0970454 -0.00666051 0)
(0.0982659 -0.00703155 0)
(0.0995119 -0.00742296 0)
(0.100782 -0.00783494 0)
(0.102073 -0.00826748 0)
(0.103382 -0.00872034 0)
(0.104706 -0.009193 0)
(0.10604 -0.00968463 0)
(0.10738 -0.0101941 0)
(0.108719 -0.0107197 0)
(0.110052 -0.0112594 0)
(0.11137 -0.0118108 0)
(0.112666 -0.0123707 0)
(0.11393 -0.0129355 0)
(0.115155 -0.0135011 0)
(0.116328 -0.0140626 0)
(0.117441 -0.014615 0)
(0.118482 -0.0151523 0)
(0.11944 -0.0156683 0)
(0.120304 -0.0161566 0)
(0.121063 -0.0166104 0)
(0.121707 -0.0170228 0)
(0.122227 -0.0173871 0)
(0.122614 -0.0176968 0)
(0.122859 -0.0179457 0)
(0.122958 -0.0181285 0)
(0.122904 -0.0182403 0)
(0.122696 -0.0182774 0)
(0.122333 -0.0182373 0)
(0.121815 -0.0181183 0)
(0.121146 -0.0179205 0)
(0.120331 -0.0176449 0)
(0.119377 -0.0172943 0)
(0.118293 -0.0168724 0)
(0.117092 -0.0163842 0)
(0.115784 -0.015836 0)
(0.114385 -0.0152345 0)
(0.112908 -0.0145873 0)
(0.11137 -0.0139022 0)
(0.109786 -0.0131874 0)
(0.108173 -0.0124509 0)
(0.106546 -0.0117004 0)
(0.104921 -0.0109432 0)
(0.103312 -0.0101862 0)
(0.101733 -0.00943555 0)
(0.100197 -0.00869655 0)
(0.0987142 -0.00797411 0)
(0.0972953 -0.00727162 0)
(0.0959459 -0.0065931 0)
(0.0946775 -0.00593915 0)
(0.0934873 -0.0053145 0)
(0.0923914 -0.00471475 0)
(0.0913737 -0.00414962 0)
(0.090461 -0.00360353 0)
(0.0896208 -0.00310158 0)
(0.0789143 -0.00117594 0)
(0.0787259 -0.0013015 0)
(0.0792034 -0.00139027 0)
(0.0794424 -0.00149235 0)
(0.0799949 -0.0015581 0)
(0.0804406 -0.0016374 0)
(0.0810317 -0.00169018 0)
(0.0815704 -0.00174659 0)
(0.0821803 -0.0017861 0)
(0.0827607 -0.00182477 0)
(0.0833767 -0.0018532 0)
(0.0839729 -0.0018796 0)
(0.0845861 -0.00189996 0)
(0.085184 -0.00191842 0)
(0.0857885 -0.00193345 0)
(0.08638 -0.00194716 0)
(0.0869721 -0.0019591 0)
(0.0875527 -0.00197038 0)
(0.0881304 -0.00198101 0)
(0.0886979 -0.00199158 0)
(0.0892608 -0.00200229 0)
(0.0898144 -0.00201346 0)
(0.0903627 -0.00202537 0)
(0.0909028 -0.00203819 0)
(0.0914374 -0.00205222 0)
(0.0919649 -0.00206754 0)
(0.0924874 -0.00208447 0)
(0.0930037 -0.00210302 0)
(0.0935157 -0.00212357 0)
(0.0940227 -0.00214604 0)
(0.094526 -0.00217089 0)
(0.0950258 -0.00219794 0)
(0.0955225 -0.00222777 0)
(0.0960174 -0.0022601 0)
(0.0965095 -0.00229563 0)
(0.0970024 -0.002334 0)
(0.0974913 -0.00237599 0)
(0.0979861 -0.00242133 0)
(0.0984718 -0.00247051 0)
(0.0989751 -0.002524 0)
(0.0994541 -0.002581 0)
(0.0999782 -0.00264438 0)
(0.100438 -0.00270927 0)
(0.10101 -0.00278561 0)
(0.101414 -0.00285626 0)
(0.101988 -0.00294663 0)
(0.102519 -0.00303589 0)
(0.103043 -0.00313331 0)
(0.103582 -0.00323695 0)
(0.104125 -0.00334921 0)
(0.104681 -0.00346903 0)
(0.105244 -0.0035981 0)
(0.10582 -0.00373607 0)
(0.106405 -0.00388419 0)
(0.107003 -0.00404254 0)
(0.107614 -0.00421213 0)
(0.108237 -0.00439328 0)
(0.108874 -0.00458687 0)
(0.109525 -0.00479337 0)
(0.11019 -0.00501359 0)
(0.110869 -0.00524806 0)
(0.111563 -0.00549753 0)
(0.11227 -0.00576253 0)
(0.112991 -0.00604371 0)
(0.113724 -0.00634157 0)
(0.114469 -0.00665662 0)
(0.115225 -0.00698923 0)
(0.11599 -0.00733971 0)
(0.116762 -0.00770823 0)
(0.117539 -0.00809482 0)
(0.118316 -0.00849931 0)
(0.119093 -0.00892135 0)
(0.119863 -0.00936033 0)
(0.120623 -0.00981538 0)
(0.121367 -0.0102853 0)
(0.12209 -0.0107686 0)
(0.122785 -0.0112633 0)
(0.123446 -0.0117671 0)
(0.124064 -0.0122773 0)
(0.124631 -0.0127907 0)
(0.125138 -0.0133036 0)
(0.125577 -0.0138117 0)
(0.125937 -0.0143105 0)
(0.126208 -0.014795 0)
(0.126382 -0.0152596 0)
(0.126447 -0.0156985 0)
(0.126394 -0.0161058 0)
(0.126214 -0.0164751 0)
(0.125899 -0.0168003 0)
(0.125441 -0.0170754 0)
(0.124834 -0.0172946 0)
(0.124073 -0.0174527 0)
(0.123154 -0.017545 0)
(0.122076 -0.0175678 0)
(0.120839 -0.0175183 0)
(0.119446 -0.017395 0)
(0.117902 -0.0171972 0)
(0.116213 -0.016926 0)
(0.114388 -0.0165835 0)
(0.112438 -0.0161728 0)
(0.110376 -0.0156986 0)
(0.108216 -0.0151663 0)
(0.105974 -0.0145824 0)
(0.103668 -0.0139539 0)
(0.101316 -0.0132885 0)
(0.0989361 -0.0125943 0)
(0.0965479 -0.0118794 0)
(0.0941701 -0.011152 0)
(0.0918207 -0.0104197 0)
(0.089517 -0.00968994 0)
(0.0872751 -0.00896912 0)
(0.0851095 -0.00826307 0)
(0.083033 -0.00757657 0)
(0.0810569 -0.00691353 0)
(0.0791897 -0.00627703 0)
(0.0774396 -0.00566886 0)
(0.0758105 -0.00509099 0)
(0.0743082 -0.00454278 0)
(0.0729313 -0.00402643 0)
(0.0716845 -0.00353778 0)
(0.0705615 -0.00308159 0)
(0.0695654 -0.00264868 0)
(0.06869 -0.00224613 0)
(0.113674 -0.00165015 0)
(0.113779 -0.00175416 0)
(0.114008 -0.00194312 0)
(0.114166 -0.0019916 0)
(0.114436 -0.00207135 0)
(0.114645 -0.0021066 0)
(0.114924 -0.00215171 0)
(0.115163 -0.00218017 0)
(0.115444 -0.0022105 0)
(0.1157 -0.00223256 0)
(0.11598 -0.00225398 0)
(0.116244 -0.00227028 0)
(0.11652 -0.00228549 0)
(0.116786 -0.00229726 0)
(0.117057 -0.00230822 0)
(0.117321 -0.00231697 0)
(0.117586 -0.00232539 0)
(0.117844 -0.00233261 0)
(0.118102 -0.00234004 0)
(0.118354 -0.0023471 0)
(0.118604 -0.00235488 0)
(0.118849 -0.00236299 0)
(0.119092 -0.00237227 0)
(0.11933 -0.00238247 0)
(0.119566 -0.00239424 0)
(0.119798 -0.00240742 0)
(0.120028 -0.00242257 0)
(0.120254 -0.00243952 0)
(0.120478 -0.00245883 0)
(0.120699 -0.00248029 0)
(0.120919 -0.00250453 0)
(0.121137 -0.00253119 0)
(0.121354 -0.00256114 0)
(0.121568 -0.0025937 0)
(0.121784 -0.00263021 0)
(0.121997 -0.00266936 0)
(0.122212 -0.0027134 0)
(0.122423 -0.00275984 0)
(0.122641 -0.0028126 0)
(0.122851 -0.00286695 0)
(0.123074 -0.00293002 0)
(0.123283 -0.00299266 0)
(0.123511 -0.0030681 0)
(0.123723 -0.00313945 0)
(0.123951 -0.00322842 0)
(0.124176 -0.00331306 0)
(0.124404 -0.00341094 0)
(0.124634 -0.00351337 0)
(0.124869 -0.00362472 0)
(0.125106 -0.00374369 0)
(0.125347 -0.00387141 0)
(0.125591 -0.0040082 0)
(0.12584 -0.00415452 0)
(0.126091 -0.00431103 0)
(0.126346 -0.00447809 0)
(0.126604 -0.00465639 0)
(0.126865 -0.00484635 0)
(0.127128 -0.00504862 0)
(0.127393 -0.00526362 0)
(0.12766 -0.00549195 0)
(0.127927 -0.00573402 0)
(0.128193 -0.00599034 0)
(0.128456 -0.00626127 0)
(0.128716 -0.00654717 0)
(0.128971 -0.00684828 0)
(0.129218 -0.00716478 0)
(0.129455 -0.00749671 0)
(0.129678 -0.007844 0)
(0.129886 -0.00820639 0)
(0.130073 -0.00858346 0)
(0.130236 -0.00897458 0)
(0.130371 -0.00937888 0)
(0.130472 -0.00979521 0)
(0.130533 -0.0102222 0)
(0.13055 -0.0106579 0)
(0.130514 -0.0111005 0)
(0.130419 -0.0115473 0)
(0.130257 -0.0119956 0)
(0.130022 -0.0124421 0)
(0.129703 -0.012883 0)
(0.129293 -0.0133145 0)
(0.128783 -0.0137319 0)
(0.128165 -0.0141306 0)
(0.12743 -0.0145055 0)
(0.12657 -0.0148513 0)
(0.125577 -0.0151625 0)
(0.124445 -0.0154338 0)
(0.123167 -0.0156597 0)
(0.121738 -0.0158352 0)
(0.120155 -0.0159556 0)
(0.118415 -0.0160167 0)
(0.116519 -0.0160149 0)
(0.114468 -0.0159477 0)
(0.112266 -0.0158131 0)
(0.109918 -0.0156105 0)
(0.107432 -0.0153401 0)
(0.104819 -0.0150037 0)
(0.102092 -0.0146039 0)
(0.0992639 -0.0141448 0)
(0.0963529 -0.0136316 0)
(0.0933769 -0.0130706 0)
(0.0903555 -0.012469 0)
(0.0873097 -0.0118346 0)
(0.0842608 -0.0111758 0)
(0.0812304 -0.0105008 0)
(0.0782396 -0.00981799 0)
(0.075309 -0.00913512 0)
(0.0724582 -0.00845944 0)
(0.069705 -0.00779734 0)
(0.0670659 -0.00715444 0)
(0.0645547 -0.00653526 0)
(0.0621838 -0.00594353 0)
(0.0599619 -0.00538187 0)
(0.0578967 -0.00485206 0)
(0.0559913 -0.0043551 0)
(0.0542491 -0.00389084 0)
(0.0526675 -0.00345931 0)
(0.0512471 -0.00305825 0)
(0.04998 -0.00268804 0)
(0.0488654 -0.00234352 0)
(0.047892 -0.0020277 0)
(0.0470571 -0.00173077 0)
(0.0463503 -0.00146083 0)
(0.137118 -0.00154825 0)
(0.137105 -0.00167731 0)
(0.137151 -0.0018408 0)
(0.137137 -0.00193555 0)
(0.137201 -0.0020489 0)
(0.137221 -0.00212259 0)
(0.137294 -0.00220184 0)
(0.137337 -0.00225654 0)
(0.137412 -0.00231077 0)
(0.137467 -0.00234876 0)
(0.137538 -0.00238444 0)
(0.137594 -0.00240911 0)
(0.137659 -0.00243148 0)
(0.137712 -0.00244648 0)
(0.137768 -0.00245984 0)
(0.137815 -0.00246849 0)
(0.137861 -0.00247631 0)
(0.1379 -0.00248142 0)
(0.137937 -0.00248647 0)
(0.137968 -0.00249029 0)
(0.137995 -0.00249474 0)
(0.138017 -0.00249908 0)
(0.138035 -0.00250462 0)
(0.138048 -0.00251091 0)
(0.138058 -0.00251889 0)
(0.138063 -0.00252828 0)
(0.138064 -0.00253978 0)
(0.138062 -0.00255324 0)
(0.138056 -0.00256919 0)
(0.138046 -0.00258756 0)
(0.138033 -0.00260877 0)
(0.138017 -0.00263283 0)
(0.137998 -0.00266007 0)
(0.137975 -0.00269062 0)
(0.13795 -0.00272464 0)
(0.137922 -0.00276254 0)
(0.13789 -0.0028041 0)
(0.137857 -0.0028503 0)
(0.13782 -0.00290017 0)
(0.137781 -0.00295581 0)
(0.137738 -0.00301476 0)
(0.137693 -0.00308112 0)
(0.137646 -0.00315012 0)
(0.137594 -0.0032283 0)
(0.137542 -0.00330903 0)
(0.137482 -0.00339891 0)
(0.137423 -0.0034952 0)
(0.137357 -0.00359817 0)
(0.137289 -0.00370912 0)
(0.137215 -0.0038277 0)
(0.137138 -0.00395492 0)
(0.137053 -0.00409082 0)
(0.136964 -0.00423609 0)
(0.136867 -0.00439099 0)
(0.136763 -0.00455606 0)
(0.13665 -0.00473167 0)
(0.136527 -0.00491825 0)
(0.136393 -0.00511617 0)
(0.136247 -0.00532581 0)
(0.136087 -0.0055475 0)
(0.135912 -0.0057815 0)
(0.135718 -0.00602804 0)
(0.135505 -0.00628726 0)
(0.135269 -0.00655923 0)
(0.135008 -0.0068439 0)
(0.134718 -0.00714112 0)
(0.134397 -0.00745056 0)
(0.13404 -0.00777178 0)
(0.133644 -0.00810413 0)
(0.133204 -0.00844675 0)
(0.132714 -0.00879857 0)
(0.132171 -0.00915826 0)
(0.131568 -0.00952423 0)
(0.1309 -0.0098946 0)
(0.130159 -0.0102672 0)
(0.12934 -0.0106394 0)
(0.128436 -0.0110086 0)
(0.127439 -0.0113714 0)
(0.126343 -0.0117245 0)
(0.12514 -0.012064 0)
(0.123824 -0.012386 0)
(0.122386 -0.012686 0)
(0.120822 -0.0129597 0)
(0.119124 -0.0132024 0)
(0.117287 -0.0134095 0)
(0.115307 -0.0135762 0)
(0.113181 -0.0136983 0)
(0.110907 -0.0137713 0)
(0.108484 -0.0137917 0)
(0.105914 -0.0137561 0)
(0.103199 -0.0136621 0)
(0.100346 -0.0135081 0)
(0.0973612 -0.0132935 0)
(0.0942557 -0.0130187 0)
(0.0910415 -0.0126857 0)
(0.0877334 -0.0122972 0)
(0.0843482 -0.0118574 0)
(0.0809046 -0.0113716 0)
(0.0774234 -0.0108459 0)
(0.0739265 -0.0102872 0)
(0.0704371 -0.00970303 0)
(0.066979 -0.00910116 0)
(0.0635764 -0.00848947 0)
(0.0602532 -0.00787584 0)
(0.0570324 -0.00726784 0)
(0.0539355 -0.00667268 0)
(0.050982 -0.00609686 0)
(0.0481885 -0.00554612 0)
(0.0455681 -0.00502504 0)
(0.0431308 -0.00453714 0)
(0.0408819 -0.00408451 0)
(0.0388239 -0.0036681 0)
(0.0369548 -0.00328761 0)
(0.0352712 -0.0029417 0)
(0.0337648 -0.00262844 0)
(0.0324291 -0.00234487 0)
(0.0312518 -0.00208867 0)
(0.0302259 -0.00185574 0)
(0.0293369 -0.00164467 0)
(0.0285791 -0.00145038 0)
(0.0279377 -0.00127323 0)
(0.0274083 -0.00110744 0)
(0.0269786 -0.000954465 0)
(0.148384 -0.00159412 0)
(0.148329 -0.00173997 0)
(0.148229 -0.00192332 0)
(0.148136 -0.00201924 0)
(0.148047 -0.0021338 0)
(0.147942 -0.0021947 0)
(0.147849 -0.00226434 0)
(0.147737 -0.00230203 0)
(0.147634 -0.00234328 0)
(0.147515 -0.00236501 0)
(0.147399 -0.0023879 0)
(0.147272 -0.00239859 0)
(0.147144 -0.0024096 0)
(0.147007 -0.00241298 0)
(0.146868 -0.0024166 0)
(0.146721 -0.00241566 0)
(0.146571 -0.00241522 0)
(0.146415 -0.00241235 0)
(0.146255 -0.00241038 0)
(0.146089 -0.00240748 0)
(0.145919 -0.00240589 0)
(0.145744 -0.00240447 0)
(0.145564 -0.00240475 0)
(0.14538 -0.00240601 0)
(0.145191 -0.00240933 0)
(0.144998 -0.00241422 0)
(0.1448 -0.00242149 0)
(0.144597 -0.00243082 0)
(0.14439 -0.00244284 0)
(0.144178 -0.00245728 0)
(0.143961 -0.00247476 0)
(0.14374 -0.00249494 0)
(0.143513 -0.00251858 0)
(0.143282 -0.00254512 0)
(0.143045 -0.00257563 0)
(0.142803 -0.00260916 0)
(0.142555 -0.00264734 0)
(0.1423 -0.0026885 0)
(0.14204 -0.00273526 0)
(0.141773 -0.00278473 0)
(0.1415 -0.0028411 0)
(0.141218 -0.00289966 0)
(0.140929 -0.00296665 0)
(0.140632 -0.00303545 0)
(0.140325 -0.00311361 0)
(0.140009 -0.00319481 0)
(0.139684 -0.00328431 0)
(0.139346 -0.00337904 0)
(0.138998 -0.00348175 0)
(0.138635 -0.00359102 0)
(0.13826 -0.00370839 0)
(0.13787 -0.00383334 0)
(0.137463 -0.00396678 0)
(0.137039 -0.0041086 0)
(0.136596 -0.0042594 0)
(0.136133 -0.00441925 0)
(0.135647 -0.00458855 0)
(0.135137 -0.00476741 0)
(0.1346 -0.0049561 0)
(0.134035 -0.00515468 0)
(0.133438 -0.00536326 0)
(0.132808 -0.0055818 0)
(0.13214 -0.00581022 0)
(0.131433 -0.00604831 0)
(0.130682 -0.00629575 0)
(0.129884 -0.0065521 0)
(0.129035 -0.00681676 0)
(0.12813 -0.00708894 0)
(0.127166 -0.00736771 0)
(0.126137 -0.00765189 0)
(0.125039 -0.00794012 0)
(0.123865 -0.00823075 0)
(0.122612 -0.00852193 0)
(0.121273 -0.00881152 0)
(0.119842 -0.00909712 0)
(0.118314 -0.00937605 0)
(0.116683 -0.00964538 0)
(0.114943 -0.00990192 0)
(0.11309 -0.0101423 0)
(0.111116 -0.0103627 0)
(0.109019 -0.0105596 0)
(0.106793 -0.010729 0)
(0.104437 -0.0108671 0)
(0.101946 -0.0109699 0)
(0.0993214 -0.0110339 0)
(0.0965622 -0.0110556 0)
(0.0936709 -0.0110321 0)
(0.0906511 -0.0109609 0)
(0.0875086 -0.0108403 0)
(0.0842513 -0.0106693 0)
(0.0808892 -0.0104479 0)
(0.0774348 -0.0101769 0)
(0.0739028 -0.00985813 0)
(0.0703105 -0.00949438 0)
(0.0666773 -0.00908942 0)
(0.0630248 -0.00864797 0)
(0.0593769 -0.0081757 0)
(0.0557587 -0.00767915 0)
(0.0521968 -0.00716566 0)
(0.0487182 -0.00664321 0)
(0.0453494 -0.00612014 0)
(0.0421155 -0.00560484 0)
(0.0390393 -0.00510527 0)
(0.0361397 -0.00462864 0)
(0.0334311 -0.00418087 0)
(0.0309231 -0.00376641 0)
(0.0286197 -0.00338791 0)
(0.0265203 -0.00304635 0)
(0.0246197 -0.00274099 0)
(0.0229096 -0.00246986 0)
(0.0213787 -0.00222996 0)
(0.0200149 -0.00201782 0)
(0.0188045 -0.00182984 0)
(0.0177352 -0.0016624 0)
(0.0167933 -0.00151261 0)
(0.0159688 -0.00137731 0)
(0.0152492 -0.00125489 0)
(0.0146272 -0.00114239 0)
(0.0140921 -0.0010398 0)
(0.013639 -0.00094362 0)
(0.0132589 -0.000855608 0)
(0.0129483 -0.000771142 0)
(0.0127006 -0.000693582 0)
(0.147835 -0.00142525 0)
(0.147685 -0.00155168 0)
(0.147458 -0.00168793 0)
(0.147246 -0.00177566 0)
(0.147001 -0.00187525 0)
(0.146756 -0.00193599 0)
(0.146496 -0.00200428 0)
(0.14623 -0.0020447 0)
(0.145956 -0.00208852 0)
(0.145673 -0.00211306 0)
(0.145384 -0.00213857 0)
(0.145088 -0.00215103 0)
(0.144785 -0.00216346 0)
(0.144476 -0.0021673 0)
(0.144161 -0.00217096 0)
(0.14384 -0.00216924 0)
(0.143513 -0.00216761 0)
(0.143181 -0.0021629 0)
(0.142844 -0.00215872 0)
(0.142502 -0.00215314 0)
(0.142155 -0.00214853 0)
(0.141803 -0.00214374 0)
(0.141446 -0.00214035 0)
(0.141085 -0.00213765 0)
(0.140719 -0.00213672 0)
(0.140347 -0.00213715 0)
(0.139971 -0.00213967 0)
(0.13959 -0.00214405 0)
(0.139203 -0.00215082 0)
(0.138811 -0.00215985 0)
(0.138414 -0.00217153 0)
(0.13801 -0.00218584 0)
(0.137599 -0.00220304 0)
(0.137182 -0.00222322 0)
(0.136758 -0.00224652 0)
(0.136326 -0.00227319 0)
(0.135886 -0.00230317 0)
(0.135438 -0.002337 0)
(0.13498 -0.00237427 0)
(0.134512 -0.00241596 0)
(0.134034 -0.0024612 0)
(0.133545 -0.00251146 0)
(0.133044 -0.00256554 0)
(0.132529 -0.00262496 0)
(0.132001 -0.002689 0)
(0.131458 -0.0027581 0)
(0.130899 -0.00283323 0)
(0.130322 -0.00291325 0)
(0.129728 -0.00299979 0)
(0.129113 -0.00309178 0)
(0.128477 -0.00319054 0)
(0.127818 -0.00329539 0)
(0.127135 -0.00340724 0)
(0.126425 -0.00352572 0)
(0.125686 -0.00365142 0)
(0.124917 -0.00378414 0)
(0.124115 -0.00392422 0)
(0.123278 -0.00407152 0)
(0.122403 -0.00422618 0)
(0.121487 -0.00438802 0)
(0.120527 -0.00455701 0)
(0.119521 -0.00473284 0)
(0.118464 -0.00491525 0)
(0.117354 -0.00510377 0)
(0.116187 -0.0052979 0)
(0.114958 -0.00549692 0)
(0.113665 -0.00570002 0)
(0.112302 -0.00590618 0)
(0.110866 -0.00611424 0)
(0.109352 -0.00632284 0)
(0.107755 -0.00653041 0)
(0.106072 -0.00673519 0)
(0.104298 -0.00693521 0)
(0.102429 -0.00712827 0)
(0.10046 -0.007312 0)
(0.098387 -0.00748385 0)
(0.0962076 -0.00764109 0)
(0.0939182 -0.00778089 0)
(0.0915165 -0.00790032 0)
(0.089001 -0.00799643 0)
(0.086371 -0.00806629 0)
(0.083627 -0.00810707 0)
(0.0807707 -0.00811611 0)
(0.0778054 -0.00809097 0)
(0.0747361 -0.00802956 0)
(0.0715695 -0.0079302 0)
(0.0683144 -0.00779173 0)
(0.0649819 -0.00761363 0)
(0.0615854 -0.00739615 0)
(0.0581408 -0.00714039 0)
(0.0546665 -0.00684844 0)
(0.0511834 -0.00652349 0)
(0.047715 -0.00616984 0)
(0.0442862 -0.00579288 0)
(0.0409236 -0.00539906 0)
(0.0376539 -0.00499565 0)
(0.0345031 -0.0045905 0)
(0.0314953 -0.00419159 0)
(0.0286509 -0.0038066 0)
(0.0259863 -0.00344229 0)
(0.0235123 -0.00310402 0)
(0.0212345 -0.00279535 0)
(0.0191526 -0.00251786 0)
(0.0172615 -0.00227127 0)
(0.0155522 -0.00205372 0)
(0.014013 -0.00186236 0)
(0.0126303 -0.00169379 0)
(0.0113906 -0.0015447 0)
(0.0102802 -0.00141206 0)
(0.00928652 -0.00129348 0)
(0.00839766 -0.00118712 0)
(0.00760352 -0.00109163 0)
(0.00689402 -0.0010061 0)
(0.00626169 -0.000929614 0)
(0.00569825 -0.000861704 0)
(0.00519868 -0.000801201 0)
(0.00475605 -0.000747886 0)
(0.00436737 -0.000700003 0)
(0.00402663 -0.000657749 0)
(0.00373219 -0.000618783 0)
(0.00347898 -0.000583876 0)
(0.00326581 -0.000550497 0)
(0.00308917 -0.000519593 0)
(0.135264 -0.00122008 0)
(0.135024 -0.00133874 0)
(0.13468 -0.00145985 0)
(0.134369 -0.00154235 0)
(0.133996 -0.00162728 0)
(0.133635 -0.00167754 0)
(0.133235 -0.00172951 0)
(0.132837 -0.00175558 0)
(0.132413 -0.00178255 0)
(0.131987 -0.00179175 0)
(0.131543 -0.00180138 0)
(0.131095 -0.00179943 0)
(0.130634 -0.00179784 0)
(0.130169 -0.00178907 0)
(0.129695 -0.00178084 0)
(0.129217 -0.0017685 0)
(0.128731 -0.00175699 0)
(0.128243 -0.00174346 0)
(0.127748 -0.00173109 0)
(0.12725 -0.00171811 0)
(0.126747 -0.0017066 0)
(0.126241 -0.00169544 0)
(0.125731 -0.001686 0)
(0.125217 -0.00167757 0)
(0.124698 -0.00167107 0)
(0.124176 -0.00166603 0)
(0.12365 -0.0016631 0)
(0.123119 -0.00166195 0)
(0.122582 -0.00166307 0)
(0.122041 -0.0016662 0)
(0.121494 -0.00167178 0)
(0.120941 -0.00167953 0)
(0.120382 -0.00168995 0)
(0.119815 -0.00170265 0)
(0.119241 -0.00171829 0)
(0.118658 -0.00173626 0)
(0.118067 -0.00175753 0)
(0.117465 -0.00178112 0)
(0.116853 -0.00180848 0)
(0.11623 -0.00183807 0)
(0.115594 -0.001872 0)
(0.114945 -0.00190806 0)
(0.114281 -0.00194899 0)
(0.113602 -0.00199214 0)
(0.112906 -0.00204039 0)
(0.112192 -0.0020914 0)
(0.111458 -0.00214738 0)
(0.110703 -0.00220667 0)
(0.109927 -0.00227095 0)
(0.109125 -0.00233904 0)
(0.108298 -0.00241212 0)
(0.107443 -0.0024894 0)
(0.106558 -0.00257166 0)
(0.105641 -0.0026584 0)
(0.10469 -0.00275007 0)
(0.103703 -0.0028463 0)
(0.102676 -0.00294733 0)
(0.101608 -0.00305283 0)
(0.100496 -0.00316282 0)
(0.0993359 -0.00327694 0)
(0.0981262 -0.00339502 0)
(0.0968632 -0.0035166 0)
(0.0955441 -0.00364129 0)
(0.0941654 -0.00376848 0)
(0.0927241 -0.00389756 0)
(0.0912167 -0.00402772 0)
(0.0896401 -0.00415807 0)
(0.0879909 -0.00428756 0)
(0.0862661 -0.00441504 0)
(0.0844625 -0.00453918 0)
(0.0825776 -0.00465853 0)
(0.0806086 -0.00477148 0)
(0.0785534 -0.0048763 0)
(0.0764103 -0.00497113 0)
(0.0741781 -0.00505401 0)
(0.0718563 -0.00512289 0)
(0.0694452 -0.00517568 0)
(0.0669459 -0.00521029 0)
(0.0643608 -0.00522467 0)
(0.0616936 -0.00521691 0)
(0.0589493 -0.00518525 0)
(0.0561346 -0.00512822 0)
(0.0532581 -0.0050447 0)
(0.0503304 -0.00493404 0)
(0.0473641 -0.00479615 0)
(0.044374 -0.00463163 0)
(0.0413771 -0.00444185 0)
(0.0383922 -0.00422908 0)
(0.0354399 -0.00399652 0)
(0.0325417 -0.00374833 0)
(0.0297196 -0.00348945 0)
(0.0269948 -0.00322546 0)
(0.0243874 -0.00296222 0)
(0.0219146 -0.00270543 0)
(0.0195902 -0.00246021 0)
(0.0174235 -0.00223065 0)
(0.0154192 -0.00201948 0)
(0.0135772 -0.00182797 0)
(0.0118938 -0.00165592 0)
(0.010362 -0.00150197 0)
(0.00897284 -0.00136399 0)
(0.00771643 -0.00123954 0)
(0.00658196 -0.00112634 0)
(0.00555847 -0.00102268 0)
(0.00463494 -0.000927674 0)
(0.003801 -0.00084124 0)
(0.00304698 -0.000763799 0)
(0.00236462 -0.000695909 0)
(0.00174646 -0.00063778 0)
(0.00118658 -0.000589098 0)
(0.000679143 -0.00054904 0)
(0.000219676 -0.000516366 0)
(-0.000196911 -0.000489884 0)
(-0.000574184 -0.000468206 0)
(-0.000916811 -0.000450575 0)
(-0.00122745 -0.000435739 0)
(-0.0015102 -0.000423613 0)
(-0.00176677 -0.00041285 0)
(-0.00200047 -0.000404039 0)
(-0.0022123 -0.000395487 0)
(-0.00240455 -0.00038841 0)
(-0.00257801 -0.000380774 0)
(-0.00273376 -0.000374152 0)
(0.110781 -0.000896478 0)
(0.110456 -0.000979561 0)
(0.110014 -0.00105112 0)
(0.109605 -0.00110445 0)
(0.109115 -0.00115453 0)
(0.108643 -0.001185 0)
(0.108117 -0.00121532 0)
(0.107599 -0.00122954 0)
(0.107045 -0.00124418 0)
(0.106496 -0.00124701 0)
(0.105922 -0.0012501 0)
(0.10535 -0.00124512 0)
(0.104762 -0.00124027 0)
(0.104175 -0.00123024 0)
(0.103578 -0.00122043 0)
(0.102981 -0.00120755 0)
(0.102379 -0.00119511 0)
(0.101777 -0.00118112 0)
(0.10117 -0.00116785 0)
(0.100565 -0.0011541 0)
(0.0999572 -0.00114134 0)
(0.0993499 -0.00112884 0)
(0.0987408 -0.00111756 0)
(0.0981319 -0.00110706 0)
(0.0975215 -0.00109796 0)
(0.0969107 -0.00109001 0)
(0.0962981 -0.00108359 0)
(0.0956842 -0.00107857 0)
(0.095068 -0.00107521 0)
(0.0944496 -0.00107343 0)
(0.0938279 -0.00107339 0)
(0.0932027 -0.0010751 0)
(0.0925731 -0.00107861 0)
(0.0919387 -0.00108401 0)
(0.0912985 -0.00109129 0)
(0.0906518 -0.00110059 0)
(0.0899977 -0.00111181 0)
(0.0893353 -0.00112524 0)
(0.0886636 -0.00114061 0)
(0.0879817 -0.00115836 0)
(0.0872883 -0.00117811 0)
(0.0865824 -0.00120036 0)
(0.0858628 -0.00122479 0)
(0.085128 -0.00125167 0)
(0.084377 -0.0012811 0)
(0.083608 -0.00131275 0)
(0.0828198 -0.00134739 0)
(0.0820105 -0.00138414 0)
(0.081179 -0.00142397 0)
(0.0803229 -0.001466 0)
(0.0794409 -0.00151103 0)
(0.0785308 -0.00155836 0)
(0.077591 -0.00160855 0)
(0.0766191 -0.00166106 0)
(0.0756133 -0.00171619 0)
(0.0745712 -0.00177353 0)
(0.0734908 -0.00183316 0)
(0.0723696 -0.00189471 0)
(0.0712056 -0.00195808 0)
(0.0699963 -0.00202287 0)
(0.0687395 -0.00208881 0)
(0.0674329 -0.00215543 0)
(0.0660743 -0.0022223 0)
(0.0646615 -0.00228881 0)
(0.0631927 -0.00235438 0)
(0.061666 -0.00241827 0)
(0.0600798 -0.0024797 0)
(0.0584329 -0.00253778 0)
(0.0567243 -0.00259157 0)
(0.0549536 -0.00264004 0)
(0.0531208 -0.00268208 0)
(0.0512266 -0.00271655 0)
(0.0492723 -0.00274228 0)
(0.0472602 -0.00275807 0)
(0.0451935 -0.00276279 0)
(0.0430764 -0.00275534 0)
(0.0409143 -0.00273479 0)
(0.0387137 -0.00270038 0)
(0.0364827 -0.0026516 0)
(0.0342305 -0.0025883 0)
(0.0319681 -0.00251069 0)
(0.0297073 -0.00241945 0)
(0.0274613 -0.00231574 0)
(0.0252443 -0.00220121 0)
(0.0230707 -0.00207796 0)
(0.0209551 -0.00194849 0)
(0.0189114 -0.00181558 0)
(0.0169522 -0.00168208 0)
(0.0150882 -0.00155079 0)
(0.0133275 -0.00142419 0)
(0.0116761 -0.00130424 0)
(0.010137 -0.00119222 0)
(0.00871141 -0.00108854 0)
(0.00739809 -0.000992752 0)
(0.00619421 -0.000903656 0)
(0.00509525 -0.000819673 0)
(0.00409522 -0.000739413 0)
(0.00318706 -0.000662303 0)
(0.00236312 -0.000588906 0)
(0.00161578 -0.00052077 0)
(0.00093789 -0.000459751 0)
(0.000323154 -0.000407246 0)
(-0.000234033 -0.00036364 0)
(-0.000738559 -0.000328334 0)
(-0.00119513 -0.000300092 0)
(-0.00160815 -0.000277578 0)
(-0.00198232 -0.000259648 0)
(-0.00232203 -0.000245467 0)
(-0.00263198 -0.0002344 0)
(-0.00291612 -0.000225899 0)
(-0.00317855 -0.000219504 0)
(-0.00342213 -0.000214744 0)
(-0.00365006 -0.000211396 0)
(-0.00386401 -0.000209126 0)
(-0.00406647 -0.000208044 0)
(-0.00425823 -0.000207803 0)
(-0.0044413 -0.000208736 0)
(-0.00461593 -0.000210243 0)
(-0.00478371 -0.000212795 0)
(-0.00494464 -0.000215504 0)
(-0.00509971 -0.000218934 0)
(-0.00524902 -0.000222131 0)
(-0.00539278 -0.000225568 0)
(0.0744559 -0.000508086 0)
(0.0740834 -0.000561874 0)
(0.0735775 -0.000601265 0)
(0.0731197 -0.00063391 0)
(0.0725655 -0.000657471 0)
(0.0720442 -0.000670776 0)
(0.0714576 -0.000678669 0)
(0.0708941 -0.000677488 0)
(0.0702886 -0.000673332 0)
(0.0697002 -0.000662754 0)
(0.0690867 -0.00065083 0)
(0.068487 -0.000635046 0)
(0.0678739 -0.000619014 0)
(0.0672728 -0.000601095 0)
(0.0666661 -0.000583657 0)
(0.0660703 -0.000565688 0)
(0.0654739 -0.000548662 0)
(0.0648876 -0.00053196 0)
(0.0643036 -0.000516467 0)
(0.0637288 -0.000501795 0)
(0.0631579 -0.000488459 0)
(0.0625951 -0.000476205 0)
(0.0620367 -0.00046532 0)
(0.0614851 -0.000455626 0)
(0.0609377 -0.00044728 0)
(0.0603958 -0.000440146 0)
(0.0598572 -0.000434312 0)
(0.0593225 -0.00042966 0)
(0.0587901 -0.000426255 0)
(0.0582599 -0.000423976 0)
(0.0577305 -0.000422903 0)
(0.0572016 -0.000422883 0)
(0.0566719 -0.000424051 0)
(0.0561408 -0.000426186 0)
(0.0556071 -0.000429527 0)
(0.0550701 -0.000433728 0)
(0.0545285 -0.0004392 0)
(0.0539816 -0.000445399 0)
(0.053428 -0.000452976 0)
(0.0528671 -0.00046113 0)
(0.0522972 -0.000470788 0)
(0.0517177 -0.000480887 0)
(0.051127 -0.000492571 0)
(0.0505244 -0.000504651 0)
(0.0499081 -0.000518261 0)
(0.0492773 -0.000532354 0)
(0.0486304 -0.000547809 0)
(0.0479663 -0.000563805 0)
(0.0472836 -0.000581032 0)
(0.0465808 -0.00059882 0)
(0.0458568 -0.000617677 0)
(0.0451099 -0.000637067 0)
(0.044339 -0.000657318 0)
(0.0435424 -0.000678002 0)
(0.0427192 -0.000699288 0)
(0.0418676 -0.000720819 0)
(0.0409867 -0.00074263 0)
(0.040075 -0.000764395 0)
(0.0391316 -0.000786039 0)
(0.0381554 -0.000807236 0)
(0.0371457 -0.000827817 0)
(0.0361017 -0.000847439 0)
(0.0350231 -0.000865853 0)
(0.0339097 -0.00088269 0)
(0.0327616 -0.000897639 0)
(0.0315793 -0.000910309 0)
(0.0303638 -0.000920355 0)
(0.0291164 -0.000927386 0)
(0.0278391 -0.000931054 0)
(0.0265343 -0.000931007 0)
(0.0252051 -0.000926949 0)
(0.0238552 -0.000918619 0)
(0.022489 -0.000905842 0)
(0.0211114 -0.000888519 0)
(0.019728 -0.000866674 0)
(0.0183451 -0.000840452 0)
(0.0169693 -0.000810153 0)
(0.0156074 -0.000776232 0)
(0.0142665 -0.000739312 0)
(0.0129537 -0.000700165 0)
(0.0116758 -0.000659682 0)
(0.0104393 -0.000618808 0)
(0.00925014 -0.000578455 0)
(0.00811345 -0.000539371 0)
(0.00703364 -0.000502007 0)
(0.00601417 -0.000466402 0)
(0.00505752 -0.000432136 0)
(0.00416511 -0.000398414 0)
(0.0033373 -0.000364318 0)
(0.00257337 -0.000329168 0)
(0.0018716 -0.000292884 0)
(0.00122941 -0.000256166 0)
(0.000643556 -0.000220376 0)
(0.000110443 -0.000187141 0)
(-0.000373552 -0.000157844 0)
(-0.000811767 -0.000133251 0)
(-0.00120714 -0.000113421 0)
(-0.00156227 -9.7906e-05 0)
(-0.0018798 -8.60492e-05 0)
(-0.00216267 -7.7206e-05 0)
(-0.00241446 -7.07606e-05 0)
(-0.00263913 -6.60634e-05 0)
(-0.00284082 -6.23877e-05 0)
(-0.00302323 -5.90516e-05 0)
(-0.00318967 -5.5592e-05 0)
(-0.00334259 -5.1923e-05 0)
(-0.00348428 -4.8319e-05 0)
(-0.00361638 -4.52638e-05 0)
(-0.0037408 -4.32495e-05 0)
(-0.00385882 -4.25691e-05 0)
(-0.00397213 -4.33263e-05 0)
(-0.0040816 -4.53363e-05 0)
(-0.00418864 -4.84211e-05 0)
(-0.00429364 -5.2176e-05 0)
(-0.00439783 -5.6495e-05 0)