/*--------------------------------*- C++ -*----------------------------------*\
| =========                 |                                                 |
| \\      /  F ield         | OpenFOAM: The Open Source CFD Toolbox           |
|  \\    /   O peration     | Version:  4.1                                   |
|   \\  /    A nd           | Web:      www.OpenFOAM.org                      |
|    \\/     M anipulation  |                                                 |
\*---------------------------------------------------------------------------*/
FoamFile
{
    version     2.0;
    format      ascii;
    class       volVectorField;
    location    "470";
    object      U;
}
// * * * * * * * * * * * * * * * * * * * * * * * * * * * * * * * * * * * * * //

dimensions      [0 1 -1 0 0 0 0];

internalField   nonuniform List<vector> 
3264
(
(-2.61757e-06 -5.13259e-07 0)
(-0.00013306 3.05315e-05 0)
(-0.000389686 4.86368e-05 0)
(-0.000677058 5.09715e-05 0)
(-0.00097924 5.26974e-05 0)
(-0.00128565 5.21041e-05 0)
(-0.00159097 5.34102e-05 0)
(-0.00189663 5.40635e-05 0)
(-0.00219806 5.51837e-05 0)
(-0.00249605 5.58338e-05 0)
(-0.00278809 5.64267e-05 0)
(-0.00307448 5.67219e-05 0)
(-0.00335426 5.6887e-05 0)
(-0.00362765 5.68914e-05 0)
(-0.00389451 5.68175e-05 0)
(-0.00415514 5.66895e-05 0)
(-0.00440976 5.65601e-05 0)
(-0.0046588 5.64644e-05 0)
(-0.00490267 5.64437e-05 0)
(-0.00514187 5.6533e-05 0)
(-0.0053769 5.67671e-05 0)
(-0.00560827 5.71769e-05 0)
(-0.00583645 5.77895e-05 0)
(-0.00606189 5.86259e-05 0)
(-0.00628491 5.96995e-05 0)
(-0.00650574 6.10135e-05 0)
(-0.00672443 6.25582e-05 0)
(-0.00694084 6.43084e-05 0)
(-0.00715457 6.62209e-05 0)
(-0.00736494 6.82323e-05 0)
(-0.00757097 7.02581e-05 0)
(-0.0077713 7.21921e-05 0)
(-0.00796422 7.39076e-05 0)
(-0.00814765 7.52602e-05 0)
(-0.00831915 7.60918e-05 0)
(-0.00847592 7.62367e-05 0)
(-0.00861487 7.5528e-05 0)
(-0.00873265 7.38058e-05 0)
(-0.00882574 7.09249e-05 0)
(-0.00889049 6.67629e-05 0)
(-0.00892325 6.12269e-05 0)
(-0.00892045 5.42594e-05 0)
(-0.00887869 4.58425e-05 0)
(-0.00879482 3.60001e-05 0)
(-0.00866606 2.47989e-05 0)
(-0.00849004 1.23466e-05 0)
(-0.00826492 -1.20992e-06 0)
(-0.0079894 -1.56891e-05 0)
(-0.00766281 -3.08792e-05 0)
(-0.00728509 -4.65443e-05 0)
(-0.00685688 -6.24301e-05 0)
(-0.00637945 -7.82706e-05 0)
(-0.00585476 -9.37945e-05 0)
(-0.0052854 -0.000108732 0)
(-0.0046746 -0.00012282 0)
(-0.00402612 -0.000135809 0)
(-0.0033443 -0.000147472 0)
(-0.00263391 -0.000157602 0)
(-0.00190014 -0.000166025 0)
(-0.0011485 -0.0001726 0)
(-0.000384754 -0.000177225 0)
(0.000385177 -0.000179835 0)
(0.00115531 -0.000180412 0)
(0.00191966 -0.000178977 0)
(0.0026724 -0.000175597 0)
(0.00340788 -0.000170377 0)
(0.00412076 -0.000163462 0)
(0.00480608 -0.000155031 0)
(0.00545934 -0.000145292 0)
(0.00607657 -0.000134474 0)
(0.00665437 -0.00012282 0)
(0.00718996 -0.000110584 0)
(0.00768121 -9.80174e-05 0)
(0.00812662 -8.53637e-05 0)
(0.00852537 -7.28522e-05 0)
(0.00887724 -6.06912e-05 0)
(0.00918262 -4.90631e-05 0)
(0.00944241 -3.81206e-05 0)
(0.00965805 -2.79848e-05 0)
(0.00983137 -1.87439e-05 0)
(0.00996456 -1.04543e-05 0)
(0.0100601 -3.14229e-06 0)
(0.0101207 3.19305e-06 0)
(0.0101492 8.57627e-06 0)
(0.0101485 1.30513e-05 0)
(0.0101215 1.66772e-05 0)
(0.0100713 1.95235e-05 0)
(0.0100006 2.16667e-05 0)
(0.00991211 2.31859e-05 0)
(0.00980852 2.41603e-05 0)
(0.00969226 2.46665e-05 0)
(0.0095656 2.47765e-05 0)
(0.00943065 2.45564e-05 0)
(0.00928932 2.4066e-05 0)
(0.00914336 2.3358e-05 0)
(0.00899434 2.24783e-05 0)
(0.00884365 2.14664e-05 0)
(0.00869254 2.03558e-05 0)
(0.00854211 1.91743e-05 0)
(0.0083933 1.79453e-05 0)
(0.00824697 1.6688e-05 0)
(0.00810381 1.54182e-05 0)
(0.00796444 1.41488e-05 0)
(0.00782938 1.28904e-05 0)
(0.00769905 1.16517e-05 0)
(0.00757381 1.04399e-05 0)
(0.00745393 9.26092e-06 0)
(0.00733964 8.11967e-06 0)
(0.0072311 7.02028e-06 0)
(0.00712842 5.96616e-06 0)
(0.00703168 4.96009e-06 0)
(0.0069409 4.00427e-06 0)
(0.00685608 3.10037e-06 0)
(0.0067772 2.24952e-06 0)
(0.00670418 1.4523e-06 0)
(0.00663695 7.08777e-07 0)
(0.00657541 1.84646e-08 0)
(0.00651945 -6.19634e-07 0)
(0.00646895 -1.20702e-06 0)
(0.00642375 -1.74564e-06 0)
(0.00638374 -2.23787e-06 0)
(0.00634874 -2.68645e-06 0)
(0.00631862 -3.09437e-06 0)
(0.00629322 -3.46487e-06 0)
(0.00627239 -3.80132e-06 0)
(0.00625599 -4.10718e-06 0)
(0.00624386 -4.38592e-06 0)
(0.00623586 -4.64095e-06 0)
(0.00623187 -4.87562e-06 0)
(0.00623174 -5.09314e-06 0)
(0.00623537 -5.2966e-06 0)
(0.00624263 -5.48889e-06 0)
(0.00625343 -5.67276e-06 0)
(0.00626766 -5.85076e-06 0)
(0.00628524 -6.0253e-06 0)
(0.00630608 -6.19859e-06 0)
(0.00633013 -6.37271e-06 0)
(0.0063573 -6.54958e-06 0)
(0.00638756 -6.73096e-06 0)
(0.00642084 -6.91848e-06 0)
(0.00645711 -7.11358e-06 0)
(0.00649633 -7.31757e-06 0)
(0.00653846 -7.53156e-06 0)
(0.00658347 -7.75645e-06 0)
(0.00663133 -7.99293e-06 0)
(0.00668201 -8.2414e-06 0)
(0.00673547 -8.502e-06 0)
(0.00679169 -8.7745e-06 0)
(0.00685062 -9.05832e-06 0)
(0.0069122 -9.35247e-06 0)
(0.00697638 -9.6555e-06 0)
(0.00704309 -9.96551e-06 0)
(0.00711224 -1.02801e-05 0)
(0.00718373 -1.05964e-05 0)
(0.00725743 -1.09109e-05 0)
(0.0073332 -1.12199e-05 0)
(0.00741088 -1.1519e-05 0)
(0.00749028 -1.18035e-05 0)
(0.00757119 -1.20683e-05 0)
(0.00765336 -1.23084e-05 0)
(0.00773652 -1.25183e-05 0)
(0.0078204 -1.26928e-05 0)
(0.00790466 -1.28265e-05 0)
(0.00798898 -1.29147e-05 0)
(0.00807298 -1.29527e-05 0)
(0.0081563 -1.29367e-05 0)
(0.00823854 -1.28633e-05 0)
(0.00831929 -1.27301e-05 0)
(0.00839815 -1.25354e-05 0)
(0.0084747 -1.22786e-05 0)
(0.00854854 -1.196e-05 0)
(0.00861927 -1.15808e-05 0)
(0.00868653 -1.11431e-05 0)
(0.00874995 -1.06501e-05 0)
(0.00880921 -1.01057e-05 0)
(0.00886402 -9.51427e-06 0)
(0.00891413 -8.88099e-06 0)
(0.00895934 -8.2113e-06 0)
(0.00899949 -7.51095e-06 0)
(0.00903446 -6.78581e-06 0)
(0.00906422 -6.04176e-06 0)
(0.00908876 -5.28457e-06 0)
(0.00910814 -4.51979e-06 0)
(0.00912245 -3.75267e-06 0)
(0.00913186 -2.98805e-06 0)
(0.00913656 -2.23029e-06 0)
(0.00913678 -1.48292e-06 0)
(0.00913281 -7.48928e-07 0)
(0.00912493 -2.87607e-08 0)
(0.00911346 6.75103e-07 0)
(0.0090987 1.37557e-06 0)
(0.00908096 2.05272e-06 0)
(0.00906059 2.80077e-06 0)
(0.00903747 3.44258e-06 0)
(0.00901287 4.5183e-06 0)
(0.00898333 5.08389e-06 0)
(0.00895795 7.10842e-06 0)
(0.00891258 8.84025e-06 0)
(0.00889797 9.73916e-06 0)
(0.00880965 2.81816e-05 0)
(-8.34122e-05 0.000136261 0)
(-0.000583344 0.00037919 0)
(-0.00131247 0.000518479 0)
(-0.00208812 0.00056285 0)
(-0.00286932 0.000584192 0)
(-0.00363932 0.000586359 0)
(-0.0043849 0.000586851 0)
(-0.00510905 0.000580819 0)
(-0.00580473 0.000572687 0)
(-0.00647428 0.000561475 0)
(-0.00711519 0.000549011 0)
(-0.0077291 0.000535523 0)
(-0.00831591 0.000521783 0)
(-0.00887702 0.000508081 0)
(-0.00941323 0.000494758 0)
(-0.00992583 0.000482005 0)
(-0.0104159 0.000469986 0)
(-0.0108845 0.000458804 0)
(-0.0113326 0.000448527 0)
(-0.0117611 0.000439181 0)
(-0.0121707 0.00043075 0)
(-0.0125619 0.000423171 0)
(-0.0129349 0.000416325 0)
(-0.0132898 0.000410037 0)
(-0.013626 0.000404062 0)
(-0.0139428 0.000398089 0)
(-0.0142391 0.000391732 0)
(-0.0145131 0.000384536 0)
(-0.0147627 0.000375979 0)
(-0.0149854 0.000365487 0)
(-0.015178 0.000352439 0)
(-0.015337 0.000336196 0)
(-0.0154584 0.000316114 0)
(-0.0155381 0.000291573 0)
(-0.0155714 0.000262001 0)
(-0.0155537 0.0002269 0)
(-0.0154802 0.000185873 0)
(-0.0153463 0.000138639 0)
(-0.0151474 8.50572e-05 0)
(-0.0148794 2.51324e-05 0)
(-0.0145382 -4.09735e-05 0)
(-0.0141207 -0.000112943 0)
(-0.013624 -0.000190308 0)
(-0.0130459 -0.000272455 0)
(-0.0123849 -0.000358643 0)
(-0.0116405 -0.000448018 0)
(-0.0108127 -0.000539626 0)
(-0.0099023 -0.000632441 0)
(-0.00891112 -0.000725378 0)
(-0.00784163 -0.000817317 0)
(-0.00669717 -0.000907122 0)
(-0.0054818 -0.000993659 0)
(-0.00420036 -0.00107582 0)
(-0.00285837 -0.00115253 0)
(-0.00146199 -0.00122279 0)
(-1.79941e-05 -0.00128565 0)
(0.00146633 -0.00134027 0)
(0.00298323 -0.0013859 0)
(0.00452459 -0.00142193 0)
(0.00608196 -0.00144785 0)
(0.00764672 -0.00146332 0)
(0.00921012 -0.00146813 0)
(0.0107634 -0.00146224 0)
(0.0122978 -0.00144575 0)
(0.0138049 -0.00141893 0)
(0.0152765 -0.00138221 0)
(0.0167048 -0.00133616 0)
(0.0180823 -0.00128151 0)
(0.0194022 -0.00121908 0)
(0.0206586 -0.00114982 0)
(0.0218458 -0.00107477 0)
(0.0229592 -0.000995003 0)
(0.023995 -0.000911655 0)
(0.02495 -0.000825864 0)
(0.0258221 -0.000738754 0)
(0.0266099 -0.000651412 0)
(0.0273127 -0.000564864 0)
(0.0279307 -0.000480059 0)
(0.028465 -0.000397848 0)
(0.028917 -0.000318979 0)
(0.0292891 -0.00024408 0)
(0.0295839 -0.000173664 0)
(0.0298047 -0.000108122 0)
(0.0299551 -4.77292e-05 0)
(0.0300392 7.34919e-06 0)
(0.0300612 5.70492e-05 0)
(0.0300254 0.000101397 0)
(0.0299364 0.000140498 0)
(0.0297988 0.000174523 0)
(0.0296171 0.000203696 0)
(0.029396 0.000228282 0)
(0.0291397 0.000248573 0)
(0.0288527 0.000264883 0)
(0.028539 0.000277533 0)
(0.0282027 0.000286846 0)
(0.0278475 0.00029314 0)
(0.0274769 0.000296722 0)
(0.0270943 0.000297887 0)
(0.0267027 0.000296912 0)
(0.026305 0.000294057 0)
(0.0259039 0.000289563 0)
(0.0255018 0.000283651 0)
(0.0251009 0.000276523 0)
(0.0247031 0.000268364 0)
(0.0243104 0.000259342 0)
(0.0239243 0.000249606 0)
(0.0235462 0.000239293 0)
(0.0231776 0.000228525 0)
(0.0228194 0.00021741 0)
(0.0224727 0.000206045 0)
(0.0221383 0.000194515 0)
(0.021817 0.000182897 0)
(0.0215094 0.000171257 0)
(0.0212159 0.000159652 0)
(0.020937 0.000148133 0)
(0.020673 0.000136742 0)
(0.0204241 0.000125517 0)
(0.0201904 0.000114487 0)
(0.019972 0.000103677 0)
(0.0197689 9.31083e-05 0)
(0.0195812 8.2796e-05 0)
(0.0194086 7.27516e-05 0)
(0.019251 6.29831e-05 0)
(0.0191083 5.34947e-05 0)
(0.0189802 4.42875e-05 0)
(0.0188665 3.53596e-05 0)
(0.0187669 2.67063e-05 0)
(0.0186812 1.83206e-05 0)
(0.018609 1.01931e-05 0)
(0.0185501 2.31273e-06 0)
(0.0185041 -5.33323e-06 0)
(0.0184708 -1.27587e-05 0)
(0.0184499 -1.99784e-05 0)
(0.018441 -2.70076e-05 0)
(0.0184438 -3.38619e-05 0)
(0.0184581 -4.05566e-05 0)
(0.0184837 -4.71067e-05 0)
(0.0185202 -5.35263e-05 0)
(0.0185673 -5.98286e-05 0)
(0.0186249 -6.60252e-05 0)
(0.0186928 -7.21264e-05 0)
(0.0187706 -7.81403e-05 0)
(0.0188581 -8.40728e-05 0)
(0.0189552 -8.99274e-05 0)
(0.0190616 -9.57047e-05 0)
(0.0191771 -0.000101402 0)
(0.0193015 -0.000107014 0)
(0.0194344 -0.000112531 0)
(0.0195757 -0.000117939 0)
(0.0197251 -0.000123221 0)
(0.0198824 -0.000128355 0)
(0.020047 -0.000133316 0)
(0.0202188 -0.000138073 0)
(0.0203974 -0.000142593 0)
(0.0205822 -0.000146837 0)
(0.0207729 -0.000150764 0)
(0.0209689 -0.00015433 0)
(0.0211697 -0.000157487 0)
(0.0213746 -0.000160187 0)
(0.0215829 -0.000162381 0)
(0.0217941 -0.00016402 0)
(0.0220072 -0.000165055 0)
(0.0222214 -0.000165441 0)
(0.0224359 -0.000165135 0)
(0.0226498 -0.000164101 0)
(0.0228621 -0.000162306 0)
(0.0230718 -0.000159728 0)
(0.023278 -0.00015635 0)
(0.0234795 -0.000152166 0)
(0.0236754 -0.000147182 0)
(0.0238647 -0.000141412 0)
(0.0240463 -0.000134885 0)
(0.0242192 -0.000127639 0)
(0.0243826 -0.000119726 0)
(0.0245357 -0.00011121 0)
(0.0246775 -0.000102163 0)
(0.0248074 -9.26706e-05 0)
(0.0249248 -8.28242e-05 0)
(0.0250292 -7.27235e-05 0)
(0.0251203 -6.24727e-05 0)
(0.0251978 -5.21792e-05 0)
(0.0252617 -4.19504e-05 0)
(0.025312 -3.18922e-05 0)
(0.0253488 -2.21058e-05 0)
(0.0253726 -1.26858e-05 0)
(0.0253839 -3.71726e-06 0)
(0.0253831 4.72593e-06 0)
(0.0253712 1.25841e-05 0)
(0.0253488 1.98138e-05 0)
(0.025317 2.6389e-05 0)
(0.0252766 3.23177e-05 0)
(0.0252288 3.75878e-05 0)
(0.0251744 4.24056e-05 0)
(0.0251146 4.64297e-05 0)
(0.0250499 5.11434e-05 0)
(0.0249814 5.36185e-05 0)
(0.0249108 6.11139e-05 0)
(0.0248304 6.36331e-05 0)
(0.0247682 6.98112e-05 0)
(0.0246468 0.000105646 0)
(-0.000179064 0.000645481 0)
(-0.00104419 0.00125506 0)
(-0.00217033 0.00153459 0)
(-0.00330936 0.00157677 0)
(-0.00439994 0.00157293 0)
(-0.00543155 0.00153088 0)
(-0.00638856 0.00148876 0)
(-0.00728212 0.00143816 0)
(-0.00810891 0.00138698 0)
(-0.00887713 0.00133362 0)
(-0.00958823 0.00128066 0)
(-0.0102474 0.00122834 0)
(-0.0108572 0.00117755 0)
(-0.0114209 0.00112855 0)
(-0.011941 0.0010816 0)
(-0.0124197 0.00103676 0)
(-0.0128588 0.000994036 0)
(-0.0132596 0.000953325 0)
(-0.0136234 0.000914456 0)
(-0.0139507 0.000877179 0)
(-0.014242 0.000841167 0)
(-0.0144973 0.000806003 0)
(-0.0147161 0.000771181 0)
(-0.0148977 0.000736096 0)
(-0.0150408 0.000700049 0)
(-0.0151439 0.000662249 0)
(-0.015205 0.000621822 0)
(-0.0152216 0.000577831 0)
(-0.0151911 0.00052929 0)
(-0.0151103 0.000475198 0)
(-0.014976 0.000414567 0)
(-0.0147847 0.000346457 0)
(-0.0145327 0.000270011 0)
(-0.0142163 0.000184491 0)
(-0.013832 8.93102e-05 0)
(-0.0133762 -1.59394e-05 0)
(-0.0128456 -0.000131462 0)
(-0.0122373 -0.000257242 0)
(-0.0115486 -0.000393036 0)
(-0.0107774 -0.000538366 0)
(-0.00992212 -0.000692532 0)
(-0.00898157 -0.000854611 0)
(-0.00795532 -0.00102348 0)
(-0.0068435 -0.00119785 0)
(-0.00564694 -0.00137624 0)
(-0.00436711 -0.00155707 0)
(-0.00300618 -0.00173863 0)
(-0.00156696 -0.00191915 0)
(-5.29738e-05 -0.00209678 0)
(0.00153163 -0.00226967 0)
(0.00318206 -0.00243595 0)
(0.0048929 -0.0025938 0)
(0.00665817 -0.00274143 0)
(0.00847133 -0.00287713 0)
(0.0103254 -0.0029993 0)
(0.0122128 -0.00310647 0)
(0.0141257 -0.0031973 0)
(0.016056 -0.00327063 0)
(0.0179951 -0.0033255 0)
(0.0199344 -0.00336115 0)
(0.0218653 -0.00337706 0)
(0.0237788 -0.00337293 0)
(0.0256664 -0.00334873 0)
(0.0275195 -0.0033047 0)
(0.0293299 -0.00324133 0)
(0.0310897 -0.00315936 0)
(0.0327916 -0.0030598 0)
(0.0344285 -0.00294388 0)
(0.0359942 -0.00281302 0)
(0.0374831 -0.00266886 0)
(0.0388903 -0.00251313 0)
(0.0402115 -0.00234773 0)
(0.0414435 -0.0021746 0)
(0.0425836 -0.00199569 0)
(0.04363 -0.00181299 0)
(0.0445816 -0.00162839 0)
(0.045438 -0.00144374 0)
(0.0461995 -0.00126076 0)
(0.0468672 -0.00108104 0)
(0.0474424 -0.000906018 0)
(0.0479274 -0.000736947 0)
(0.0483245 -0.00057492 0)
(0.0486366 -0.00042084 0)
(0.048867 -0.000275436 0)
(0.0490193 -0.00013926 0)
(0.0490971 -1.27028e-05 0)
(0.0491045 0.000104 0)
(0.0490455 0.000210751 0)
(0.0489242 0.000307576 0)
(0.048745 0.000394607 0)
(0.048512 0.000472071 0)
(0.0482294 0.000540271 0)
(0.0479016 0.000599569 0)
(0.0475327 0.000650378 0)
(0.0471267 0.000693144 0)
(0.0466875 0.000728336 0)
(0.0462191 0.00075644 0)
(0.0457252 0.000777943 0)
(0.0452093 0.000793332 0)
(0.044675 0.000803086 0)
(0.0441256 0.000807672 0)
(0.0435642 0.00080754 0)
(0.0429938 0.000803121 0)
(0.0424173 0.000794827 0)
(0.0418375 0.000783048 0)
(0.0412569 0.000768153 0)
(0.040678 0.000750488 0)
(0.0401029 0.00073038 0)
(0.0395339 0.000708133 0)
(0.0389729 0.000684033 0)
(0.0384218 0.000658346 0)
(0.0378823 0.00063132 0)
(0.037356 0.000603184 0)
(0.0368442 0.000574153 0)
(0.0363484 0.000544423 0)
(0.0358697 0.000514176 0)
(0.0354091 0.000483576 0)
(0.0349676 0.000452776 0)
(0.0345459 0.000421912 0)
(0.0341448 0.000391105 0)
(0.0337648 0.000360464 0)
(0.0334063 0.000330085 0)
(0.0330697 0.000300048 0)
(0.0327552 0.000270425 0)
(0.0324631 0.000241273 0)
(0.0321933 0.000212638 0)
(0.0319459 0.000184557 0)
(0.0317208 0.000157057 0)
(0.0315178 0.000130155 0)
(0.0313367 0.000103861 0)
(0.0311774 7.81781e-05 0)
(0.0310395 5.31024e-05 0)
(0.0309227 2.86252e-05 0)
(0.0308266 4.73347e-06 0)
(0.0307508 -1.85891e-05 0)
(0.030695 -4.13612e-05 0)
(0.0306587 -6.3603e-05 0)
(0.0306415 -8.53352e-05 0)
(0.030643 -0.000106578 0)
(0.0306627 -0.00012735 0)
(0.0307002 -0.000147669 0)
(0.0307551 -0.000167547 0)
(0.0308268 -0.000186996 0)
(0.0309149 -0.000206018 0)
(0.0310189 -0.000224615 0)
(0.0311385 -0.000242778 0)
(0.031273 -0.000260494 0)
(0.031422 -0.00027774 0)
(0.0315849 -0.000294487 0)
(0.0317613 -0.000310695 0)
(0.0319505 -0.000326315 0)
(0.0321521 -0.000341292 0)
(0.0323652 -0.000355558 0)
(0.0325894 -0.000369038 0)
(0.0328239 -0.000381649 0)
(0.0330679 -0.0003933 0)
(0.0333207 -0.000403892 0)
(0.0335815 -0.000413322 0)
(0.0338493 -0.000421483 0)
(0.0341232 -0.000428265 0)
(0.0344022 -0.000433557 0)
(0.0346853 -0.000437252 0)
(0.0349713 -0.000439245 0)
(0.0352591 -0.000439438 0)
(0.0355475 -0.000437743 0)
(0.0358353 -0.000434083 0)
(0.0361212 -0.000428396 0)
(0.0364038 -0.000420637 0)
(0.0366818 -0.000410779 0)
(0.036954 -0.00039882 0)
(0.0372189 -0.000384781 0)
(0.0374751 -0.000368706 0)
(0.0377215 -0.000350671 0)
(0.0379566 -0.000330777 0)
(0.0381793 -0.000309154 0)
(0.0383885 -0.000285963 0)
(0.038583 -0.00026139 0)
(0.0387618 -0.000235647 0)
(0.0389241 -0.000208972 0)
(0.0390692 -0.000181621 0)
(0.0391964 -0.000153869 0)
(0.0393054 -0.000126001 0)
(0.0393959 -9.83101e-05 0)
(0.0394678 -7.10898e-05 0)
(0.0395212 -4.46279e-05 0)
(0.0395565 -1.91998e-05 0)
(0.0395741 4.93839e-06 0)
(0.0395748 2.75576e-05 0)
(0.0395595 4.84615e-05 0)
(0.0395291 6.75e-05 0)
(0.039485 8.45628e-05 0)
(0.0394283 9.96204e-05 0)
(0.0393607 0.000112703 0)
(0.0392834 0.000123839 0)
(0.039198 0.000133776 0)
(0.0391064 0.000141113 0)
(0.0390086 0.000151411 0)
(0.0389079 0.000155436 0)
(0.0388089 0.000166242 0)
(0.0386765 0.000196501 0)
(-0.000305934 0.00126253 0)
(-0.00151809 0.00231701 0)
(-0.00287345 0.00272613 0)
(-0.00414207 0.00273724 0)
(-0.00524256 0.00266655 0)
(-0.00622409 0.00253883 0)
(-0.00707277 0.00241163 0)
(-0.00782213 0.00227855 0)
(-0.0084736 0.00215056 0)
(-0.00904377 0.00202626 0)
(-0.00953774 0.00190795 0)
(-0.00996428 0.00179527 0)
(-0.010328 0.00168833 0)
(-0.0106338 0.0015867 0)
(-0.0108851 0.00148998 0)
(-0.0110846 0.00139764 0)
(-0.0112344 0.00130913 0)
(-0.0113359 0.00122385 0)
(-0.0113901 0.00114118 0)
(-0.0113973 0.00106043 0)
(-0.0113576 0.00098087 0)
(-0.0112706 0.000901685 0)
(-0.0111354 0.000821991 0)
(-0.0109511 0.000740827 0)
(-0.0107161 0.000657158 0)
(-0.0104288 0.000569883 0)
(-0.0100872 0.000477855 0)
(-0.00968911 0.000379894 0)
(-0.00923226 0.000274825 0)
(-0.00871423 0.000161501 0)
(-0.00813257 3.88463e-05 0)
(-0.00748483 -9.41114e-05 0)
(-0.00676865 -0.000238201 0)
(-0.00598178 -0.000394074 0)
(-0.00512218 -0.000562171 0)
(-0.00418807 -0.000742698 0)
(-0.00317794 -0.000935605 0)
(-0.00209067 -0.00114057 0)
(-0.000925494 -0.00135701 0)
(0.000317897 -0.00158405 0)
(0.00163936 -0.00182057 0)
(0.00303828 -0.00206518 0)
(0.00451351 -0.00231629 0)
(0.00606339 -0.00257207 0)
(0.00768574 -0.00283054 0)
(0.00937781 -0.00308954 0)
(0.0111363 -0.0033468 0)
(0.0129574 -0.00359997 0)
(0.0148368 -0.00384661 0)
(0.0167694 -0.00408428 0)
(0.0187499 -0.00431052 0)
(0.0207724 -0.00452291 0)
(0.0228303 -0.00471912 0)
(0.0249168 -0.00489688 0)
(0.0270245 -0.00505408 0)
(0.0291459 -0.00518877 0)
(0.031273 -0.00529921 0)
(0.0333975 -0.00538386 0)
(0.035511 -0.00544148 0)
(0.0376051 -0.00547109 0)
(0.0396712 -0.00547204 0)
(0.0417011 -0.00544401 0)
(0.0436864 -0.00538706 0)
(0.0456193 -0.00530159 0)
(0.0474921 -0.00518838 0)
(0.049298 -0.00504858 0)
(0.0510304 -0.00488368 0)
(0.0526835 -0.0046955 0)
(0.0542522 -0.00448616 0)
(0.0557323 -0.00425799 0)
(0.0571201 -0.00401357 0)
(0.058413 -0.00375558 0)
(0.0596091 -0.0034868 0)
(0.0607073 -0.00321004 0)
(0.0617073 -0.00292807 0)
(0.0626094 -0.0026436 0)
(0.0634146 -0.00235919 0)
(0.0641245 -0.00207723 0)
(0.0647412 -0.00179992 0)
(0.0652672 -0.00152923 0)
(0.0657053 -0.00126689 0)
(0.0660586 -0.00101438 0)
(0.0663306 -0.000772932 0)
(0.0665248 -0.000543536 0)
(0.0666447 -0.000326952 0)
(0.0666941 -0.000123723 0)
(0.0666766 6.58084e-05 0)
(0.066596 0.000241474 0)
(0.066456 0.000403266 0)
(0.0662601 0.000551309 0)
(0.066012 0.000685845 0)
(0.0657151 0.00080721 0)
(0.0653728 0.000915816 0)
(0.0649884 0.00101213 0)
(0.0645652 0.00109668 0)
(0.0641062 0.00116999 0)
(0.0636145 0.00123264 0)
(0.0630932 0.00128519 0)
(0.0625449 0.00132823 0)
(0.0619726 0.00136231 0)
(0.061379 0.001388 0)
(0.0607666 0.00140583 0)
(0.0601381 0.00141632 0)
(0.059496 0.00141999 0)
(0.0588427 0.00141731 0)
(0.0581806 0.00140875 0)
(0.0575121 0.00139475 0)
(0.0568393 0.00137573 0)
(0.0561646 0.0013521 0)
(0.05549 0.00132425 0)
(0.0548177 0.00129254 0)
(0.0541497 0.00125734 0)
(0.053488 0.00121898 0)
(0.0528345 0.0011778 0)
(0.0521911 0.00113412 0)
(0.0515596 0.00108823 0)
(0.0509415 0.00104044 0)
(0.0503386 0.00099102 0)
(0.0497524 0.000940252 0)
(0.0491842 0.00088839 0)
(0.0486355 0.000835682 0)
(0.0481074 0.000782358 0)
(0.047601 0.000728636 0)
(0.0471174 0.000674716 0)
(0.0466574 0.000620785 0)
(0.0462218 0.000567011 0)
(0.0458112 0.000513545 0)
(0.0454261 0.00046052 0)
(0.045067 0.000408055 0)
(0.0447342 0.000356249 0)
(0.0444279 0.000305185 0)
(0.0441481 0.000254934 0)
(0.0438949 0.00020555 0)
(0.0436683 0.000157075 0)
(0.0434679 0.000109541 0)
(0.0432937 6.29688e-05 0)
(0.0431454 1.73732e-05 0)
(0.0430225 -2.72385e-05 0)
(0.0429246 -7.08628e-05 0)
(0.0428514 -0.000113499 0)
(0.0428022 -0.000155147 0)
(0.0427767 -0.000195807 0)
(0.0427741 -0.000235476 0)
(0.042794 -0.000274146 0)
(0.0428356 -0.000311804 0)
(0.0428984 -0.000348431 0)
(0.0429816 -0.000383999 0)
(0.0430845 -0.00041847 0)
(0.0432064 -0.000451796 0)
(0.0433466 -0.000483917 0)
(0.0435042 -0.000514762 0)
(0.0436785 -0.000544247 0)
(0.0438685 -0.000572277 0)
(0.0440734 -0.000598741 0)
(0.0442923 -0.000623521 0)
(0.0445243 -0.000646486 0)
(0.0447682 -0.000667494 0)
(0.0450232 -0.000686399 0)
(0.0452881 -0.000703045 0)
(0.0455618 -0.000717274 0)
(0.0458432 -0.000728927 0)
(0.046131 -0.000737846 0)
(0.0464241 -0.000743878 0)
(0.0467212 -0.000746878 0)
(0.0470209 -0.000746714 0)
(0.0473219 -0.000743269 0)
(0.0476228 -0.000736443 0)
(0.0479223 -0.000726161 0)
(0.048219 -0.000712374 0)
(0.0485114 -0.000695063 0)
(0.0487981 -0.000674242 0)
(0.0490778 -0.000649962 0)
(0.049349 -0.00062231 0)
(0.0496103 -0.000591417 0)
(0.0498605 -0.000557454 0)
(0.0500983 -0.000520635 0)
(0.0503224 -0.000481218 0)
(0.0505317 -0.000439501 0)
(0.0507252 -0.000395823 0)
(0.0509019 -0.000350561 0)
(0.051061 -0.000304125 0)
(0.0512018 -0.000256951 0)
(0.0513238 -0.000209501 0)
(0.0514265 -0.00016225 0)
(0.0515097 -0.000115679 0)
(0.0515733 -7.0268e-05 0)
(0.0516176 -2.64847e-05 0)
(0.0516427 1.52272e-05 0)
(0.0516493 5.44598e-05 0)
(0.0516381 9.08505e-05 0)
(0.05161 0.000124104 0)
(0.051566 0.000153991 0)
(0.0515075 0.000180396 0)
(0.0514358 0.000203283 0)
(0.0513526 0.000222886 0)
(0.0512595 0.000239075 0)
(0.0511581 0.000254182 0)
(0.0510514 0.000263778 0)
(0.05094 0.000279238 0)
(0.050809 0.000299346 0)
(-0.00040536 0.00247159 0)
(-0.00172009 0.00379934 0)
(-0.00298872 0.00414492 0)
(-0.00405173 0.00389427 0)
(-0.00482808 0.00362205 0)
(-0.00542857 0.00332057 0)
(-0.00584994 0.00305776 0)
(-0.00615158 0.00281247 0)
(-0.00634249 0.00258975 0)
(-0.00644853 0.00238334 0)
(-0.00647786 0.00219204 0)
(-0.00644203 0.00201332 0)
(-0.00634641 0.00184553 0)
(-0.00619652 0.00168701 0)
(-0.00599546 0.00153632 0)
(-0.00574587 0.00139215 0)
(-0.00544927 0.00125328 0)
(-0.00510668 0.00111854 0)
(-0.0047185 0.000986822 0)
(-0.00428471 0.000857016 0)
(-0.00380487 0.00072801 0)
(-0.00327822 0.000598669 0)
(-0.00270373 0.000467823 0)
(-0.00208011 0.000334268 0)
(-0.00140588 0.000196766 0)
(-0.000679425 5.40554e-05 0)
(0.00010098 -9.51351e-05 0)
(0.000937115 -0.000252061 0)
(0.00183077 -0.000417935 0)
(0.0027837 -0.000593896 0)
(0.00379757 -0.000780975 0)
(0.00487393 -0.000980056 0)
(0.00601415 -0.00119184 0)
(0.0072194 -0.00141683 0)
(0.0084906 -0.00165525 0)
(0.00982838 -0.00190711 0)
(0.0112331 -0.00217208 0)
(0.0127047 -0.00244959 0)
(0.0142428 -0.00273873 0)
(0.0158467 -0.00303831 0)
(0.0175152 -0.00334686 0)
(0.0192466 -0.00366263 0)
(0.0210391 -0.00398361 0)
(0.02289 -0.00430758 0)
(0.0247965 -0.00463211 0)
(0.0267551 -0.0049546 0)
(0.0287618 -0.00527228 0)
(0.0308124 -0.00558231 0)
(0.0329018 -0.00588175 0)
(0.0350248 -0.00616762 0)
(0.0371753 -0.00643694 0)
(0.0393472 -0.00668677 0)
(0.0415337 -0.00691424 0)
(0.0437275 -0.0071166 0)
(0.0459211 -0.00729126 0)
(0.0481068 -0.00743585 0)
(0.0502764 -0.00754822 0)
(0.0524218 -0.00762655 0)
(0.0545345 -0.00766934 0)
(0.0566064 -0.00767547 0)
(0.0586294 -0.00764423 0)
(0.0605954 -0.00757537 0)
(0.062497 -0.00746909 0)
(0.0643272 -0.0073261 0)
(0.0660795 -0.00714759 0)
(0.067748 -0.00693522 0)
(0.0693279 -0.0066911 0)
(0.0708148 -0.00641778 0)
(0.0722057 -0.00611815 0)
(0.073498 -0.00579542 0)
(0.0746904 -0.00545303 0)
(0.0757823 -0.00509458 0)
(0.076774 -0.00472373 0)
(0.0776665 -0.00434414 0)
(0.0784616 -0.00395941 0)
(0.0791616 -0.00357297 0)
(0.0797694 -0.00318807 0)
(0.0802884 -0.00280768 0)
(0.080722 -0.00243451 0)
(0.0810741 -0.00207093 0)
(0.0813486 -0.00171901 0)
(0.0815496 -0.00138048 0)
(0.081681 -0.00105674 0)
(0.0817468 -0.000748907 0)
(0.081751 -0.000457789 0)
(0.0816972 -0.000183938 0)
(0.081589 7.23344e-05 0)
(0.08143 0.000310924 0)
(0.0812234 0.000531907 0)
(0.0809723 0.000735516 0)
(0.0806796 0.000922108 0)
(0.0803482 0.00109214 0)
(0.0799806 0.00124616 0)
(0.0795794 0.00138475 0)
(0.0791469 0.00150856 0)
(0.0786852 0.00161826 0)
(0.0781966 0.0017145 0)
(0.0776831 0.00179799 0)
(0.0771464 0.00186938 0)
(0.0765886 0.00192933 0)
(0.0760113 0.00197847 0)
(0.0754164 0.00201742 0)
(0.0748053 0.00204676 0)
(0.0741799 0.00206706 0)
(0.0735418 0.00207883 0)
(0.0728924 0.00208259 0)
(0.0722335 0.0020788 0)
(0.0715665 0.00206792 0)
(0.070893 0.00205037 0)
(0.0702147 0.00202656 0)
(0.0695331 0.00199689 0)
(0.0688498 0.00196172 0)
(0.0681664 0.00192141 0)
(0.0674844 0.00187631 0)
(0.0668056 0.00182677 0)
(0.0661314 0.00177312 0)
(0.0654637 0.00171568 0)
(0.0648038 0.00165478 0)
(0.0641536 0.00159075 0)
(0.0635144 0.00152389 0)
(0.062888 0.00145453 0)
(0.0622757 0.00138298 0)
(0.0616792 0.00130955 0)
(0.0610997 0.00123452 0)
(0.0605387 0.0011582 0)
(0.0599974 0.00108088 0)
(0.0594771 0.00100281 0)
(0.0589789 0.000924264 0)
(0.0585037 0.000845485 0)
(0.0580524 0.000766702 0)
(0.057626 0.000688128 0)
(0.057225 0.000609958 0)
(0.0568501 0.000532371 0)
(0.0565017 0.000455526 0)
(0.0561801 0.000379566 0)
(0.0558857 0.000304617 0)
(0.0556185 0.000230791 0)
(0.0553786 0.000158183 0)
(0.0551659 8.68801e-05 0)
(0.0549802 1.69554e-05 0)
(0.0548213 -5.15239e-05 0)
(0.0546888 -0.000118497 0)
(0.0545824 -0.000183907 0)
(0.0545016 -0.000247697 0)
(0.0544457 -0.000309811 0)
(0.0544143 -0.000370187 0)
(0.0544065 -0.000428761 0)
(0.0544218 -0.000485458 0)
(0.0544593 -0.000540198 0)
(0.0545182 -0.000592888 0)
(0.0545976 -0.000643425 0)
(0.0546966 -0.000691693 0)
(0.0548143 -0.000737563 0)
(0.0549497 -0.000780896 0)
(0.0551017 -0.000821537 0)
(0.0552693 -0.000859322 0)
(0.0554513 -0.000894077 0)
(0.0556467 -0.000925617 0)
(0.0558543 -0.000953754 0)
(0.0560729 -0.000978294 0)
(0.0563012 -0.000999042 0)
(0.056538 -0.00101581 0)
(0.0567821 -0.0010284 0)
(0.057032 -0.00103665 0)
(0.0572866 -0.0010404 0)
(0.0575444 -0.00103949 0)
(0.0578041 -0.00103382 0)
(0.0580644 -0.00102329 0)
(0.058324 -0.00100783 0)
(0.0585814 -0.000987422 0)
(0.0588353 -0.000962082 0)
(0.0590845 -0.000931867 0)
(0.0593276 -0.000896881 0)
(0.0595634 -0.000857277 0)
(0.0597906 -0.000813262 0)
(0.060008 -0.000765092 0)
(0.0602146 -0.00071308 0)
(0.0604093 -0.000657588 0)
(0.0605911 -0.000599032 0)
(0.060759 -0.000537878 0)
(0.0609123 -0.000474635 0)
(0.0610501 -0.000409853 0)
(0.061172 -0.000344119 0)
(0.0612773 -0.000278046 0)
(0.0613657 -0.000212266 0)
(0.061437 -0.00014742 0)
(0.061491 -8.41471e-05 0)
(0.0615277 -2.30734e-05 0)
(0.0615473 3.52026e-05 0)
(0.0615503 9.0125e-05 0)
(0.061537 0.000141194 0)
(0.0615082 0.000187984 0)
(0.0614648 0.000230174 0)
(0.0614077 0.000267518 0)
(0.0613381 0.000300027 0)
(0.0612575 0.00032763 0)
(0.0611676 0.000351219 0)
(0.0610703 0.000369144 0)
(0.0609662 0.000389888 0)
(0.060851 0.000402429 0)
(-0.000694102 0.00309555 0)
(-0.0020925 0.00472465 0)
(-0.00255405 0.0049541 0)
(-0.00278999 0.00450714 0)
(-0.00262169 0.00403479 0)
(-0.00236843 0.00356802 0)
(-0.00196807 0.00316379 0)
(-0.00150479 0.00280533 0)
(-0.000969479 0.00248814 0)
(-0.000387285 0.00220355 0)
(0.000240328 0.00194494 0)
(0.000904592 0.0017074 0)
(0.00160352 0.00148655 0)
(0.00233392 0.00127923 0)
(0.00309483 0.0010826 0)
(0.00388538 0.000894432 0)
(0.0047056 0.000712711 0)
(0.00555578 0.000535708 0)
(0.00643666 0.00036182 0)
(0.00734923 0.000189563 0)
(0.00829472 1.75129e-05 0)
(0.00927456 -0.00015571 0)
(0.0102903 -0.000331466 0)
(0.0113436 -0.000511098 0)
(0.0124363 -0.00069594 0)
(0.01357 -0.000887304 0)
(0.0147465 -0.00108647 0)
(0.0159675 -0.00129467 0)
(0.0172347 -0.00151306 0)
(0.0185494 -0.00174268 0)
(0.0199131 -0.00198446 0)
(0.0213267 -0.00223913 0)
(0.0227913 -0.00250726 0)
(0.0243075 -0.00278915 0)
(0.0258755 -0.00308487 0)
(0.0274954 -0.0033942 0)
(0.0291671 -0.00371662 0)
(0.0308898 -0.0040513 0)
(0.0326625 -0.0043971 0)
(0.0344839 -0.00475258 0)
(0.0363523 -0.00511595 0)
(0.0382653 -0.00548516 0)
(0.0402204 -0.00585788 0)
(0.0422146 -0.00623151 0)
(0.0442442 -0.00660323 0)
(0.0463054 -0.00697 0)
(0.0483935 -0.00732863 0)
(0.0505037 -0.00767579 0)
(0.0526304 -0.00800804 0)
(0.0547679 -0.0083219 0)
(0.0569096 -0.00861387 0)
(0.0590489 -0.00888047 0)
(0.0611784 -0.00911833 0)
(0.0632906 -0.00932422 0)
(0.0653777 -0.00949509 0)
(0.0674315 -0.00962818 0)
(0.069444 -0.00972103 0)
(0.071407 -0.00977156 0)
(0.0733124 -0.00977813 0)
(0.0751524 -0.00973961 0)
(0.0769196 -0.00965539 0)
(0.078607 -0.00952545 0)
(0.0802086 -0.00935038 0)
(0.0817188 -0.0091314 0)
(0.0831331 -0.00887036 0)
(0.084448 -0.00856967 0)
(0.0856611 -0.00823235 0)
(0.0867711 -0.00786188 0)
(0.0877775 -0.00746217 0)
(0.0886813 -0.00703745 0)
(0.0894843 -0.00659218 0)
(0.0901891 -0.00613092 0)
(0.0907992 -0.00565827 0)
(0.0913186 -0.00517871 0)
(0.0917519 -0.00469654 0)
(0.0921041 -0.00421583 0)
(0.0923802 -0.00374027 0)
(0.0925854 -0.00327324 0)
(0.0927249 -0.00281767 0)
(0.0928038 -0.0023761 0)
(0.0928268 -0.00195064 0)
(0.0927985 -0.00154301 0)
(0.0927232 -0.00115453 0)
(0.0926048 -0.000786149 0)
(0.0924469 -0.00043852 0)
(0.0922529 -0.000111983 0)
(0.0920256 0.000193367 0)
(0.0917678 0.000477654 0)
(0.0914817 0.000741184 0)
(0.0911696 0.000984411 0)
(0.0908333 0.00120791 0)
(0.0904745 0.00141233 0)
(0.0900948 0.00159841 0)
(0.0896953 0.00176691 0)
(0.0892774 0.00191864 0)
(0.0888422 0.00205439 0)
(0.0883906 0.00217496 0)
(0.0879236 0.00228115 0)