/*--------------------------------*- C++ -*----------------------------------*\
| =========                 |                                                 |
| \\      /  F ield         | OpenFOAM: The Open Source CFD Toolbox           |
|  \\    /   O peration     | Version:  4.1                                   |
|   \\  /    A nd           | Web:      www.OpenFOAM.org                      |
|    \\/     M anipulation  |                                                 |
\*---------------------------------------------------------------------------*/
FoamFile
{
    version     2.0;
    format      ascii;
    class       volScalarField;
    location    "2700";
    object      p;
}
// * * * * * * * * * * * * * * * * * * * * * * * * * * * * * * * * * * * * * //

dimensions      [1 -1 -2 0 0 0 0];

internalField   nonuniform List<scalar> 
1275
(
0.711997
0.711997
0.711996
0.711996
0.711995
0.711996
0.711995
0.711995
0.711994
0.711995
0.711994
0.711994
0.711994
0.711995
0.711995
0.711995
0.711995
0.711996
0.711997
0.711998
0.711999
0.712
0.712001
0.712003
0.712004
0.712006
0.712008
0.71201
0.712012
0.712014
0.712017
0.712019
0.712022
0.712025
0.712028
0.712031
0.712035
0.712038
0.712042
0.712046
0.71205
0.712054
0.712058
0.712063
0.712068
0.712073
0.712078
0.712083
0.712088
0.712094
0.7121
0.712106
0.712112
0.712119
0.712125
0.712132
0.712139
0.712147
0.712154
0.712162
0.71217
0.712179
0.712187
0.712197
0.712206
0.712216
0.712227
0.712238
0.71225
0.712263
0.712276
0.712291
0.712306
0.712323
0.712342
0.712362
0.712384
0.712408
0.712434
0.712462
0.712494
0.712528
0.712566
0.712606
0.71265
0.712698
0.712748
0.712802
0.712859
0.712918
0.712979
0.713042
0.713106
0.713171
0.713235
0.713298
0.713359
0.713417
0.713472
0.713523
0.71357
0.713612
0.713649
0.71368
0.713706
0.713727
0.713742
0.713753
0.713759
0.713761
0.713759
0.713753
0.713745
0.713734
0.713722
0.713707
0.713692
0.713675
0.713659
0.713642
0.713625
0.713608
0.711996
0.711996
0.711995
0.711996
0.711995
0.711996
0.711995
0.711996
0.711995
0.711995
0.711995
0.711995
0.711995
0.711995
0.711995
0.711996
0.711996
0.711997
0.711998
0.711999
0.712
0.712001
0.712002
0.712003
0.712005
0.712007
0.712008
0.71201
0.712012
0.712015
0.712017
0.71202
0.712022
0.712025
0.712028
0.712032
0.712035
0.712039
0.712042
0.712046
0.71205
0.712055
0.712059
0.712064
0.712068
0.712073
0.712078
0.712084
0.712089
0.712095
0.712101
0.712107
0.712113
0.712119
0.712126
0.712133
0.71214
0.712147
0.712155
0.712163
0.712171
0.71218
0.712189
0.712198
0.712208
0.712218
0.712228
0.71224
0.712252
0.712264
0.712278
0.712292
0.712308
0.712324
0.712343
0.712362
0.712384
0.712407
0.712433
0.712461
0.712492
0.712526
0.712562
0.712602
0.712646
0.712693
0.712743
0.712796
0.712852
0.712911
0.712973
0.713036
0.7131
0.713164
0.713228
0.713291
0.713352
0.713411
0.713466
0.713517
0.713564
0.713606
0.713643
0.713674
0.713701
0.713721
0.713737
0.713748
0.713754
0.713756
0.713754
0.713749
0.71374
0.71373
0.713717
0.713703
0.713688
0.713672
0.713655
0.713638
0.713622
0.713605
0.711999
0.711999
0.711998
0.711998
0.711997
0.711997
0.711996
0.711996
0.711995
0.711995
0.711995
0.711995
0.711995
0.711995
0.711995
0.711996
0.711996
0.711997
0.711997
0.711998
0.711999
0.712
0.712002
0.712003
0.712005
0.712006
0.712008
0.71201
0.712012
0.712014
0.712017
0.71202
0.712022
0.712025
0.712028
0.712032
0.712035
0.712039
0.712042
0.712046
0.71205
0.712054
0.712059
0.712063
0.712068
0.712073
0.712078
0.712083
0.712089
0.712095
0.7121
0.712106
0.712113
0.712119
0.712126
0.712133
0.71214
0.712147
0.712155
0.712163
0.712171
0.712179
0.712188
0.712197
0.712207
0.712217
0.712228
0.712239
0.712251
0.712263
0.712277
0.712291
0.712306
0.712323
0.71234
0.71236
0.712381
0.712404
0.712429
0.712457
0.712488
0.712521
0.712557
0.712597
0.71264
0.712686
0.712736
0.712789
0.712846
0.712905
0.712966
0.713029
0.713093
0.713158
0.713222
0.713285
0.713346
0.713404
0.71346
0.713511
0.713558
0.713599
0.713636
0.713667
0.713693
0.713714
0.713729
0.71374
0.713746
0.713748
0.713746
0.713741
0.713732
0.713722
0.713709
0.713695
0.71368
0.713664
0.713648
0.713631
0.713615
0.713599
0.711995
0.711995
0.711994
0.711996
0.711994
0.711996
0.711995
0.711996
0.711995
0.711995
0.711995
0.711995
0.711995
0.711995
0.711995
0.711996
0.711996
0.711997
0.711998
0.711998
0.711999
0.712
0.712002
0.712003
0.712005
0.712006
0.712008
0.71201
0.712012
0.712014
0.712017
0.712019
0.712022
0.712025
0.712028
0.712031
0.712035
0.712038
0.712042
0.712046
0.71205
0.712054
0.712059
0.712063
0.712068
0.712073
0.712078
0.712083
0.712089
0.712095
0.7121
0.712106
0.712113
0.712119
0.712126
0.712133
0.71214
0.712147
0.712155
0.712163
0.712171
0.712179
0.712188
0.712197
0.712207
0.712217
0.712227
0.712239
0.71225
0.712262
0.712276
0.71229
0.712304
0.712321
0.712338
0.712357
0.712377
0.7124
0.712425
0.712452
0.712482
0.712514
0.71255
0.712589
0.712632
0.712678
0.712728
0.712781
0.712837
0.712895
0.712957
0.713019
0.713083
0.713147
0.713211
0.713273
0.713334
0.713392
0.713446
0.713496
0.713542
0.713583
0.713619
0.71365
0.713675
0.713695
0.71371
0.71372
0.713725
0.713727
0.713725
0.713719
0.713711
0.713701
0.713689
0.713675
0.713661
0.713645
0.71363
0.713614
0.713598
0.713583
0.712001
0.712
0.711999
0.711999
0.711997
0.711997
0.711995
0.711995
0.711994
0.711994
0.711993
0.711994
0.711993
0.711994
0.711994
0.711994
0.711995
0.711996
0.711996
0.711997
0.711998
0.711999
0.712001
0.712002
0.712004
0.712005
0.712007
0.712009
0.712011
0.712014
0.712016
0.712019
0.712021
0.712024
0.712027
0.712031
0.712034
0.712038
0.712041
0.712045
0.712049
0.712054
0.712058
0.712063
0.712067
0.712072
0.712077
0.712083
0.712088
0.712094
0.7121
0.712106
0.712112
0.712118
0.712125
0.712132
0.712139
0.712146
0.712154
0.712162
0.71217
0.712178
0.712187
0.712196
0.712206
0.712216
0.712226
0.712237
0.712248
0.71226
0.712273
0.712287
0.712302
0.712318
0.712335
0.712354
0.712374
0.712396
0.712421
0.712448
0.712478
0.71251
0.712546
0.712585
0.712628
0.712674
0.712724
0.712776
0.712832
0.71289
0.712951
0.713013
0.713075
0.713138
0.713201
0.713262
0.713321
0.713377
0.713429
0.713478
0.713521
0.71356
0.713594
0.713623
0.713646
0.713665
0.713678
0.713687
0.713692
0.713693
0.71369
0.713685
0.713677
0.713667
0.713655
0.713642
0.713628
0.713614
0.7136
0.713585
0.713571
0.713557
0.711989
0.711992
0.711989
0.711993
0.711991
0.711994
0.711992
0.711994
0.711993
0.711994
0.711993
0.711994
0.711993
0.711994
0.711994
0.711994
0.711995
0.711995
0.711996
0.711997
0.711998
0.711999
0.712
0.712002
0.712003
0.712005
0.712007
0.712009
0.712011
0.712013
0.712016
0.712018
0.712021
0.712024
0.712027
0.71203
0.712034
0.712037
0.712041
0.712045
0.712049
0.712053
0.712058
0.712062
0.712067
0.712072
0.712077
0.712082
0.712088
0.712093
0.712099
0.712105
0.712111
0.712118
0.712125
0.712131
0.712138
0.712146
0.712153
0.712161
0.712169
0.712178
0.712186
0.712195
0.712205
0.712214
0.712225
0.712236
0.712247
0.712259
0.712272
0.712285
0.7123
0.712316
0.712333
0.712352
0.712372
0.712395
0.712419
0.712446
0.712476
0.712509
0.712545
0.712584
0.712627
0.712673
0.712722
0.712774
0.712829
0.712886
0.712945
0.713005
0.713066
0.713127
0.713187
0.713245
0.713301
0.713354
0.713403
0.713448
0.713489
0.713524
0.713555
0.713581
0.713602
0.713618
0.713629
0.713636
0.71364
0.71364
0.713637
0.713631
0.713624
0.713614
0.713603
0.713592
0.713579
0.713567
0.713554
0.713541
0.713529
0.713517
0.712
0.712
0.711997
0.711997
0.711994
0.711994
0.711992
0.711992
0.711991
0.711991
0.71199
0.711991
0.711991
0.711991
0.711991
0.711992
0.711993
0.711993
0.711994
0.711995
0.711996
0.711997
0.711999
0.712
0.712002
0.712004
0.712006
0.712008
0.71201
0.712012
0.712015
0.712017
0.71202
0.712023
0.712026
0.71203
0.712033
0.712037
0.71204
0.712044
0.712048
0.712053
0.712057
0.712062
0.712066
0.712071
0.712076
0.712082
0.712087
0.712093
0.712099
0.712105
0.712111
0.712117
0.712124
0.712131
0.712138
0.712145
0.712153
0.71216
0.712168
0.712177
0.712185
0.712194
0.712204
0.712214
0.712224
0.712235
0.712246
0.712259
0.712272
0.712285
0.7123
0.712317
0.712334
0.712353
0.712374
0.712397
0.712423
0.71245
0.712481
0.712514
0.71255
0.71259
0.712632
0.712678
0.712726
0.712778
0.712831
0.712887
0.712944
0.713001
0.713059
0.713116
0.713172
0.713226
0.713278
0.713326
0.71337
0.71341
0.713446
0.713477
0.713504
0.713525
0.713542
0.713555
0.713564
0.713569
0.713571
0.71357
0.713567
0.713561
0.713554
0.713546
0.713536
0.713526
0.713516
0.713505
0.713495
0.713485
0.713475
0.713466
0.711969
0.711983
0.711977
0.711988
0.711985
0.711991
0.711988
0.711991
0.71199
0.711992
0.711991
0.711992
0.711992
0.711992
0.711992
0.711993
0.711993
0.711994
0.711995
0.711996
0.711997
0.711998
0.711999
0.712
0.712002
0.712004
0.712006
0.712008
0.71201
0.712012
0.712015
0.712017
0.71202
0.712023
0.712026
0.712029
0.712033
0.712036
0.71204
0.712044
0.712048
0.712053
0.712057
0.712062
0.712066
0.712071
0.712076
0.712082
0.712087
0.712093
0.712098
0.712105
0.712111
0.712117
0.712124
0.712131
0.712138
0.712145
0.712153
0.712161
0.712169
0.712177
0.712186
0.712195
0.712205
0.712215
0.712226
0.712237
0.712249
0.712262
0.712275
0.71229
0.712305
0.712322
0.712341
0.712361
0.712382
0.712406
0.712432
0.712461
0.712492
0.712526
0.712562
0.712602
0.712644
0.712689
0.712737
0.712786
0.712838
0.712891
0.712944
0.712998
0.713051
0.713104
0.713154
0.713202
0.713247
0.713289
0.713327
0.713361
0.713391
0.713416
0.713437
0.713455
0.713468
0.713477
0.713483
0.713486
0.713487
0.713485
0.713482
0.713477
0.713471
0.713464
0.713456
0.713449
0.713441
0.713433
0.713425
0.713418
0.713412
0.713406
0.711993
0.712
0.711992
0.711994
0.711989
0.71199
0.711988
0.711989
0.711988
0.711989
0.711988
0.711989
0.711989
0.71199
0.71199
0.711991
0.711992
0.711993
0.711993
0.711995
0.711996
0.711997
0.711998
0.712
0.712002
0.712003
0.712005
0.712007
0.71201
0.712012
0.712015
0.712017
0.71202
0.712023
0.712026
0.71203
0.712033
0.712037
0.71204
0.712044
0.712048
0.712053
0.712057
0.712062
0.712067
0.712072
0.712077
0.712082
0.712088
0.712094
0.712099
0.712106
0.712112
0.712119
0.712125
0.712132
0.71214
0.712147
0.712155
0.712164
0.712172
0.712181
0.71219
0.7122
0.71221
0.712221
0.712232
0.712245
0.712257
0.712271
0.712286
0.712301
0.712318
0.712336
0.712356
0.712377
0.712401
0.712426
0.712453
0.712483
0.712515
0.712549
0.712586
0.712626
0.712667
0.712711
0.712757
0.712804
0.712852
0.712901
0.71295
0.712998
0.713046
0.713091
0.713135
0.713176
0.713213
0.713248
0.713278
0.713305
0.713328
0.713348
0.713363
0.713376
0.713385
0.713391
0.713395
0.713396
0.713396
0.713394
0.713391
0.713387
0.713383
0.713378
0.713373
0.713368
0.713363
0.713359
0.713355
0.713351
0.713348
0.713344
0.71189
0.711972
0.711966
0.71199
0.711985
0.711994
0.711991
0.711994
0.711993
0.711994
0.711993
0.711994
0.711993
0.711994
0.711994
0.711994
0.711994
0.711995
0.711996
0.711997
0.711998
0.711999
0.712
0.712001
0.712003
0.712005
0.712006
0.712008
0.712011
0.712013
0.712015
0.712018
0.712021
0.712024
0.712027
0.71203
0.712034
0.712038
0.712041
0.712046
0.71205
0.712054
0.712058
0.712064
0.712068
0.712074
0.712079
0.712085
0.71209
0.712096
0.712102
0.712109
0.712116
0.712123
0.71213
0.712137
0.712145
0.712153
0.712162
0.712171
0.71218
0.71219
0.7122
0.712211
0.712222
0.712234
0.712247
0.71226
0.712275
0.71229
0.712306
0.712324
0.712342
0.712362
0.712384
0.712407
0.712432
0.712459
0.712487
0.712518
0.712551
0.712586
0.712622
0.712661
0.712701
0.712743
0.712785
0.712829
0.712872
0.712916
0.712959
0.713
0.71304
0.713078
0.713114
0.713146
0.713176
0.713203
0.713226
0.713246
0.713262
0.713276
0.713287
0.713295
0.713301
0.713305
0.713307
0.713308
0.713308
0.713307
0.713305
0.713303
0.713301
0.713299
0.713297
0.713295
0.713293
0.713292
0.713291
0.71329
0.71329
0.71329
0.712248
0.712206
0.712199
0.712158
0.712145
0.712102
0.712087
0.712036
0.712026
0.711953
0.71197
0.711997
0.711991
0.711996
0.711991
0.711993
0.71199
0.711992
0.71199
0.711991
0.71199
0.711991
0.711991
0.711992
0.711992
0.711993
0.711994
0.711995
0.711995
0.711996
0.711997
0.711999
0.712
0.712002
0.712003
0.712005
0.712007
0.712009
0.712012
0.712014
0.712017
0.71202
0.712022
0.712026
0.712029
0.712032
0.712036
0.71204
0.712044
0.712048
0.712053
0.712057
0.712062
0.712067
0.712073
)
;

boundaryField
{
    inlet
    {
        type            zeroGradient;
    }
    outlet
    {
        type            fixedValue;
        value           nonuniform 0();
    }
    walls
    {
        type            zeroGradient;
    }
    symwall
    {
        type            empty;
    }
    procBoundary0to1
    {
        type            processor;
        value           nonuniform List<scalar> 10(0.713592 0.71359 0.713584 0.713569 0.713544 0.713506 0.713457 0.7134 0.713343 0.713292);
    }
    procBoundary0to2
    {
        type            processor;
        value           nonuniform List<scalar> 
133
(
0.712078
0.712084
0.71209
0.712096
0.712103
0.71211
0.712117
0.712124
0.712132
0.71214
0.712148
0.712157
0.712167
0.712176
0.712186
0.712197
0.712208
0.71222
0.712233
0.712246
0.71226
0.712274
0.71229
0.712306
0.712323
0.712342
0.712362
0.712382
0.712405
0.712428
0.712453
0.71248
0.712508
0.712538
0.712569
0.712602
0.712637
0.712672
0.712709
0.712747
0.712785
0.712823
0.712862
0.712899
0.712936
0.712972
0.713006
0.713038
0.713068
0.713095
0.71312
0.713142
0.713161
0.713177
0.713191
0.713202
0.713211
0.713218
0.713224
0.713228
0.713231
0.713233
0.713234
0.713235
0.713235
0.713236
0.713236
0.713236
0.713237
0.713237
0.713238
0.713239
0.713241
0.713243
0.713245
0.713247
0.71325
0.712257
0.712209
0.712203
0.71216
0.712147
0.712104
0.712088
0.712037
0.712022
0.711953
0.711929
0.711981
0.711974
0.711996
0.71199
0.711999
0.711995
0.711999
0.711996
0.711998
0.711996
0.711997
0.711996
0.711997
0.711996
0.711997
0.711997
0.711997
0.711998
0.711999
0.712
0.712001
0.712002
0.712004
0.712005
0.712007
0.712009
0.712011
0.712014
0.712016
0.712019
0.712022
0.712025
0.712029
0.712032
0.712036
0.71204
0.712044
0.712049
0.712053
0.712058
0.712063
0.712069
0.712075
0.712078
0.71208
)
;
    }
}


// ************************************************************************* //
