/*--------------------------------*- C++ -*----------------------------------*\
| =========                 |                                                 |
| \\      /  F ield         | OpenFOAM: The Open Source CFD Toolbox           |
|  \\    /   O peration     | Version:  4.1                                   |
|   \\  /    A nd           | Web:      www.OpenFOAM.org                      |
|    \\/     M anipulation  |                                                 |
\*---------------------------------------------------------------------------*/
FoamFile
{
    version     2.0;
    format      ascii;
    class       volScalarField;
    location    "368";
    object      p;
}
// * * * * * * * * * * * * * * * * * * * * * * * * * * * * * * * * * * * * * //

dimensions      [1 -1 -2 0 0 0 0];

internalField   nonuniform List<scalar> 
3264
(
0.712476
0.712474
0.712473
0.712473
0.712472
0.712473
0.712474
0.712476
0.712479
0.712482
0.712486
0.712491
0.712498
0.712505
0.712513
0.712522
0.712532
0.712544
0.712556
0.712569
0.712584
0.7126
0.712617
0.712635
0.712655
0.712677
0.7127
0.712725
0.712753
0.712782
0.712813
0.712847
0.712884
0.712923
0.712965
0.71301
0.713058
0.713109
0.713163
0.71322
0.713279
0.713341
0.713405
0.713471
0.713539
0.713608
0.713677
0.713747
0.713816
0.713885
0.713952
0.714017
0.71408
0.714141
0.714198
0.714252
0.714301
0.714347
0.714389
0.714426
0.714458
0.714487
0.714511
0.714532
0.714548
0.714561
0.714571
0.714579
0.714583
0.714586
0.714587
0.714587
0.714585
0.714583
0.714581
0.714578
0.714576
0.714573
0.714571
0.71457
0.714569
0.714568
0.714569
0.714569
0.714571
0.714573
0.714575
0.714578
0.714582
0.714585
0.714589
0.714593
0.714597
0.714602
0.714606
0.71461
0.714614
0.714618
0.714621
0.714625
0.714628
0.714631
0.714633
0.714635
0.714637
0.714639
0.714641
0.714642
0.714643
0.714644
0.714645
0.714645
0.714645
0.714646
0.714646
0.714646
0.714645
0.714645
0.714645
0.714645
0.714644
0.714644
0.714644
0.714643
0.714643
0.714643
0.714643
0.714643
0.714643
0.714643
0.714644
0.714644
0.714645
0.714646
0.714647
0.714648
0.714649
0.71465
0.71465
0.714651
0.714652
0.714653
0.714653
0.714653
0.714653
0.714653
0.714652
0.71465
0.714649
0.714646
0.714644
0.71464
0.714637
0.714632
0.714628
0.714622
0.714617
0.71461
0.714604
0.714597
0.714589
0.714582
0.714574
0.714566
0.714557
0.714549
0.714541
0.714532
0.714524
0.714515
0.714507
0.714499
0.714491
0.714483
0.714475
0.714468
0.71446
0.714453
0.714446
0.714439
0.714433
0.714426
0.714419
0.714413
0.714406
0.7144
0.714393
0.714387
0.71438
0.714373
0.714366
0.714358
0.714351
0.714343
0.714335
0.714327
0.714318
0.714309
0.7143
0.714291
0.712477
0.712476
0.712475
0.712475
0.712475
0.712475
0.712477
0.712478
0.712481
0.712484
0.712488
0.712493
0.7125
0.712507
0.712515
0.712524
0.712534
0.712545
0.712557
0.712571
0.712585
0.712601
0.712618
0.712637
0.712657
0.712678
0.712701
0.712726
0.712753
0.712782
0.712813
0.712847
0.712883
0.712921
0.712963
0.713008
0.713055
0.713106
0.713159
0.713215
0.713274
0.713336
0.713399
0.713465
0.713532
0.713601
0.71367
0.713739
0.713809
0.713877
0.713944
0.71401
0.714073
0.714133
0.71419
0.714244
0.714294
0.71434
0.714381
0.714418
0.714451
0.71448
0.714505
0.714525
0.714542
0.714556
0.714566
0.714573
0.714579
0.714582
0.714583
0.714583
0.714582
0.714581
0.714579
0.714577
0.714575
0.714573
0.714571
0.71457
0.71457
0.71457
0.71457
0.714571
0.714573
0.714575
0.714578
0.714581
0.714584
0.714588
0.714592
0.714596
0.7146
0.714604
0.714609
0.714613
0.714616
0.71462
0.714624
0.714627
0.71463
0.714633
0.714635
0.714637
0.714639
0.714641
0.714642
0.714643
0.714644
0.714645
0.714645
0.714646
0.714646
0.714646
0.714646
0.714646
0.714645
0.714645
0.714645
0.714644
0.714644
0.714643
0.714643
0.714643
0.714642
0.714642
0.714642
0.714642
0.714642
0.714642
0.714643
0.714643
0.714644
0.714644
0.714645
0.714646
0.714647
0.714648
0.714649
0.71465
0.71465
0.714651
0.714651
0.714652
0.714652
0.714651
0.71465
0.714649
0.714647
0.714645
0.714643
0.71464
0.714636
0.714632
0.714627
0.714622
0.714616
0.71461
0.714604
0.714597
0.71459
0.714582
0.714574
0.714566
0.714558
0.714549
0.714541
0.714532
0.714524
0.714515
0.714507
0.714499
0.714491
0.714483
0.714475
0.714467
0.71446
0.714453
0.714446
0.714439
0.714432
0.714426
0.714419
0.714413
0.714406
0.7144
0.714393
0.714386
0.71438
0.714373
0.714366
0.714358
0.714351
0.714343
0.714335
0.714327
0.714318
0.714309
0.7143
0.714292
0.712479
0.712477
0.712476
0.712475
0.712475
0.712475
0.712476
0.712477
0.71248
0.712483
0.712487
0.712492
0.712498
0.712505
0.712513
0.712523
0.712533
0.712544
0.712556
0.71257
0.712584
0.7126
0.712617
0.712635
0.712655
0.712676
0.712699
0.712724
0.71275
0.712779
0.71281
0.712843
0.712879
0.712917
0.712958
0.713003
0.71305
0.7131
0.713153
0.713209
0.713268
0.713329
0.713393
0.713458
0.713526
0.713594
0.713663
0.713732
0.713802
0.71387
0.713937
0.714002
0.714065
0.714126
0.714183
0.714236
0.714286
0.714332
0.714373
0.71441
0.714443
0.714472
0.714496
0.714517
0.714534
0.714547
0.714557
0.714565
0.71457
0.714574
0.714575
0.714576
0.714575
0.714574
0.714572
0.714571
0.714569
0.714567
0.714566
0.714566
0.714566
0.714566
0.714567
0.714569
0.714571
0.714573
0.714577
0.71458
0.714584
0.714588
0.714592
0.714597
0.714601
0.714606
0.71461
0.714614
0.714618
0.714622
0.714625
0.714629
0.714632
0.714634
0.714637
0.714639
0.714641
0.714642
0.714644
0.714645
0.714645
0.714646
0.714646
0.714647
0.714647
0.714647
0.714647
0.714646
0.714646
0.714646
0.714645
0.714645
0.714644
0.714644
0.714643
0.714643
0.714642
0.714642
0.714642
0.714642
0.714642
0.714642
0.714642
0.714643
0.714643
0.714644
0.714644
0.714645
0.714646
0.714647
0.714648
0.714649
0.714649
0.71465
0.714651
0.714651
0.714651
0.71465
0.714649
0.714648
0.714647
0.714645
0.714642
0.714639
0.714635
0.714631
0.714627
0.714622
0.714616
0.71461
0.714603
0.714597
0.714589
0.714582
0.714574
0.714566
0.714558
0.714549
0.714541
0.714532
0.714524
0.714515
0.714507
0.714499
0.714491
0.714483
0.714475
0.714467
0.71446
0.714453
0.714446
0.714439
0.714432
0.714426
0.714419
0.714413
0.714406
0.7144
0.714393
0.714386
0.71438
0.714373
0.714366
0.714358
0.714351
0.714343
0.714335
0.714327
0.714318
0.71431
0.7143
0.714292
0.712473
0.712473
0.712471
0.712472
0.712472
0.712473
0.712473
0.712475
0.712477
0.712481
0.712485
0.71249
0.712496
0.712503
0.712511
0.712521
0.712531
0.712542
0.712554
0.712568
0.712582
0.712598
0.712615
0.712633
0.712652
0.712673
0.712696
0.71272
0.712746
0.712775
0.712805
0.712838
0.712873
0.712911
0.712952
0.712996
0.713043
0.713093
0.713146
0.713201
0.71326
0.713321
0.713384
0.713449
0.713516
0.713584
0.713653
0.713722
0.71379
0.713858
0.713925
0.713989
0.714052
0.714111
0.714167
0.71422
0.714269
0.714314
0.714355
0.714391
0.714423
0.714451
0.714475
0.714496
0.714512
0.714525
0.714536
0.714543
0.714549
0.714553
0.714555
0.714556
0.714556
0.714555
0.714555
0.714554
0.714553
0.714553
0.714553
0.714553
0.714554
0.714556
0.714558
0.71456
0.714563
0.714567
0.714571
0.714576
0.71458
0.714585
0.71459
0.714595
0.714601
0.714606
0.71461
0.714615
0.71462
0.714624
0.714628
0.714631
0.714635
0.714638
0.71464
0.714642
0.714644
0.714646
0.714647
0.714648
0.714648
0.714649
0.714649
0.714649
0.714649
0.714649
0.714649
0.714648
0.714648
0.714647
0.714647
0.714646
0.714645
0.714645
0.714644
0.714643
0.714643
0.714643
0.714642
0.714642
0.714642
0.714642
0.714642
0.714642
0.714643
0.714643
0.714644
0.714644
0.714645
0.714646
0.714647
0.714647
0.714648
0.714648
0.714649
0.714649
0.714649
0.714648
0.714647
0.714646
0.714644
0.714642
0.71464
0.714637
0.714633
0.714629
0.714625
0.71462
0.714614
0.714608
0.714602
0.714595
0.714588
0.714581
0.714573
0.714565
0.714557
0.714549
0.714541
0.714532
0.714524
0.714516
0.714507
0.714499
0.714491
0.714483
0.714475
0.714468
0.71446
0.714453
0.714446
0.714439
0.714433
0.714426
0.714419
0.714413
0.714406
0.7144
0.714393
0.714387
0.71438
0.714373
0.714366
0.714358
0.714351
0.714343
0.714335
0.714327
0.714318
0.71431
0.714301
0.714292
0.71247
0.71247
0.712468
0.712468
0.712467
0.712467
0.712468
0.71247
0.712473
0.712476
0.712481
0.712486
0.712493
0.7125
0.712508
0.712518
0.712528
0.712539
0.712551
0.712565
0.712579
0.712595
0.712612
0.71263
0.712649
0.71267
0.712693
0.712717
0.712743
0.712771
0.712801
0.712834
0.712869
0.712907
0.712948
0.712992
0.713038
0.713088
0.71314
0.713196
0.713254
0.713315
0.713377
0.713442
0.713508
0.713576
0.713644
0.713711
0.713779
0.713846
0.713911
0.713974
0.714035
0.714093
0.714147
0.714198
0.714245
0.714288
0.714327
0.714362
0.714393
0.714419
0.714442
0.714461
0.714476
0.714489
0.714499
0.714506
0.714512
0.714516
0.714518
0.71452
0.714521
0.714522
0.714523
0.714523
0.714524
0.714525
0.714527
0.714529
0.714531
0.714534
0.714538
0.714542
0.714547
0.714552
0.714558
0.714564
0.71457
0.714576
0.714582
0.714589
0.714595
0.714601
0.714607
0.714613
0.714619
0.714624
0.714629
0.714633
0.714637
0.714641
0.714644
0.714647
0.714649
0.714651
0.714652
0.714653
0.714654
0.714655
0.714655
0.714655
0.714655
0.714654
0.714654
0.714653
0.714652
0.714651
0.714651
0.71465
0.714649
0.714648
0.714647
0.714646
0.714646
0.714645
0.714644
0.714644
0.714644
0.714643
0.714643
0.714643
0.714644
0.714644
0.714644
0.714645
0.714645
0.714646
0.714646
0.714647
0.714647
0.714647
0.714647
0.714647
0.714646
0.714646
0.714645
0.714643
0.714641
0.714639
0.714636
0.714633
0.714629
0.714625
0.714621
0.714616
0.71461
0.714605
0.714598
0.714592
0.714585
0.714578
0.714571
0.714563
0.714555
0.714548
0.71454
0.714532
0.714523
0.714515
0.714507
0.714499
0.714492
0.714484
0.714476
0.714469
0.714462
0.714454
0.714447
0.714441
0.714434
0.714427
0.71442
0.714414
0.714407
0.714401
0.714394
0.714387
0.71438
0.714373
0.714366
0.714359
0.714351
0.714343
0.714335
0.714327
0.714318
0.71431
0.714301
0.714292
0.712438
0.712453
0.712453
0.712459
0.71246
0.712462
0.712464
0.712467
0.71247
0.712474
0.712478
0.712484
0.712491
0.712498
0.712506
0.712516
0.712526
0.712538
0.71255
0.712563
0.712578
0.712594
0.71261
0.712629
0.712648
0.712669
0.712691
0.712716
0.712742
0.71277
0.7128
0.712833
0.712868
0.712906
0.712947
0.712991
0.713037
0.713087
0.713139
0.713195
0.713252
0.713312
0.713375
0.713439
0.713504
0.71357
0.713636
0.713702
0.713768
0.713832
0.713895
0.713956
0.714014
0.714069
0.71412
0.714168
0.714212
0.714252
0.714288
0.71432
0.714348
0.714372
0.714392
0.714409
0.714423
0.714435
0.714444
0.714451
0.714457
0.714462
0.714465
0.714468
0.714471
0.714473
0.714475
0.714478
0.714481
0.714484
0.714488
0.714493
0.714497
0.714503
0.714509
0.714515
0.714522
0.714529
0.714537
0.714544
0.714552
0.714561
0.714569
0.714577
0.714585
0.714593
0.714601
0.714608
0.714615
0.714622
0.714628
0.714634
0.714639
0.714644
0.714648
0.714652
0.714655
0.714658
0.71466
0.714661
0.714663
0.714663
0.714664
0.714664
0.714664
0.714663
0.714663
0.714662
0.714661
0.71466
0.714659
0.714658
0.714657
0.714655
0.714654
0.714653
0.714652
0.714651
0.71465
0.714649
0.714648
0.714648
0.714647
0.714647
0.714647
0.714646
0.714646
0.714646
0.714646
0.714646
0.714646
0.714646
0.714646
0.714646
0.714645
0.714645
0.714644
0.714642
0.714641
0.714639
0.714637
0.714634
0.714631
0.714627
0.714624
0.714619
0.714615
0.71461
0.714604
0.714599
0.714593
0.714587
0.71458
0.714573
0.714566
0.714559
0.714552
0.714545
0.714537
0.71453
0.714522
0.714515
0.714507
0.7145
0.714492
0.714485
0.714478
0.714471
0.714463
0.714456
0.714449
0.714443
0.714436
0.714429
0.714422
0.714416
0.714409
0.714402
0.714395
0.714388
0.714381
0.714374
0.714366
0.714359
0.714351
0.714343
0.714335
0.714326
0.714318
0.714309
0.7143
0.714292
0.712438
0.712454
0.712453
0.712456
0.712456
0.712459
0.712461
0.712464
0.712468
0.712472
0.712477
0.712483
0.71249
0.712497
0.712506
0.712516
0.712526
0.712538
0.71255
0.712564
0.712578
0.712594
0.712611
0.71263
0.712649
0.712671
0.712694
0.712718
0.712745
0.712773
0.712804
0.712837
0.712873
0.712912
0.712953
0.712997
0.713044
0.713094
0.713146
0.713202
0.713259
0.713318
0.71338
0.713442
0.713506
0.71357
0.713634
0.713698
0.713761
0.713822
0.713881
0.713938
0.713992
0.714043
0.71409
0.714133
0.714173
0.714208
0.71424
0.714268
0.714292
0.714313
0.71433
0.714345
0.714358
0.714368
0.714377
0.714384
0.71439
0.714395
0.7144
0.714405
0.714409
0.714414
0.714419
0.714424
0.71443
0.714436
0.714442
0.714449
0.714457
0.714465
0.714473
0.714482
0.714491
0.714501
0.714511
0.714521
0.714531
0.714541
0.714551
0.714561
0.714571
0.714581
0.714591
0.7146
0.714609
0.714618
0.714626
0.714633
0.71464
0.714647
0.714652
0.714657
0.714662
0.714666
0.714669
0.714672
0.714674
0.714675
0.714677
0.714677
0.714677
0.714677
0.714677
0.714676
0.714675
0.714674
0.714672
0.714671
0.714669
0.714668
0.714666
0.714665
0.714663
0.714661
0.71466
0.714659
0.714657
0.714656
0.714655
0.714654
0.714653
0.714652
0.714651
0.714651
0.71465
0.714649
0.714648
0.714647
0.714646
0.714645
0.714644
0.714642
0.714641
0.714639
0.714636
0.714634
0.714631
0.714627
0.714624
0.71462
0.714616
0.714611
0.714606
0.714601
0.714596
0.71459
0.714585
0.714579
0.714573
0.714567
0.71456
0.714554
0.714547
0.714541
0.714534
0.714527
0.714521
0.714514
0.714507
0.7145
0.714493
0.714486
0.71448
0.714473
0.714466
0.714459
0.714452
0.714445
0.714439
0.714432
0.714425
0.714418
0.714411
0.714404
0.714397
0.71439
0.714382
0.714375
0.714367
0.714359
0.714351
0.714343
0.714335
0.714326
0.714318
0.714309
0.7143
0.714291
0.712283
0.712422
0.712439
0.71246
0.712463
0.712466
0.712468
0.71247
0.712473
0.712477
0.712481
0.712487
0.712493
0.712501
0.712509
0.712519
0.71253
0.712541
0.712554
0.712568
0.712583
0.712599
0.712617
0.712636
0.712656
0.712678
0.712702
0.712728
0.712755
0.712785
0.712817
0.712851
0.712888
0.712928
0.71297
0.713015
0.713063
0.713113
0.713166
0.713221
0.713278
0.713336
0.713396
0.713457
0.713519
0.71358
0.713642
0.713702
0.71376
0.713817
0.713871
0.713923
0.713971
0.714016
0.714058
0.714095
0.714129
0.714159
0.714186
0.714209
0.714229
0.714247
0.714262
0.714274
0.714285
0.714295
0.714303
0.714311
0.714318
0.714325
0.714332
0.714339
0.714346
0.714353
0.714361
0.714369
0.714378
0.714387
0.714396
0.714406
0.714416
0.714427
0.714438
0.714449
0.714461
0.714473
0.714484
0.714497
0.714509
0.714521
0.714533
0.714545
0.714557
0.714569
0.71458
0.714592
0.714602
0.714613
0.714623
0.714632
0.714641
0.714649
0.714656
0.714663
0.714669
0.714675
0.71468
0.714684
0.714687
0.71469
0.714692
0.714693
0.714694
0.714694
0.714694
0.714694
0.714693
0.714692
0.714691
0.714689
0.714687
0.714685
0.714683
0.714681
0.714679
0.714677
0.714675
0.714673
0.714671
0.714669
0.714667
0.714665
0.714663
0.714661
0.714659
0.714658
0.714656
0.714654
0.714652
0.71465
0.714648
0.714646
0.714643
0.714641
0.714638
0.714635
0.714631
0.714628
0.714624
0.71462
0.714616
0.714611
0.714606
0.714602
0.714596
0.714591
0.714586
0.714581
0.714575
0.71457
0.714564
0.714558
0.714553
0.714547
0.714541
0.714536
0.71453
0.714524
0.714518
0.714512
0.714506
0.7145
0.714494
0.714488
0.714482
0.714475
0.714469
0.714462
0.714456
0.714449
0.714442
0.714435
0.714428
0.714421
0.714414
0.714407
0.714399
0.714392
0.714384
0.714376
0.714368
0.71436
0.714352
0.714343
0.714335
0.714326
0.714317
0.714308
0.714299
0.71429
0.713009
0.712953
0.712891
0.712824
0.712751
0.712673
0.712587
0.712468
0.713015
0.712969
0.712906
0.712837
0.712764
0.712686
0.712596
0.712499
0.713019
0.71298
0.712922
0.712857
0.712788
0.712716
0.712646
0.712576
0.713029
0.712995
0.712943
0.712881
0.712817
0.712753
0.71269
0.712632
0.713042
0.71301
0.71296
0.712904
0.712845
0.712788
0.712734
0.712686
0.713056
0.713023
0.712975
0.712921
0.712867
0.712815
0.712767
0.712724
0.713071
0.713034
0.712984
0.712931
0.71288
0.712832
0.712788
0.712748
0.713079
0.713032
0.712982
0.712932
0.712883
0.712837
0.712794
0.712755
0.712407
0.712428
0.712448
0.712459
0.712465
0.712468
0.712471
0.712473
0.712476
0.71248
0.712485
0.712491
0.712498
0.712506
0.712515
0.712525
0.712536
0.712549
0.712562
0.712577
0.712593
0.71261
0.712629
0.712649
0.712671
0.712695
0.71272
0.712747
0.712777
0.712808
0.712842
0.712879
0.712917
0.712959
0.713002
0.713049
0.713097
0.713148
0.713201
0.713256
0.713312
0.71337
0.713428
0.713487
0.713545
0.713603
0.71366
0.713715
0.713769
0.713819
0.713867
0.713912
0.713954
0.713992
0.714027
0.714058
0.714086
0.71411
0.714132
0.714151
0.714167
0.714182
0.714195
0.714206
0.714217
0.714226
0.714236
0.714245
0.714254
0.714263
0.714273
0.714282
0.714292
0.714303
0.714313
0.714324
0.714335
0.714347
0.714359
0.714371
0.714384
0.714396
0.714409
0.714423
0.714436
0.71445
0.714463
0.714477
0.714491
0.714504
0.714518
0.714532
0.714545
0.714559
0.714572
0.714585
0.714597
0.714609
0.714621
0.714632
0.714642
0.714652
0.714661
0.71467
0.714677
0.714684
0.714691
0.714696
0.714701
0.714705
0.714708
0.71471
0.714712
0.714713
0.714714
0.714714
0.714713
0.714713
0.714711
0.71471
0.714708
0.714706
0.714703
0.714701
0.714698
0.714695
0.714692
0.71469
0.714687
0.714684
0.714681
0.714678
0.714675
0.714672
0.71467
0.714667
0.714664
0.714661
0.714657
0.714654
0.714651
0.714647
0.714643
0.714639
0.714635
0.714631
0.714627
0.714622
0.714617
0.714612
0.714607
0.714602
0.714597
0.714591
0.714586
0.714581
0.714575
0.71457
0.714565
0.71456
0.714555
0.71455
0.714545
0.71454
0.714535
0.71453
0.714525
0.714521
0.714516
0.714511
0.714506
0.7145
0.714495
0.714489
0.714484
0.714478
0.714472
0.714466
0.714459
0.714453
0.714446
0.714439
0.714432
0.714425
0.714417
0.71441
0.714402
0.714394
0.714386
0.714378
0.714369
0.714361
0.714352
0.714344
0.714335
0.714326
0.714317
0.714308
0.714299
0.714289
0.712428
0.712438
0.712451
0.712464
0.712471
0.712476
0.71248
0.712483
0.712486
0.71249
0.712495
0.712501
0.712508
0.712517
0.712526
0.712537
0.712549
0.712562
0.712577
0.712593
0.712611
0.71263
0.71265
0.712673
0.712697
0.712722
0.71275
0.71278
0.712812
0.712846
0.712882
0.712921
0.712962
0.713006
0.713051
0.713099
0.713149
0.7132
0.713253
0.713307
0.713363
0.713418
0.713474
0.713529
0.713583
0.713637
0.713688
0.713737
0.713784
0.713827
0.713868
0.713906
0.71394
0.713971
0.713999
0.714024
0.714046
0.714065
0.714083
0.714099
0.714113
0.714126
0.714139
0.714151
0.714162
0.714173
0.714185
0.714196
0.714208
0.714219
0.714231
0.714243
0.714255
0.714268
0.714281
0.714294
0.714307
0.714321
0.714334
0.714348
0.714362
0.714376
0.714391
0.714405
0.71442
0.714434
0.714449
0.714464
0.714479
0.714494
0.714509
0.714524
0.714538
0.714553
0.714567
0.714581
0.714595
0.714608
0.714621
0.714633
0.714645
0.714656
0.714667
0.714677
0.714686
0.714694
0.714702
0.714708
0.714714
0.714719
0.714724
0.714727
0.71473
0.714732
0.714733
0.714734
0.714734
0.714733
0.714732
0.71473
0.714728
0.714726
0.714724
0.714721
0.714718
0.714714
0.714711
0.714707
0.714704
0.7147
0.714696
0.714692
0.714688
0.714684
0.71468
0.714676
0.714672
0.714667
0.714663
0.714658
0.714653
0.714649
0.714643
0.714638
0.714633
0.714627
0.714622
0.714616
0.714611
0.714605
0.714599
0.714593
0.714587
0.714582
0.714576
0.714571
0.714566
0.71456
0.714556
0.714551
0.714546
0.714542
0.714538
0.714534
0.71453
0.714526
0.714522
0.714518
0.714514
0.714509
0.714505
0.714501
0.714496
0.714491
0.714486
0.714481
0.714475
0.714469
0.714463
0.714456
0.71445
0.714443
0.714436
0.714428
0.71442
0.714413
0.714404
0.714396
0.714388
0.714379
0.714371
0.714362
0.714353
0.714344
0.714335
0.714326
0.714317
0.714308
0.714298
0.714289
0.712523
0.7125
0.712493
0.712493
0.712494
0.712496
0.712497
0.712499
0.712502
0.712505
0.71251
0.712516
0.712524
0.712532
0.712543
0.712554
0.712567
0.712582
0.712598
0.712616
0.712636
0.712657
0.71268
0.712705
0.712731
0.71276
0.712791
0.712823
0.712858
0.712895
0.712935
0.712976
0.71302
0.713065
0.713113
0.713162
0.713212
0.713264
0.713316
0.713369
0.713422
0.713475
0.713526
0.713577
0.713626
0.713673
0.713718
0.71376
0.713799
0.713836
0.713869
0.713899
0.713927
0.713951
0.713974
0.713994
0.714013
0.71403
0.714046
0.714061
0.714075
0.714089
0.714102
0.714116
0.714129
0.714142
0.714155
0.714168
0.714182
0.714195
0.714209
0.714222
0.714236
0.71425
0.714264
0.714278
0.714292
0.714307
0.714321
0.714336
0.714351
0.714366
0.714381
0.714396
0.714411
0.714427
0.714442
0.714458
0.714473
0.714489
0.714504
0.71452
0.714535
0.71455
0.714565
0.71458
0.714595
0.714609
0.714623
0.714636
0.714649
0.714661
0.714673
0.714684
0.714694
0.714703
0.714712
0.714719
0.714726
0.714732
0.714737
0.714742
0.714745
0.714748
0.71475
0.714751
0.714751
0.714751
0.71475
0.714749
0.714747
0.714744
0.714742
0.714738
0.714735
0.714731
0.714727
0.714723
0.714719
0.714714
0.71471
0.714705
0.7147
0.714695
0.71469
0.714684
0.714679
0.714673
0.714667
0.714662
0.714656
0.714649
0.714643
0.714637
0.714631
0.714624
0.714618
0.714611
0.714605
0.714598
0.714592
0.714586
0.71458
0.714574
0.714568
0.714563
0.714558
0.714553
0.714548
0.714544
0.71454
0.714536
0.714532
0.714529
0.714525
0.714522
0.714519
0.714516
0.714512
0.714509
0.714505
0.714501
0.714497
0.714493
0.714488
0.714483
0.714478
0.714472
0.714466
0.71446
0.714453
0.714446
0.714439
0.714431
0.714423
0.714415
0.714407
0.714398
0.714389
0.714381
0.714372
0.714363
0.714354
0.714344
0.714335
0.714326
0.714317
0.714308
0.714298
0.714289
0.712585
0.712558
0.712543
0.712535
0.71253
0.712527
0.712525
0.712525
0.712525
0.712528
0.712531
0.712537
0.712544
0.712553
0.712563
0.712575
0.712589
0.712605
0.712623
0.712643
0.712664
0.712687
0.712713
0.71274
0.712769
0.712801
0.712834
0.71287
0.712908
0.712948
0.71299
0.713033
0.713079
0.713126
0.713175
0.713224
0.713275
0.713325
0.713376
0.713427
0.713477
0.713525
0.713572
0.713618
0.713661
0.713701
0.713739
0.713775
0.713807
0.713837
0.713865
0.71389
0.713913
0.713935
0.713955
0.713974
0.713991
0.714008
0.714024
0.714039
0.714055
0.714069
0.714084
0.714099
0.714113
0.714128
0.714142
0.714157
0.714171
0.714185
0.7142
0.714214
0.714228
0.714243
0.714257
0.714272
0.714286
0.714301
0.714316
0.714331
0.714346
0.714362
0.714377
0.714393
0.714408
0.714424
0.71444
0.714456
0.714471
0.714487
0.714503
0.714519
0.714535
0.714551
0.714566
0.714582
0.714597
0.714612
0.714626
0.71464
0.714653
0.714666
0.714679
0.71469
0.714701
0.714711
0.71472
0.714729
0.714736
0.714743
0.714749
0.714753
0.714757
0.714761
0.714763
0.714764
0.714765
0.714765
0.714764
0.714763
0.714761
0.714758
0.714755
0.714752
0.714748
0.714744
0.71474
0.714735
0.71473
0.714725
0.714719
0.714714
0.714708
0.714702
0.714696
0.71469
0.714683
0.714677
0.71467
0.714663
0.714656
0.71465
0.714642
0.714635
0.714628
0.714621
0.714614
0.714607
0.7146
0.714593
0.714587
0.71458
0.714574
0.714568
0.714563
0.714557
0.714552
0.714548
0.714543
0.714539
0.714536
0.714532
0.714529
0.714526
0.714523
0.71452
0.714517
0.714515
0.714512
0.714509
0.714505
0.714502
0.714498
0.714494
0.71449
0.714485
0.71448
0.714474
0.714468
0.714462
0.714455
0.714448
0.714441
0.714433
0.714425
0.714417
0.714408
0.7144
0.714391
0.714382
0.714373
0.714363
0.714354
0.714345
0.714335
0.714326
0.714317
0.714308
0.714298
0.714289
0.712646
0.712617
0.712597
0.712582
0.712572
0.712564
0.712557
0.712553
0.712551
0.712551
0.712553
0.712557
0.712564
0.712572
0.712583
0.712595
0.71261
0.712627
0.712646
0.712667
0.71269
0.712715
0.712743
0.712772
0.712804
0.712838
0.712873
0.712911
0.712951
0.712993
0.713037
0.713082
0.713129
0.713176
0.713225
0.713274
0.713323
0.713372
0.71342
0.713467
0.713513
0.713557
0.7136
0.71364
0.713678
0.713714
0.713748
0.713779
0.713807
0.713833
0.713858
0.713881
0.713902
0.713922
0.713942
0.713961
0.713979
0.713997
0.714014
0.714031
0.714047
0.714063
0.714079
0.714094
0.714109
0.714124
0.714139
0.714153
0.714168
0.714182
0.714197
0.714211
0.714226
0.71424
0.714255
0.71427
0.714285
0.7143
0.714315
0.71433
0.714345
0.714361
0.714376
0.714392
0.714408
0.714424
0.71444
0.714456
0.714472
0.714488
0.714504
0.71452
0.714537
0.714553
0.714568
0.714584
0.714599
0.714614
0.714629
0.714644
0.714657
0.714671
0.714683
0.714695
0.714706
0.714717
0.714727
0.714735
0.714743
0.71475
0.714756
0.714762
0.714766
0.714769
0.714772
0.714773
0.714774
0.714774
0.714773
0.714772
0.71477
0.714768
0.714764
0.714761
0.714757
0.714752
0.714748
0.714742
0.714737
0.714731
0.714725
0.714719
0.714713
0.714706
0.7147
0.714693
0.714686
0.714678
0.714671
0.714664
0.714656
0.714649
0.714641
0.714634
0.714626
0.714619
0.714611
0.714604
0.714597
0.71459
0.714584
0.714577
0.714571
0.714565
0.71456
0.714554
0.71455
0.714545
0.714541
0.714537
0.714534
0.71453
0.714527
0.714525
0.714522
0.71452
0.714517
0.714514
0.714512
0.714509
0.714506
0.714503
0.714499
0.714495
0.714491
0.714486
0.714481
0.714476
0.71447
0.714464
0.714457
0.71445
0.714442
0.714434
0.714426
0.714418
0.714409
0.7144
0.714391
0.714382
0.714373
0.714364
0.714354
0.714345
0.714336
0.714326
0.714317
0.714308
0.714299
0.714289
0.712688
0.712659
0.712635
0.712617
0.712601
0.712589
0.712579
0.712572
0.712567
0.712566
0.712566
0.71257
0.712576
0.712584
0.712595
0.712608
0.712623
0.712641
0.712661
0.712683
0.712707
0.712734
0.712762
0.712793
0.712826
0.712861
0.712898
0.712937
0.712978
0.713021
0.713065
0.71311
0.713157
0.713204
0.713252
0.713299
0.713347
0.713393
0.713439
0.713483
0.713526
0.713567
0.713606
0.713643
0.713678
0.71371
0.713741
0.71377
0.713797
0.713824
0.713849
0.713872
0.713895
0.713917
0.713938
0.713958
0.713977
0.713995
0.714012
0.714029
0.714045
0.714061
0.714077
0.714092
0.714107
0.714122
0.714137
0.714152
0.714167
0.714182
0.714196
0.714211
0.714226
0.71424
0.714255
0.71427
0.714285
0.7143
0.714315
0.714331
0.714346
0.714362
0.714377
0.714393
0.714409
0.714425
0.714441
0.714457
0.714474
0.71449
0.714506
0.714523
0.714539
0.714555
0.714571
0.714587
0.714602
0.714618
0.714633
0.714647
0.714661
0.714674
0.714687
0.714699
0.714711
0.714721
0.714731
0.71474
0.714748
0.714755
0.714762
0.714767
0.714771
0.714775
0.714777
0.714779
0.71478
0.71478
0.714779
0.714777
0.714775
0.714772
0.714769
0.714765
0.714761
0.714756
0.714751
0.714746
0.71474
0.714734
0.714728
0.714721
0.714714
0.714708
0.7147
0.714693
0.714686
0.714678
0.714671
0.714663
0.714656
0.714648
0.71464
0.714632
0.714625
0.714617
0.71461
0.714603
0.714596
0.714589
0.714582
0.714576
0.71457
0.714564
0.714559
0.714554
0.714549
0.714544
0.71454
0.714537
0.714533
0.71453
0.714527
0.714525
0.714522
0.71452
0.714517
0.714515
0.714512
0.71451
0.714507
0.714503
0.7145
0.714496
0.714492
0.714487
0.714482
0.714477
0.714471
0.714464
0.714458
0.71445
0.714443
0.714435
0.714427
0.714418
0.71441
0.714401
0.714392
0.714382
0.714373
0.714364
0.714354
0.714345
0.714336
0.714326
0.714317
0.714308
0.714299
0.714289
0.712713
0.712683
0.712657
0.712635
0.712617
0.712602
0.71259
0.712581
0.712575
0.712572
0.712573
0.712576
0.712582
0.71259
0.712601
0.712614
0.71263
0.712648
0.712669
0.712691
0.712716
0.712743
0.712772
0.712803
0.712837
0.712872
0.712909
0.712949
0.712989
0.713032
0.713075
0.71312
0.713166
0.713212
0.713258
0.713304
0.713349
0.713394
0.713437
0.71348
0.713521
0.713561
0.713599
0.713636
0.713672
0.713705
0.713737
0.713767
0.713796
0.713822
0.713847
0.713871
0.713894
0.713915
0.713936
0.713955
0.713974
0.713993
0.71401
0.714027
0.714044
0.71406
0.714076
0.714092
0.714107
0.714122
0.714137
0.714152
0.714167
0.714182
0.714196
0.714211
0.714226
0.714241
0.714256
0.71427
0.714286
0.714301
0.714316
0.714331
0.714347
0.714362
0.714378
0.714394
0.71441
0.714426
0.714442
0.714459
0.714475
0.714491
0.714508
0.714524
0.71454
0.714557
0.714573
0.714589
0.714604
0.71462
0.714635
0.714649
0.714663
0.714677
0.714689
0.714702
0.714713
0.714724
0.714734
0.714742
0.714751
0.714758
0.714764
0.714769
0.714773
0.714777
0.714779
0.714781
0.714782
0.714782
0.714781
0.714779
0.714777
0.714774
0.714771
0.714767
0.714762
0.714757
0.714752
0.714747
0.714741
0.714734
0.714728
0.714721
0.714714
0.714707
0.7147
0.714693
0.714685
0.714678
0.71467
0.714663
0.714655
0.714647
0.714639
0.714632
0.714624
0.714617
0.714609
0.714602
0.714595
0.714588
0.714582
0.714576
0.71457
0.714564
0.714559
0.714554
0.714549
0.714545
0.714541
0.714537
0.714534
0.714531
0.714528
0.714525
0.714523
0.71452
0.714518
0.714515
0.714513
0.71451
0.714507
0.714504
0.7145
0.714496
0.714492
0.714487
0.714482
0.714477
0.714471
0.714464
0.714458
0.71445
0.714443
0.714435
0.714427
0.714418
0.71441
0.714401
0.714392
0.714382
0.714373
0.714364
0.714354
0.714345
0.714336
0.714326
0.714317
0.714308
0.714299
0.71429
0.712719
0.712687
0.71266
0.712635
0.712615
0.712599
0.712586
0.712576
0.71257
0.712568
0.712568
0.712571
0.712577
0.712586
0.712597
0.71261
0.712626
0.712644
0.712664
0.712687
0.712711
0.712738
0.712767
0.712798
0.712831
0.712866
0.712903
0.712942
0.712982
0.713024
0.713067
0.713111
0.713156
0.713202
0.713248
0.713294
0.71334
0.713385
0.713429
0.713473
0.713515
0.713555
0.713594
0.713632
0.713667
0.713701
0.713733
0.713763
0.713791
0.713818
0.713843
0.713868
0.713891
0.713913
0.713934
0.713954
0.713973
0.713992
0.71401
0.714027
0.714043
0.71406
0.714076
0.714091
0.714107
0.714122
0.714137
0.714152
0.714167
0.714182
0.714197
0.714211
0.714226
0.714241
0.714256
0.714271
0.714286
0.714302
0.714317
0.714332
0.714348
0.714364
0.71438
0.714396
0.714412
0.714428
0.714444
0.714461
0.714477
0.714494
0.71451
0.714527
0.714543
0.714559
0.714575
0.714591
0.714607
0.714623
0.714638
0.714652
0.714666
0.71468
0.714693
0.714705
0.714716
0.714727
0.714737
0.714746
0.714754
0.714761
0.714767
0.714772
0.714776
0.714779
0.714781
0.714783
0.714783
0.714783
0.714782
0.71478
0.714778
0.714775
0.714771
0.714767
0.714762
0.714757
0.714752
0.714746
0.71474
0.714734
0.714727
0.71472
0.714713
0.714706
0.714699
0.714692
0.714684
0.714677
0.714669
0.714661
0.714654
0.714646
0.714638
0.714631
0.714623
0.714616
0.714609
0.714602
0.714595
0.714588
0.714582
0.714576
0.71457
0.714564
0.714559
0.714554
0.714549
0.714545
0.714541
0.714538
0.714535
0.714532
0.714529
0.714526
0.714524
0.714521
0.714519
0.714516
0.714514
0.714511
0.714508
0.714505
0.714501
0.714497
0.714493
0.714488
0.714483
0.714477
0.714471
0.714465
0.714458
0.71445
0.714443
0.714435
0.714427
0.714418
0.714409
0.7144
0.714391
0.714382
0.714373
0.714364
0.714354
0.714345
0.714336
0.714326
0.714317
0.714308
0.714299
0.71429
)
;

boundaryField
{
    inlet
    {
        type            zeroGradient;
    }
    outlet
    {