/*--------------------------------*- C++ -*----------------------------------*\
| =========                 |                                                 |
| \\      /  F ield         | OpenFOAM: The Open Source CFD Toolbox           |
|  \\    /   O peration     | Version:  4.1                                   |
|   \\  /    A nd           | Web:      www.OpenFOAM.org                      |
|    \\/     M anipulation  |                                                 |
\*---------------------------------------------------------------------------*/
FoamFile
{
    version     2.0;
    format      ascii;
    class       volVectorField;
    location    "0.0279";
    object      U;
}
// * * * * * * * * * * * * * * * * * * * * * * * * * * * * * * * * * * * * * //

dimensions      [0 1 -1 0 0 0 0];

internalField   nonuniform List<vector> 
441
(
(-0.000100704 8.22186e-05 0)
(-0.00049711 0.000284293 0)
(-0.00109647 0.000485531 0)
(-0.0018474 0.000623701 0)
(-0.00267703 0.000686862 0)
(-0.00351075 0.00067991 0)
(-0.00428248 0.000613882 0)
(-0.00493852 0.000501521 0)
(-0.00543821 0.000355288 0)
(-0.00575316 0.000186686 0)
(-0.00586612 6.34721e-06 0)
(-0.00577025 -0.000175446 0)
(-0.00546913 -0.00034808 0)
(-0.00497748 -0.000499987 0)
(-0.00432253 -0.000618318 0)
(-0.0035454 -0.00068915 0)
(-0.00270186 -0.000698538 0)
(-0.00186113 -0.000634885 0)
(-0.00110106 -0.000493659 0)
(-0.000496758 -0.00028814 0)
(-9.99387e-05 -8.24939e-05 0)
(-0.000346474 0.000454328 0)
(-0.00153432 0.00135857 0)
(-0.00318471 0.00214107 0)
(-0.00516559 0.00265935 0)
(-0.00730527 0.00288109 0)
(-0.00942904 0.00282649 0)
(-0.0113809 0.00253852 0)
(-0.0130329 0.00206716 0)
(-0.0142877 0.00146156 0)
(-0.0150769 0.000767256 0)
(-0.0153591 2.63933e-05 0)
(-0.0151179 -0.000720278 0)
(-0.0143621 -0.00143069 0)
(-0.0131276 -0.00205899 0)
(-0.0114797 -0.00255431 0)
(-0.00951677 -0.00286167 0)
(-0.00737106 -0.00292631 0)
(-0.00520545 -0.00270304 0)
(-0.00320199 -0.00217301 0)
(-0.00153774 -0.00137382 0)
(-0.000346025 -0.000455921 0)
(-0.000612467 0.00106595 0)
(-0.00256162 0.00297327 0)
(-0.00514475 0.00450221 0)
(-0.00815948 0.00547663 0)
(-0.0113621 0.00586463 0)
(-0.014509 0.00571397 0)
(-0.0173828 0.00510998 0)
(-0.0198054 0.00414991 0)
(-0.0216411 0.0029292 0)
(-0.0227945 0.00153623 0)
(-0.0232076 5.27655e-05 0)
(-0.0228575 -0.00144213 0)
(-0.0217563 -0.00286687 0)
(-0.0199534 -0.00413249 0)
(-0.0175396 -0.00514026 0)
(-0.0146515 -0.00578335 0)
(-0.0114731 -0.00595499 0)
(-0.00823123 -0.0055651 0)
(-0.00518044 -0.0045682 0)
(-0.00257286 -0.00300608 0)
(-0.000613597 -0.00107049 0)
(-0.000863736 0.00191072 0)
(-0.00352685 0.00511397 0)
(-0.00696484 0.00754676 0)
(-0.0109039 0.00904064 0)
(-0.0150342 0.00958998 0)
(-0.019055 0.00928713 0)
(-0.022703 0.00827253 0)
(-0.0257648 0.00670103 0)
(-0.0280789 0.00472278 0)
(-0.0295325 0.00247592 0)
(-0.030057 8.77089e-05 0)
(-0.0296248 -0.00231913 0)
(-0.0282487 -0.00461786 0)
(-0.0259853 -0.00666986 0)
(-0.0229406 -0.00832042 0)
(-0.0192761 -0.009401 0)
(-0.0152124 -0.0097409 0)
(-0.0110255 -0.00919114 0)
(-0.0070313 -0.00766188 0)
(-0.00355241 -0.00517385 0)
(-0.000868047 -0.00192087 0)
(-0.00110401 0.0029811 0)
(-0.00445595 0.00777098 0)
(-0.00871619 0.0112672 0)
(-0.0135353 0.0133403 0)
(-0.0185348 0.0140384 0)
(-0.0233603 0.0135199 0)
(-0.0277094 0.0119967 0)
(-0.0313425 0.0096932 0)
(-0.0340814 0.00682261 0)
(-0.0358031 0.00357835 0)
(-0.0364331 0.000136812 0)
(-0.0359397 -0.00333282 0)
(-0.0343341 -0.00665555 0)
(-0.0316742 -0.00963857 0)
(-0.0280726 -0.0120642 0)
(-0.023706 -0.0136916 0)
(-0.0188224 -0.0142721 0)
(-0.0137407 -0.0135791 0)
(-0.0088367 -0.0114555 0)
(-0.00450803 -0.00787403 0)
(-0.00111448 -0.00300198 0)
(-0.00134685 0.00427962 0)
(-0.00540117 0.010955 0)
(-0.0104984 0.0156802 0)
(-0.0162056 0.0183908 0)
(-0.0220702 0.0192177 0)
(-0.0276832 0.0184112 0)
(-0.0327071 0.016275 0)
(-0.0368824 0.0131169 0)
(-0.0400219 0.0092221 0)
(-0.0419992 0.00484373 0)
(-0.0427372 0.000208771 0)
(-0.0422014 -0.00446698 0)
(-0.0403985 -0.00895983 0)
(-0.0373817 -0.0130202 0)
(-0.033262 -0.0163609 0)
(-0.0282224 -0.0186576 0)
(-0.0225313 -0.0195655 0)
(-0.0165476 -0.0187569 0)
(-0.0107097 -0.0159793 0)
(-0.00549947 -0.0111281 0)
(-0.00136834 -0.0043208 0)
(-0.00160677 0.00582326 0)
(-0.00641709 0.0147041 0)
(-0.0124082 0.0208312 0)
(-0.0190508 0.0242333 0)
(-0.0258101 0.0251576 0)
(-0.0322209 0.0239775 0)
(-0.0379144 0.0211128 0)
(-0.0426188 0.016972 0)
(-0.0461462 0.0119213 0)
(-0.0483734 0.0062768 0)
(-0.0492262 0.000315016 0)
(-0.0486678 -0.00570463 0)
(-0.0466975 -0.0115123 0)
(-0.0433569 -0.0168016 0)
(-0.0387459 -0.0212103 0)
(-0.0330438 -0.0243176 0)
(-0.0265307 -0.0256613 0)
(-0.0196018 -0.0247825 0)
(-0.0127622 -0.0212977 0)
(-0.00659002 -0.0149896 0)
(-0.00164639 -0.00590116 0)
(-0.00189565 0.00764297 0)
(-0.00754798 0.0190811 0)
(-0.0145191 0.0267892 0)
(-0.0221647 0.0309254 0)
(-0.0298581 0.0318958 0)
(-0.0370778 0.0302361 0)
(-0.0434304 0.0265126 0)
(-0.0486426 0.0212538 0)
(-0.0525367 0.0149165 0)
(-0.0550031 0.00788087 0)
(-0.055976 0.000468936 0)
(-0.0554184 -0.00702327 0)
(-0.0533187 -0.0142865 0)
(-0.049699 -0.0209606 0)
(-0.0446362 -0.0266052 0)
(-0.0382914 -0.0306893 0)
(-0.0309435 -0.0326077 0)
(-0.0230162 -0.0317327 0)
(-0.0150832 -0.0275032 0)
(-0.0078334 -0.0195423 0)
(-0.001963 -0.00778368 0)
(-0.00222028 0.00978086 0)
(-0.00881831 0.0241656 0)
(-0.0168638 0.0336326 0)
(-0.0255732 0.0385219 0)
(-0.0342186 0.0394558 0)
(-0.0422259 0.0371824 0)
(-0.0491902 0.0324515 0)
(-0.0548527 0.0259339 0)
(-0.0590628 0.0181857 0)
(-0.0617372 0.00964955 0)
(-0.0628273 0.000684327 0)
(-0.0622991 -0.00838943 0)
(-0.0601268 -0.0172353 0)
(-0.0563038 -0.0254476 0)
(-0.050868 -0.0325081 0)
(-0.0439428 -0.0377631 0)
(-0.0357851 -0.0404354 0)
(-0.0268313 -0.0396814 0)
(-0.0177195 -0.034701 0)
(-0.00926353 -0.0248915 0)
(-0.00232756 -0.0100231 0)
(-0.00257969 0.0122854 0)
(-0.0102225 0.0300396 0)
(-0.0194139 0.0414267 0)
(-0.0292028 0.0470459 0)
(-0.0387539 0.0478141 0)
(-0.0474533 0.044757 0)
(-0.0549061 0.038852 0)
(-0.0608932 0.0309361 0)
(-0.065313 0.0216709 0)
(-0.0681266 0.0115561 0)
(-0.0693144 0.000972616 0)
(-0.0688497 -0.00975302 0)
(-0.0666907 -0.0202764 0)
(-0.0627911 -0.0301621 0)
(-0.0571315 -0.0388202 0)
(-0.0497706 -0.0454661 0)
(-0.0409124 -0.04912 0)
(-0.0309772 -0.0486658 0)
(-0.0206513 -0.0429827 0)
(-0.0108825 -0.0311481 0)
(-0.00274147 -0.0126832 0)
(-0.00296143 0.0152044 0)
(-0.0117106 0.0367671 0)
(-0.022052 0.0501907 0)
(-0.0328378 0.0564474 0)
(-0.0431288 0.0568569 0)
(-0.0522974 0.0528039 0)
(-0.0599942 0.0455451 0)
(-0.0660745 0.0361063 0)
(-0.0705152 0.0252569 0)
(-0.073343 0.0135403 0)
(-0.0745815 0.00133851 0)
(-0.0742189 -0.0110423 0)
(-0.0721962 -0.0232774 0)
(-0.0684178 -0.0349263 0)
(-0.0627863 -0.0453444 0)
(-0.0552631 -0.0536157 0)
(-0.0459557 -0.0585306 0)
(-0.0352213 -0.0586361 0)
(-0.0237584 -0.0523863 0)
(-0.0126436 -0.0384041 0)
(-0.00319388 -0.0158295 0)
(-0.00333592 0.0185754 0)
(-0.0131679 0.0443646 0)
(-0.0245327 0.0598515 0)
(-0.0360624 0.0665483 0)
(-0.0467367 0.0663227 0)
(-0.0559621 0.0610195 0)
(-0.0634872 0.0522284 0)
(-0.0692868 0.0411812 0)
(-0.0734505 0.028748 0)
(-0.076094 0.0154944 0)
(-0.0772993 0.00177402 0)
(-0.0770774 -0.0121613 0)
(-0.0753549 -0.0260423 0)
(-0.0719812 -0.0394596 0)
(-0.066762 -0.0517442 0)
(-0.0595262 -0.0618638 0)
(-0.0502297 -0.0683633 0)
(-0.0390969 -0.0693877 0)
(-0.0267716 -0.0628376 0)
(-0.0144263 -0.0466959 0)
(-0.00365506 -0.0195173 0)
(-0.00364734 0.022412 0)
(-0.0143819 0.0527602 0)
(-0.0264231 0.0701811 0)
(-0.0381789 0.07697 0)
(-0.0486042 0.0757348 0)
(-0.057218 0.0688959 0)
(-0.0639388 0.0584235 0)
(-0.0689136 0.0457587 0)
(-0.0723776 0.0318496 0)
(-0.0745553 0.0172511 0)
(-0.0755985 0.00225154 0)
(-0.0755502 -0.0129908 0)
(-0.0743288 -0.028305 0)
(-0.0717308 -0.0433589 0)
(-0.0674566 -0.0575065 0)
(-0.0611723 -0.0696382 0)
(-0.0526223 -0.0780627 0)
(-0.0418057 -0.0804724 0)
(-0.029202 -0.0740708 0)
(-0.015997 -0.0559516 0)
(-0.004066 -0.0237747 0)
(-0.00379763 0.0266844 0)
(-0.0149866 0.0617369 0)
(-0.0270089 0.0807124 0)
(-0.0380871 0.0870447 0)
(-0.0472631 0.0843259 0)
(-0.0542858 0.0756678 0)
(-0.0593293 0.0634454 0)
(-0.0627623 0.0492822 0)
(-0.0649868 0.0341604 0)
(-0.0663421 0.0185785 0)
(-0.0670514 0.00271751 0)
(-0.0671949 -0.0133974 0)
(-0.0666947 -0.0297366 0)
(-0.06531 -0.0460982 0)
(-0.0626473 -0.0619236 0)
(-0.0582013 -0.0760961 0)
(-0.0514565 -0.0867423 0)
(-0.0420808 -0.0910933 0)
(-0.030231 -0.0855209 0)
(-0.0169453 -0.0659154 0)
(-0.00432061 -0.0285776 0)
(-0.00361523 0.0312895 0)
(-0.0143568 0.0708493 0)
(-0.0251283 0.0906261 0)
(-0.0340932 0.0957117 0)
(-0.0405733 0.0909683 0)
(-0.0446986 0.0802824 0)
(-0.0469802 0.0664008 0)
(-0.0480316 0.0510561 0)
(-0.0484114 0.0351911 0)
(-0.0485513 0.0191912 0)
(-0.0487293 0.00309022 0)
(-0.0490596 -0.0132504 0)
(-0.0494842 -0.0299756 0)
(-0.049759 -0.0470622 0)
(-0.0494402 -0.0641146 0)
(-0.047887 -0.0801145 0)
(-0.0443188 -0.0931247 0)
(-0.0379868 -0.0999926 0)
(-0.0285294 -0.0961863 0)
(-0.016567 -0.0760393 0)
(-0.00423256 -0.0338112 0)
(-0.00278733 0.035999 0)
(-0.0113852 0.0792934 0)
(-0.0188569 0.0985986 0)
(-0.0235888 0.10141 0)
(-0.0254649 0.0941388 0)
(-0.0251424 0.0814238 0)
(-0.0234961 0.0662493 0)
(-0.0213406 0.0503159 0)
(-0.0193228 0.0344245 0)
(-0.0179026 0.0187878 0)
(-0.0173679 0.00326648 0)
(-0.0178512 -0.0124501 0)
(-0.0193309 -0.0286895 0)
(-0.0216126 -0.0456344 0)
(-0.0242875 -0.0631214 0)
(-0.0266842 -0.0803609 0)
(-0.0278457 -0.0955477 0)
(-0.0266107 -0.105362 0)
(-0.0219328 -0.104462 0)
(-0.0136316 -0.085322 0)
(-0.00346587 -0.0392057 0)
(-0.000690423 0.0403436 0)
(-0.00397898 0.0856722 0)
(-0.00487936 0.102594 0)
(-0.00249703 0.102002 0)
(0.00243503 0.091973 0)
(0.00871815 0.077651 0)
(0.0152397 0.0619674 0)
(0.0211482 0.0463811 0)
(0.0258586 0.0314344 0)
(0.0289969 0.0171246 0)
(0.030338 0.0031437 0)
(0.0297635 -0.0109623 0)
(0.027246 -0.0256697 0)
(0.0228687 -0.0413519 0)
(0.0168832 -0.0581092 0)
(0.00980469 -0.0755013 0)
(0.00253054 -0.0921091 0)
(-0.00358096 -0.104841 0)
(-0.00683237 -0.107953 0)
(-0.00587474 -0.0920465 0)
(-0.0013653 -0.0442052 0)
(0.00409882 0.0433768 0)
(0.012157 0.0876104 0)
(0.0227842 0.0996547 0)
(0.0356542 0.094848 0)
(0.0492954 0.0825387 0)
(0.0623717 0.0677374 0)
(0.0739471 0.0528688 0)
(0.0834588 0.0389133 0)
(0.0906086 0.0260709 0)
(0.0952518 0.0141286 0)
(0.0973112 0.00266186 0)
(0.0967227 -0.00885059 0)
(0.0934114 -0.0209503 0)
(0.0873017 -0.0341243 0)
(0.0783664 -0.0486947 0)
(0.0667283 -0.0646162 0)
(0.0528284 -0.0810837 0)
(0.0376611 -0.0957656 0)
(0.0229941 -0.103385 0)
(0.0111914 -0.0933985 0)
(0.00353478 -0.0477056 0)
(0.0157137 0.0428249 0)
(0.0466084 0.0807249 0)
(0.0752395 0.0856796 0)
(0.101066 0.077234 0)
(0.123517 0.0644999 0)
(0.142347 0.0513023 0)
(0.15756 0.0390981 0)
(0.169298 0.0282635 0)
(0.177763 0.0186854 0)
(0.183143 0.010029 0)
(0.185559 0.00186143 0)
(0.18503 -0.0062906 0)
(0.181453 -0.0149105 0)
(0.174599 -0.024465 0)
(0.164121 -0.0353589 0)
(0.149584 -0.0478338 0)
(0.130552 -0.0617285 0)
(0.106764 -0.0758878 0)
(0.0785225 -0.0867167 0)
(0.0472288 -0.0846009 0)
(0.015422 -0.0472128 0)
(0.0495085 0.0347669 0)
(0.122463 0.059127 0)
(0.173242 0.0571257 0)
(0.20907 0.0483293 0)
(0.23554 0.0386927 0)
(0.255415 0.0298732 0)
(0.270301 0.0222729 0)
(0.281198 0.015831 0)
(0.28878 0.0103203 0)
(0.293493 0.00545459 0)
(0.2956 0.000930232 0)
(0.295187 -0.00355931 0)
(0.292164 -0.00831959 0)
(0.286242 -0.0136529 0)
(0.276896 -0.0198512 0)
(0.26328 -0.0271746 0)
(0.244073 -0.03579 0)
(0.217165 -0.0455707 0)
(0.179237 -0.0554068 0)
(0.124771 -0.0599346 0)
(0.0496162 -0.038387 0)
(0.182872 0.00466719 0)
(0.296791 0.00828752 0)
(0.350759 0.0118039 0)
(0.378152 0.0115343 0)
(0.3949 0.00970395 0)
(0.406043 0.00761578 0)
(0.413787 0.00569501 0)
(0.419179 0.00403447 0)
(0.422801 0.00260756 0)
(0.424992 0.00134877 0)
(0.425943 0.000181397 0)
(0.425723 -0.000972546 0)
(0.424295 -0.00218777 0)
(0.421495 -0.00353039 0)
(0.416997 -0.00504582 0)
(0.410195 -0.00672876 0)
(0.399915 -0.00844871 0)
(0.3836 -0.00978581 0)
(0.355409 -0.00970031 0)
(0.298389 -0.00705075 0)
(0.181148 -0.00730608 0)
)
;

boundaryField
{
    movingWall
    {
        type            fixedValue;
        value           uniform (0.5 0 0);
    }
    fixedWalls
    {
        type            noSlip;
    }
    frontAndBack
    {
        type            empty;
    }
}


// ************************************************************************* //
