/*--------------------------------*- C++ -*----------------------------------*\
| =========                 |                                                 |
| \\      /  F ield         | OpenFOAM: The Open Source CFD Toolbox           |
|  \\    /   O peration     | Version:  4.1                                   |
|   \\  /    A nd           | Web:      www.OpenFOAM.org                      |
|    \\/     M anipulation  |                                                 |
\*---------------------------------------------------------------------------*/
FoamFile
{
    version     2.0;
    format      ascii;
    class       volScalarField;
    location    "1950";
    object      p;
}
// * * * * * * * * * * * * * * * * * * * * * * * * * * * * * * * * * * * * * //

dimensions      [1 -1 -2 0 0 0 0];

internalField   nonuniform List<scalar> 
1275
(
0.712268
0.71222
0.712213
0.71217
0.712158
0.712114
0.712098
0.712047
0.712032
0.711963
0.71228
0.712228
0.712222
0.712177
0.712167
0.712123
0.71211
0.712064
0.712056
0.712009
0.712298
0.712243
0.712238
0.712191
0.712182
0.712138
0.712126
0.712084
0.712072
0.712033
0.712318
0.712262
0.712258
0.71221
0.712202
0.71216
0.71215
0.712111
0.712103
0.71207
0.712337
0.712281
0.712277
0.71223
0.712223
0.712182
0.712172
0.712136
0.712126
0.712096
0.712353
0.712298
0.712294
0.712249
0.712241
0.712202
0.712193
0.712159
0.712149
0.712121
0.712361
0.712309
0.712304
0.712262
0.712253
0.712217
0.712206
0.712174
0.712163
0.712136
0.712364
0.712315
0.71231
0.71227
0.71226
0.712225
0.712214
0.712183
0.712171
0.712145
0.712358
0.712315
0.712309
0.712271
0.712261
0.712227
0.712214
0.712184
0.712171
0.712146
0.71209
0.712096
0.712103
0.712109
0.712116
0.712123
0.712131
0.712139
0.712148
0.712156
0.712166
0.712176
0.712186
0.712197
0.712209
0.712221
0.712234
0.712248
0.712262
0.712278
0.712295
0.712313
0.712332
0.712353
0.712375
0.712398
0.712423
0.71245
0.712479
0.71251
0.712543
0.712577
0.712613
0.71265
0.712689
0.712729
0.71277
0.71281
0.712851
0.71289
0.712929
0.712966
0.713001
0.713033
0.713063
0.71309
0.713113
0.713134
0.713151
0.713165
0.713177
0.713185
0.713192
0.713196
0.7132
0.713201
0.713202
0.713202
0.713202
0.713201
0.7132
0.7132
0.713199
0.713199
0.713198
0.713199
0.713199
0.7132
0.713201
0.713202
0.713204
0.713207
0.713209
0.713212
0.713215
0.713219
0.713223
0.713227
0.711939
0.711991
0.711984
0.712006
0.712
0.712009
0.712005
0.712009
0.712006
0.712008
0.712006
0.712007
0.712006
0.712007
0.712006
0.712007
0.712007
0.712008
0.712008
0.712009
0.71201
0.712011
0.712012
0.712014
0.712016
0.712018
0.71202
0.712022
0.712024
0.712027
0.71203
0.712033
0.712036
0.71204
0.712044
0.712048
0.712052
0.712056
0.712061
0.712066
0.712071
0.712077
0.712082
0.712089
0.712094
0.712103
0.712109
0.712117
0.712124
0.712133
0.712141
0.712151
0.71216
0.712171
0.712181
0.712193
0.712205
0.712217
0.71223
0.712245
0.712259
0.712275
0.712292
0.712309
0.712328
0.712347
0.712368
0.71239
0.712413
0.712438
0.712463
0.71249
0.712519
0.712549
0.71258
0.712612
0.712645
0.712679
0.712714
0.712749
0.712785
0.71282
0.712854
0.712888
0.71292
0.712951
0.712979
0.713005
0.713029
0.71305
0.713069
0.713085
0.713099
0.71311
0.71312
0.713127
0.713133
0.713138
0.713141
0.713144
0.713146
0.713148
0.713149
0.713151
0.713152
0.713154
0.713155
0.713157
0.713159
0.713161
0.713164
0.713167
0.71317
0.713173
0.713176
0.71318
0.713184
0.713188
0.713192
0.713196
0.713201
0.713206
0.713211
0.712013
0.712017
0.712011
0.712016
0.71201
0.712013
0.712008
0.71201
0.712007
0.712007
0.712006
0.712006
0.712005
0.712006
0.712006
0.712006
0.712007
0.712008
0.712009
0.71201
0.712011
0.712013
0.712014
0.712016
0.712018
0.712021
0.712023
0.712026
0.712029
0.712032
0.712036
0.712039
0.712043
0.712047
0.712052
0.712056
0.712061
0.712067
0.712072
0.712078
0.712085
0.712091
0.712098
0.712105
0.712113
0.712121
0.71213
0.712139
0.712149
0.712159
0.71217
0.712181
0.712193
0.712205
0.712218
0.712232
0.712247
0.712262
0.712278
0.712295
0.712313
0.712331
0.712351
0.712371
0.712392
0.712415
0.712438
0.712462
0.712488
0.712514
0.712541
0.712569
0.712598
0.712627
0.712658
0.712688
0.712719
0.71275
0.712781
0.712811
0.712841
0.71287
0.712898
0.712924
0.712948
0.712971
0.712992
0.713011
0.713028
0.713043
0.713056
0.713067
0.713076
0.713084
0.71309
0.713096
0.7131
0.713104
0.713108
0.713112
0.713115
0.713118
0.713121
0.713125
0.713128
0.713131
0.713135
0.713138
0.713141
0.713145
0.713149
0.713152
0.713156
0.71316
0.713165
0.713169
0.713173
0.713178
0.713183
0.713188
0.713193
0.713198
0.713204
0.712022
0.712022
0.712016
0.712022
0.712017
0.71202
0.712016
0.712017
0.712014
0.712014
0.712012
0.712012
0.712011
0.712011
0.71201
0.71201
0.71201
0.712011
0.712012
0.712013
0.712014
0.712016
0.712018
0.71202
0.712022
0.712025
0.712028
0.712031
0.712035
0.712039
0.712043
0.712047
0.712052
0.712057
0.712062
0.712068
0.712074
0.71208
0.712087
0.712094
0.712101
0.712109
0.712118
0.712127
0.712136
0.712146
0.712156
0.712168
0.712179
0.712191
0.712204
0.712218
0.712232
0.712247
0.712262
0.712279
0.712296
0.712314
0.712333
0.712352
0.712372
0.712394
0.712416
0.712438
0.712462
0.712486
0.712511
0.712537
0.712563
0.71259
0.712618
0.712645
0.712673
0.712701
0.712729
0.712757
0.712784
0.712811
0.712837
0.712863
0.712887
0.71291
0.712932
0.712952
0.71297
0.712987
0.713002
0.713015
0.713027
0.713037
0.713047
0.713055
0.713062
0.713069
0.713075
0.71308
0.713086
0.71309
0.713095
0.713099
0.713103
0.713107
0.713111
0.713115
0.713119
0.713123
0.713127
0.713131
0.713135
0.713139
0.713144
0.713148
0.713152
0.713157
0.713161
0.713166
0.71317
0.713175
0.71318
0.713185
0.71319
0.713196
0.713201
0.712067
0.712054
0.712049
0.712043
0.712037
0.712033
0.712028
0.712025
0.712021
0.712019
0.712016
0.712015
0.712013
0.712012
0.712012
0.712012
0.712012
0.712013
0.712014
0.712015
0.712017
0.712019
0.712021
0.712024
0.712027
0.71203
0.712034
0.712037
0.712042
0.712046
0.712051
0.712056
0.712062
0.712068
0.712074
0.712081
0.712088
0.712095
0.712103
0.712112
0.712121
0.71213
0.71214
0.712151
0.712162
0.712173
0.712185
0.712199
0.712212
0.712226
0.712241
0.712257
0.712273
0.712291
0.712309
0.712327
0.712347
0.712367
0.712388
0.71241
0.712432
0.712455
0.712479
0.712503
0.712528
0.712554
0.712579
0.712605
0.712632
0.712658
0.712684
0.712711
0.712737
0.712762
0.712788
0.712812
0.712836
0.712859
0.71288
0.712901
0.71292
0.712938
0.712954
0.712969
0.712983
0.712996
0.713007
0.713018
0.713028
0.713036
0.713044
0.713052
0.713058
0.713064
0.71307
0.713075
0.71308
0.713084
0.713089
0.713094
0.713099
0.713104
0.713108
0.713113
0.713117
0.713122
0.713126
0.71313
0.713134
0.713139
0.713143
0.713147
0.713151
0.713156
0.71316
0.713165
0.71317
0.713174
0.713179
0.713184
0.71319
0.713195
0.713201
0.712087
0.71207
0.712063
0.712054
0.712048
0.712041
0.712036
0.712031
0.712027
0.712024
0.712021
0.712018
0.712017
0.712015
0.712014
0.712014
0.712014
0.712015
0.712016
0.712017
0.712019
0.712022
0.712024
0.712027
0.712031
0.712034
0.712038
0.712043
0.712048
0.712053
0.712058
0.712064
0.712071
0.712077
0.712085
0.712092
0.7121
0.712109
0.712118
0.712128
0.712138
0.712149
0.71216
0.712172
0.712184
0.712197
0.712211
0.712226
0.712241
0.712257
0.712273
0.712291
0.712309
0.712328
0.712347
0.712368
0.712389
0.71241
0.712433
0.712456
0.712479
0.712504
0.712528
0.712553
0.712578
0.712604
0.71263
0.712655
0.712681
0.712706
0.712731
0.712755
0.712779
0.712802
0.712824
0.712845
0.712865
0.712885
0.712903
0.71292
0.712936
0.712951
0.712965
0.712978
0.712989
0.713
0.71301
0.713018
0.713026
0.713034
0.713041
0.713047
0.713054
0.71306
0.713067
0.713073
0.713079
0.713084
0.713089
0.713094
0.713099
0.713104
0.713108
0.713112
0.713117
0.713121
0.713125
0.71313
0.713134
0.713138
0.713143
0.713147
0.713151
0.713156
0.71316
0.713165
0.71317
0.713175
0.71318
0.713185
0.71319
0.713195
0.713201
0.712113
0.712093
0.712086
0.712071
0.712064
0.712053
0.712047
0.712039
0.712034
0.712029
0.712025
0.712021
0.712019
0.712017
0.712016
0.712016
0.712016
0.712016
0.712018
0.712019
0.712021
0.712024
0.712027
0.71203
0.712034
0.712038
0.712043
0.712048
0.712053
0.712059
0.712065
0.712071
0.712078
0.712086
0.712094
0.712102
0.712111
0.71212
0.71213
0.712141
0.712152
0.712164
0.712176
0.712189
0.712202
0.712216
0.712231
0.712247
0.712263
0.71228
0.712298
0.712316
0.712336
0.712356
0.712376
0.712397
0.712419
0.712442
0.712465
0.712489
0.712513
0.712537
0.712562
0.712586
0.712611
0.712636
0.712661
0.712685
0.712709
0.712733
0.712756
0.712779
0.712801
0.712822
0.712842
0.712861
0.712879
0.712897
0.712913
0.712928
0.712941
0.712954
0.712966
0.712977
0.712988
0.712997
0.713007
0.713016
0.713025
0.713033
0.713041
0.713048
0.713055
0.713061
0.713067
0.713073
0.713078
0.713083
0.713088
0.713093
0.713098
0.713103
0.713107
0.713112
0.713117
0.713121
0.713125
0.71313
0.713134
0.713138
0.713143
0.713147
0.713152
0.713156
0.713161
0.713165
0.71317
0.713175
0.71318
0.713185
0.71319
0.713196
0.713201
0.712125
0.712104
0.712094
0.712078
0.712069
0.712057
0.71205
0.712041
0.712036
0.71203
0.712026
0.712022
0.712019
0.712017
0.712016
0.712015
0.712015
0.712016
0.712017
0.712019
0.712021
0.712024
0.712027
0.712031
0.712035
0.712039
0.712044
0.712049
0.712055
0.712061
0.712068
0.712075
0.712082
0.71209
0.712098
0.712107
0.712116
0.712126
0.712137
0.712148
0.712159
0.712171
0.712184
0.712197
0.712211
0.712226
0.712241
0.712258
0.712274
0.712292
0.71231
0.712329
0.712348
0.712369
0.712389
0.712411
0.712433
0.712456
0.712479
0.712502
0.712526
0.71255
0.712575
0.712599
0.712623
0.712648
0.712672
0.712695
0.712719
0.712741
0.712763
0.712785
0.712805
0.712825
0.712844
0.712862
0.712879
0.712895
0.71291
0.712925
0.712938
0.712952
0.712964
0.712976
0.712987
0.712997
0.713007
0.713016
0.713024
0.713032
0.713039
0.713046
0.713053
0.713059
0.713065
0.713071
0.713077
0.713083
0.713088
0.713093
0.713098
0.713103
0.713107
0.713112
0.713116
0.713121
0.713125
0.713129
0.713134
0.713138
0.713143
0.713147
0.713151
0.713156
0.713161
0.713165
0.71317
0.713175
0.71318
0.713185
0.71319
0.713196
0.713201
0.712133
0.712112
0.712101
0.712084
0.712075
0.712062
0.712054
0.712044
0.712038
0.712031
0.712027
0.712023
0.71202
0.712018
0.712017
0.712016
0.712016
0.712017
0.712018
0.71202
0.712022
0.712025
0.712028
0.712032
0.712036
0.71204
0.712045
0.712051
0.712057
0.712063
0.71207
0.712077
0.712084
0.712092
0.712101
0.71211
0.712119
0.712129
0.71214
0.712151
0.712163
0.712175
0.712188
0.712201
0.712216
0.71223
0.712246
0.712262
0.712279
0.712297
0.712315
0.712334
0.712354
0.712374
0.712395
0.712416
0.712438
0.712461
0.712484
0.712507
0.712531
0.712554
0.712578
0.712602
0.712626
0.71265
0.712673
0.712696
0.712719
0.712741
0.712763
0.712784
0.712804
0.712824
0.712843
0.712861
0.712878
0.712895
0.71291
0.712925
0.712938
0.712951
0.712964
0.712975
0.712986
0.712996
0.713005
0.713014
0.713023
0.713031
0.713039
0.713046
0.713053
0.713059
0.713066
0.713071
0.713077
0.713082
0.713088
0.713093
0.713097
0.713102
0.713107
0.713112
0.713116
0.713121
0.713125
0.713129
0.713134
0.713138
0.713143
0.713147
0.713151
0.713156
0.713161
0.713165
0.71317
0.713175
0.71318
0.713185
0.713191
0.713196
0.713202
0.712133
0.712112
0.7121
0.712083
0.712073
0.71206
0.712052
0.712042
0.712036
0.712029
0.712025
0.71202
0.712018
0.712015
0.712014
0.712013
0.712014
0.712014
0.712016
0.712017
0.71202
0.712023
0.712026
0.71203
0.712034
0.712039
0.712044
0.712049
0.712055
0.712061
0.712068
0.712075
0.712083
0.712091
0.712099
0.712108
0.712118
0.712128
0.712138
0.712149
0.712161
0.712173
0.712186
0.712199
0.712213
0.712228
0.712244
0.71226
0.712276
0.712294
0.712312
0.712331
0.71235
0.71237
0.712391
0.712412
0.712434
0.712457
0.712479
0.712503
0.712526
0.71255
0.712574
0.712598
0.712621
0.712645
0.712669
0.712692
0.712715
0.712737
0.712759
0.71278
0.712801
0.712821
0.71284
0.712858
0.712875
0.712891
0.712907
0.712922
0.712936
0.712949
0.712962
0.712973
0.712984
0.712995
0.713005
0.713014
0.713022
0.71303
0.713038
0.713045
0.713052
0.713059
0.713065
0.713071
0.713077
0.713082
0.713087
0.713092
0.713097
0.713102
0.713107
0.713111
0.713116
0.71312
0.713125
0.713129
0.713133
0.713138
0.713142
0.713147
0.713151
0.713156
0.71316
0.713165
0.71317
0.713175
0.71318
0.713185
0.71319
0.713196
0.713201
)
;

boundaryField
{
    inlet
    {
        type            zeroGradient;
    }
    outlet
    {
        type            fixedValue;
        value           nonuniform 0();
    }
    walls
    {
        type            zeroGradient;
    }
    symwall
    {
        type            empty;
    }
    procBoundary2to0
    {
        type            processor;
        value           nonuniform List<scalar> 
133
(
0.712084
0.712089
0.712095
0.712101
0.712107
0.712113
0.71212
0.712127
0.712134
0.712142
0.71215
0.712158
0.712167
0.712176
0.712186
0.712197
0.712208
0.712219
0.712232
0.712245
0.712259
0.712275
0.712291
0.712309
0.712329
0.71235
0.712373
0.712398
0.712425
0.712454
0.712486
0.71252
0.712556
0.712595
0.712636
0.712679
0.712723
0.712769
0.712816
0.712862
0.712909
0.712954
0.712998
0.713039
0.713078
0.713114
0.713147
0.713176
0.713201
0.713222
0.71324
0.713254
0.713264
0.713272
0.713277
0.71328
0.713281
0.71328
0.713279
0.713276
0.713273
0.71327
0.713266
0.713262
0.713259
0.713256
0.713253
0.713251
0.713249
0.713248
0.713247
0.713247
0.713247
0.713247
0.713248
0.71325
0.713252
0.712259
0.712217
0.712209
0.712168
0.712156
0.712112
0.712097
0.712046
0.712036
0.711963
0.71198
0.712007
0.712001
0.712006
0.712001
0.712003
0.712
0.712002
0.712
0.712001
0.712
0.712001
0.712001
0.712002
0.712002
0.712003
0.712004
0.712005
0.712005
0.712006
0.712007
0.712009
0.71201
0.712012
0.712013
0.712015
0.712017
0.71202
0.712022
0.712024
0.712027
0.71203
0.712033
0.712036
0.712039
0.712043
0.712047
0.712051
0.712055
0.712059
0.712064
0.712069
0.712074
0.712079
0.712084
0.712084
)
;
    }
    procBoundary2to1
    {
        type            processor;
        value           uniform 0.713255;
    }
    procBoundary2to3
    {
        type            processor;
        value           nonuniform List<scalar> 10(0.713231 0.713216 0.713209 0.713207 0.713206 0.713207 0.713207 0.713207 0.713207 0.713207);
    }
}


// ************************************************************************* //
