/*--------------------------------*- C++ -*----------------------------------*\
| =========                 |                                                 |
| \\      /  F ield         | OpenFOAM: The Open Source CFD Toolbox           |
|  \\    /   O peration     | Version:  4.1                                   |
|   \\  /    A nd           | Web:      www.OpenFOAM.org                      |
|    \\/     M anipulation  |                                                 |
\*---------------------------------------------------------------------------*/
FoamFile
{
    version     2.0;
    format      ascii;
    class       volVectorField;
    location    "4410";
    object      U;
}
// * * * * * * * * * * * * * * * * * * * * * * * * * * * * * * * * * * * * * //

dimensions      [0 1 -1 0 0 0 0];

internalField   nonuniform List<vector> 
1275
(
(0.07641 -5.7025e-05 0)
(0.0766115 -0.000118115 0)
(0.0764734 -0.000216566 0)
(0.0767146 -0.000275108 0)
(0.0767022 -0.000328269 0)
(0.0770164 -0.000420444 0)
(0.0771232 -0.000440259 0)
(0.0775461 -0.00060336 0)
(0.077788 -0.000627435 0)
(0.0784325 -0.000855349 0)
(0.112436 -3.97583e-05 0)
(0.112616 -0.000129995 0)
(0.112484 -0.000258714 0)
(0.112671 -0.000341893 0)
(0.112622 -0.00045213 0)
(0.112852 -0.000552417 0)
(0.112874 -0.000665939 0)
(0.113169 -0.000801892 0)
(0.113242 -0.000981045 0)
(0.113587 -0.00112968 0)
(0.136447 -3.23913e-05 0)
(0.136616 -0.000149503 0)
(0.136478 -0.000281798 0)
(0.13663 -0.000401143 0)
(0.136549 -0.000519803 0)
(0.136712 -0.000662536 0)
(0.136681 -0.000777466 0)
(0.136871 -0.000963067 0)
(0.136875 -0.0010996 0)
(0.137074 -0.0013161 0)
(0.148452 -2.80846e-05 0)
(0.148612 -0.000150421 0)
(0.14846 -0.000281477 0)
(0.148579 -0.000406428 0)
(0.14846 -0.000538363 0)
(0.148557 -0.000677875 0)
(0.14846 -0.000822156 0)
(0.148547 -0.000985091 0)
(0.148447 -0.0011652 0)
(0.148509 -0.00133934 0)
(0.148453 -2.29473e-05 0)
(0.148607 -0.000147192 0)
(0.148438 -0.000258901 0)
(0.148526 -0.000392477 0)
(0.148369 -0.000507592 0)
(0.14841 -0.000657017 0)
(0.148255 -0.000779134 0)
(0.148255 -0.000948854 0)
(0.148086 -0.00108603 0)
(0.148035 -0.00126072 0)
(0.136449 -1.57105e-05 0)
(0.136598 -0.000124349 0)
(0.136407 -0.000208714 0)
(0.136467 -0.000328901 0)
(0.136271 -0.000426368 0)
(0.136259 -0.000557175 0)
(0.136045 -0.000667784 0)
(0.135968 -0.000809077 0)
(0.135717 -0.000935629 0)
(0.135569 -0.00107772 0)
(0.112439 -3.3588e-06 0)
(0.112585 -9.51425e-05 0)
(0.112369 -0.000141291 0)
(0.112403 -0.000248037 0)
(0.112171 -0.000311858 0)
(0.112114 -0.000425967 0)
(0.111849 -0.000499529 0)
(0.111708 -0.00061775 0)
(0.111391 -0.000698784 0)
(0.111162 -0.000810358 0)
(0.0764173 2.71773e-05 0)
(0.076563 -3.48258e-05 0)
(0.0763161 -3.74399e-05 0)
(0.0763446 -0.000114911 0)
(0.0760817 -0.000145637 0)
(0.0760105 -0.000224621 0)
(0.0757056 -0.000265988 0)
(0.0755352 -0.000342963 0)
(0.0751673 -0.000389708 0)
(0.0748963 -0.000459843 0)
(0.0284323 6.12662e-05 0)
(0.0286344 3.07301e-05 0)
(0.028483 4.74135e-05 0)
(0.0286014 2.93837e-06 0)
(0.0284148 -1.06333e-08 0)
(0.0284238 -3.74897e-05 0)
(0.0281869 -4.1039e-05 0)
(0.0280936 -7.09934e-05 0)
(0.0277994 -7.24176e-05 0)
(0.0276157 -9.36382e-05 0)
(0.0758912 -0.00231857 0)
(0.0766389 -0.00240365 0)
(0.0773959 -0.00249788 0)
(0.078165 -0.00259649 0)
(0.0789447 -0.00270352 0)
(0.0797391 -0.00281706 0)
(0.0805471 -0.00293944 0)
(0.0813719 -0.00306995 0)
(0.0822135 -0.00321016 0)
(0.0830743 -0.00336003 0)
(0.0839547 -0.00352076 0)
(0.0848567 -0.00369267 0)
(0.0857811 -0.0038768 0)
(0.0867295 -0.00407368 0)
(0.0877027 -0.00428429 0)
(0.0887021 -0.00450927 0)
(0.0897285 -0.00474957 0)
(0.0907828 -0.0050059 0)
(0.0918655 -0.00527916 0)
(0.0929772 -0.00557006 0)
(0.0941181 -0.00587942 0)
(0.0952881 -0.00620789 0)
(0.0964868 -0.00655616 0)
(0.0977135 -0.00692473 0)
(0.0989669 -0.00731405 0)
(0.100245 -0.00772437 0)
(0.101547 -0.00815579 0)
(0.102868 -0.00860816 0)
(0.104206 -0.00908109 0)
(0.105556 -0.00957387 0)
(0.106914 -0.0100854 0)
(0.108274 -0.0106143 0)
(0.10963 -0.0111586 0)
(0.110974 -0.0117159 0)
(0.112298 -0.0122833 0)
(0.113593 -0.0128572 0)
(0.114851 -0.0134336 0)
(0.11606 -0.0140078 0)
(0.117211 -0.0145746 0)
(0.118292 -0.0151281 0)
(0.119292 -0.0156623 0)
(0.120199 -0.0161703 0)
(0.121003 -0.0166454 0)
(0.121692 -0.0170804 0)
(0.122257 -0.0174684 0)
(0.122688 -0.0178026 0)
(0.122977 -0.0180764 0)
(0.123117 -0.0182841 0)
(0.123102 -0.0184205 0)
(0.12293 -0.0184814 0)
(0.122598 -0.0184637 0)
(0.122108 -0.0183655 0)
(0.121461 -0.0181864 0)
(0.120663 -0.0179272 0)
(0.119721 -0.0175902 0)
(0.118644 -0.017179 0)
(0.117442 -0.0166986 0)
(0.116128 -0.016155 0)
(0.114717 -0.0155551 0)
(0.113223 -0.0149066 0)
(0.111661 -0.0142176 0)
(0.11005 -0.0134963 0)
(0.108404 -0.0127512 0)
(0.106741 -0.0119902 0)
(0.105077 -0.0112211 0)
(0.103426 -0.010451 0)
(0.101803 -0.00968639 0)
(0.100222 -0.00893308 0)
(0.0986933 -0.00819594 0)
(0.0972275 -0.00747931 0)
(0.0958348 -0.00678606 0)
(0.0945192 -0.0061196 0)
(0.0932911 -0.00548009 0)
(0.092147 -0.00487156 0)
(0.0911012 -0.00428941 0)
(0.090138 -0.00374245 0)
(0.0892807 -0.00321551 0)
(0.0885005 -0.00273223 0)
(0.0789156 -0.00117641 0)
(0.0787274 -0.00130208 0)
(0.0792052 -0.00139095 0)
(0.0794445 -0.00149313 0)
(0.0799973 -0.001559 0)
(0.0804434 -0.00163842 0)
(0.0810349 -0.00169133 0)
(0.0815741 -0.00174789 0)
(0.0821846 -0.00178756 0)
(0.0827655 -0.0018264 0)
(0.0833821 -0.00185502 0)
(0.083979 -0.00188163 0)
(0.0845929 -0.00190222 0)
(0.0851916 -0.00192093 0)
(0.0857969 -0.00193624 0)
(0.0863893 -0.00195025 0)
(0.0869824 -0.00196253 0)
(0.0875641 -0.00197417 0)
(0.088143 -0.0019852 0)
(0.0887118 -0.0019962 0)
(0.089276 -0.0020074 0)
(0.0898312 -0.0020191 0)
(0.0903811 -0.00203159 0)
(0.090923 -0.00204505 0)
(0.0914595 -0.00205977 0)
(0.0919891 -0.00207585 0)
(0.0925138 -0.00209362 0)
(0.0930326 -0.00211309 0)
(0.0935471 -0.00213464 0)
(0.094057 -0.0021582 0)
(0.0945635 -0.00218424 0)
(0.0950665 -0.00221259 0)
(0.0955669 -0.00224385 0)
(0.0960657 -0.00227773 0)
(0.096562 -0.00231495 0)
(0.0970594 -0.00235517 0)
(0.0975531 -0.00239917 0)
(0.0980532 -0.0024467 0)
(0.0985445 -0.00249826 0)
(0.0990539 -0.00255434 0)
(0.0995392 -0.00261415 0)
(0.100071 -0.00268059 0)
(0.100537 -0.00274878 0)
(0.101118 -0.00282875 0)
(0.10153 -0.00290325 0)
(0.102113 -0.00299792 0)
(0.102653 -0.00309173 0)
(0.103188 -0.00319408 0)
(0.103738 -0.00330304 0)
(0.104293 -0.00342105 0)
(0.104861 -0.00354705 0)
(0.105437 -0.00368279 0)
(0.106026 -0.00382792 0)
(0.106626 -0.00398374 0)
(0.107239 -0.00415033 0)
(0.107865 -0.00432873 0)
(0.108505 -0.00451931 0)
(0.109159 -0.00472295 0)
(0.109828 -0.00494015 0)
(0.110511 -0.00517174 0)
(0.111209 -0.00541825 0)
(0.111921 -0.00568044 0)
(0.112647 -0.00595885 0)
(0.113387 -0.00625412 0)
(0.11414 -0.00656672 0)
(0.114904 -0.00689714 0)
(0.115678 -0.00724571 0)
(0.11646 -0.00761269 0)
(0.117248 -0.00799814 0)
(0.118039 -0.00840202 0)
(0.11883 -0.00882403 0)
(0.119617 -0.00926366 0)
(0.120395 -0.00972015 0)
(0.12116 -0.0101924 0)
(0.121905 -0.010679 0)
(0.122625 -0.0111781 0)
(0.123311 -0.0116876 0)
(0.123958 -0.0122047 0)
(0.124555 -0.0127264 0)
(0.125095 -0.0132491 0)
(0.125569 -0.0137686 0)
(0.125965 -0.0142804 0)
(0.126275 -0.0147794 0)
(0.126487 -0.0152601 0)
(0.126593 -0.0157167 0)
(0.12658 -0.016143 0)
(0.126442 -0.0165326 0)
(0.126167 -0.0168791 0)
(0.125748 -0.0171763 0)
(0.125178 -0.0174181 0)
(0.124452 -0.0175989 0)
(0.123566 -0.0177136 0)
(0.122516 -0.0177583 0)
(0.121304 -0.0177296 0)
(0.119931 -0.0176255 0)
(0.118401 -0.0174453 0)
(0.116721 -0.0171894 0)
(0.114898 -0.0168596 0)
(0.112945 -0.0164591 0)
(0.110872 -0.0159922 0)
(0.108695 -0.0154643 0)
(0.10643 -0.0148818 0)
(0.104094 -0.0142518 0)
(0.101706 -0.0135822 0)
(0.0992853 -0.0128813 0)
(0.096851 -0.0121575 0)
(0.0944227 -0.0114191 0)
(0.0920194 -0.0106744 0)
(0.0896592 -0.00993095 0)
(0.0873588 -0.00919576 0)
(0.0851335 -0.00847488 0)
(0.0829972 -0.00777354 0)
(0.0809612 -0.0070959 0)
(0.0790359 -0.00644518 0)
(0.0772283 -0.00582381 0)
(0.0755455 -0.00523292 0)
(0.0739896 -0.0046739 0)
(0.0725654 -0.00414555 0)
(0.07127 -0.00364963 0)
(0.0701069 -0.00318156 0)
(0.0690688 -0.00274574 0)
(0.0681578 -0.00233284 0)
(0.0673665 -0.00194944 0)
(0.113675 -0.00165087 0)
(0.11378 -0.001755 0)
(0.114009 -0.00194409 0)
(0.114168 -0.00199271 0)
(0.114438 -0.00207261 0)
(0.114647 -0.00210802 0)
(0.114926 -0.0021533 0)
(0.115166 -0.00218194 0)
(0.115447 -0.00221246 0)
(0.115703 -0.00223474 0)
(0.115984 -0.0022564 0)
(0.116248 -0.00227296 0)
(0.116525 -0.00228845 0)
(0.116791 -0.00230053 0)
(0.117064 -0.00231183 0)
(0.117327 -0.00232095 0)
(0.117593 -0.00232978 0)
(0.117852 -0.00233744 0)
(0.118111 -0.00234536 0)
(0.118364 -0.00235296 0)
(0.118615 -0.00236131 0)
(0.118862 -0.00237006 0)
(0.119106 -0.00238004 0)
(0.119345 -0.002391 0)
(0.119582 -0.0024036 0)
(0.119816 -0.00241769 0)
(0.120047 -0.00243383 0)
(0.120275 -0.00245187 0)
(0.120501 -0.00247236 0)
(0.120724 -0.0024951 0)
(0.120946 -0.00252074 0)
(0.121166 -0.00254893 0)
(0.121386 -0.00258054 0)
(0.121603 -0.0026149 0)
(0.121821 -0.00265336 0)
(0.122037 -0.00269464 0)
(0.122256 -0.00274099 0)
(0.12247 -0.00278994 0)
(0.122692 -0.00284542 0)
(0.122906 -0.0029027 0)
(0.123133 -0.00296896 0)
(0.123347 -0.00303504 0)
(0.123579 -0.00311422 0)
(0.123796 -0.00318956 0)
(0.124029 -0.00328289 0)
(0.12426 -0.00337215 0)
(0.124494 -0.00347508 0)
(0.12473 -0.00358291 0)
(0.124972 -0.00370007 0)
(0.125215 -0.00382526 0)
(0.125464 -0.00395965 0)
(0.125715 -0.00410358 0)
(0.125971 -0.00425752 0)
(0.126229 -0.00442214 0)
(0.126492 -0.00459785 0)
(0.126758 -0.00478534 0)
(0.127026 -0.00498503 0)
(0.127297 -0.00519759 0)
(0.12757 -0.00542345 0)
(0.127844 -0.0056632 0)
(0.128118 -0.00591726 0)
(0.12839 -0.00618611 0)
(0.128659 -0.00647008 0)
(0.128924 -0.00676952 0)
(0.129182 -0.00708461 0)
(0.129431 -0.00741547 0)
(0.129668 -0.00776207 0)
(0.12989 -0.00812424 0)
(0.130093 -0.00850162 0)
(0.130274 -0.00889366 0)
(0.130428 -0.00929956 0)
(0.13055 -0.00971827 0)
(0.130633 -0.0101484 0)
(0.130674 -0.0105884 0)
(0.130664 -0.0110362 0)
(0.130596 -0.0114894 0)
(0.130464 -0.0119452 0)
(0.130258 -0.0124004 0)
(0.129972 -0.0128515 0)
(0.129595 -0.0132943 0)
(0.12912 -0.0137246 0)
(0.128537 -0.0141375 0)
(0.127837 -0.0145278 0)
(0.127013 -0.0148902 0)
(0.126055 -0.0152192 0)
(0.124957 -0.0155091 0)
(0.123712 -0.0157543 0)
(0.122314 -0.0159496 0)
(0.120759 -0.0160899 0)
(0.119045 -0.0161708 0)
(0.11717 -0.0161883 0)
(0.115136 -0.0161394 0)
(0.112946 -0.016022 0)
(0.110604 -0.015835 0)
(0.108119 -0.0155783 0)
(0.1055 -0.0152533 0)
(0.10276 -0.0148624 0)
(0.0999122 -0.0144095 0)
(0.0969743 -0.0138997 0)
(0.0939645 -0.0133391 0)
(0.0909027 -0.0127351 0)
(0.0878101 -0.0120957 0)
(0.0847088 -0.0114292 0)
(0.0816207 -0.0107444 0)
(0.078568 -0.0100499 0)
(0.0755721 -0.00935395 0)
(0.0726533 -0.00866408 0)
(0.0698307 -0.0079872 0)
(0.0671214 -0.00732919 0)
(0.0645406 -0.00669508 0)
(0.062101 -0.00608875 0)
(0.059813 -0.00551323 0)
(0.0576837 -0.00497047 0)
(0.0557187 -0.00446156 0)
(0.0539192 -0.00398681 0)
(0.0522866 -0.00354547 0)
(0.0508164 -0.00313698 0)
(0.0495077 -0.00275865 0)
(0.048351 -0.00241037 0)
(0.0473444 -0.00208683 0)
(0.0464756 -0.00179059 0)
(0.0457411 -0.00151206 0)
(0.0451303 -0.00125884 0)
(0.137119 -0.0015491 0)
(0.137106 -0.00167829 0)
(0.137152 -0.00184193 0)
(0.137138 -0.00193682 0)
(0.137202 -0.00205034 0)
(0.137222 -0.0021242 0)
(0.137295 -0.00220365 0)
(0.137339 -0.00225855 0)
(0.137414 -0.00231301 0)
(0.137469 -0.00235125 0)
(0.13754 -0.00238719 0)
(0.137597 -0.00241216 0)
(0.137661 -0.00243484 0)
(0.137715 -0.00245019 0)
(0.137771 -0.00246392 0)
(0.137818 -0.00247299 0)
(0.137865 -0.00248127 0)
(0.137905 -0.00248686 0)
(0.137942 -0.00249245 0)
(0.137973 -0.00249686 0)
(0.138 -0.00250195 0)
(0.138023 -0.00250699 0)
(0.138041 -0.00251329 0)
(0.138055 -0.00252042 0)
(0.138065 -0.0025293 0)
(0.138071 -0.00253968 0)
(0.138073 -0.00255226 0)
(0.138071 -0.00256689 0)
(0.138066 -0.00258412 0)
(0.138057 -0.00260387 0)
(0.138045 -0.00262658 0)
(0.13803 -0.00265228 0)
(0.138011 -0.0026813 0)
(0.13799 -0.00271377 0)
(0.137965 -0.00274988 0)
(0.137938 -0.00279004 0)
(0.137908 -0.00283404 0)
(0.137876 -0.00288289 0)
(0.13784 -0.00293561 0)
(0.137802 -0.00299435 0)
(0.137761 -0.00305662 0)
(0.137717 -0.00312658 0)
(0.13767 -0.00319943 0)
(0.137619 -0.00328177 0)
(0.137569 -0.00336696 0)
(0.13751 -0.00346164 0)
(0.137452 -0.00356307 0)
(0.137387 -0.00367153 0)
(0.13732 -0.00378836 0)
(0.137246 -0.0039132 0)
(0.137169 -0.0040471 0)
(0.137085 -0.0041901 0)
(0.136995 -0.0043429 0)
(0.136897 -0.00450579 0)
(0.136792 -0.0046793 0)
(0.136677 -0.0048638 0)
(0.136552 -0.00505974 0)
(0.136415 -0.00526747 0)
(0.136265 -0.00548736 0)
(0.136099 -0.00571973 0)
(0.135917 -0.0059648 0)
(0.135716 -0.00622278 0)
(0.135493 -0.00649377 0)
(0.135246 -0.00677776 0)
(0.134971 -0.00707465 0)
(0.134666 -0.00738419 0)
(0.134327 -0.00770596 0)
(0.133948 -0.0080394 0)
(0.133528 -0.0083837 0)
(0.133059 -0.00873787 0)
(0.132538 -0.00910065 0)
(0.131958 -0.00947051 0)
(0.131314 -0.00984564 0)
(0.1306 -0.0102239 0)
(0.129808 -0.0106029 0)
(0.128932 -0.0109797 0)
(0.127964 -0.0113514 0)
(0.126898 -0.0117144 0)
(0.125725 -0.012065 0)
(0.124439 -0.012399 0)
(0.123032 -0.0127123 0)
(0.121498 -0.0130001 0)
(0.119829 -0.0132579 0)
(0.118021 -0.0134808 0)
(0.116068 -0.013664 0)
(0.113966 -0.0138028 0)
(0.111713 -0.0138928 0)
(0.109308 -0.01393 0)
(0.106751 -0.0139108 0)
(0.104045 -0.0138324 0)
(0.101196 -0.0136929 0)
(0.0982093 -0.0134913 0)
(0.0950956 -0.0132278 0)
(0.0918664 -0.0129038 0)
(0.0885363 -0.0125221 0)
(0.085122 -0.0120865 0)
(0.0816423 -0.0116022 0)
(0.0781179 -0.0110753 0)
(0.0745712 -0.0105129 0)
(0.0710256 -0.00992246 0)
(0.0675058 -0.00931203 0)
(0.0640366 -0.00868978 0)
(0.0606429 -0.00806386 0)
(0.0573488 -0.00744226 0)
(0.0541771 -0.00683253 0)
(0.0511483 -0.00624168 0)
(0.0482805 -0.00567581 0)
(0.0455881 -0.00514005 0)
(0.0430817 -0.00463819 0)
(0.0407682 -0.00417279 0)
(0.03865 -0.00374491 0)
(0.0367264 -0.00335447 0)
(0.0349926 -0.00300021 0)
(0.0334425 -0.00267995 0)
(0.0320662 -0.00239115 0)
(0.0308552 -0.00213035 0)
(0.0297965 -0.00189496 0)
(0.0288822 -0.00168077 0)
(0.0280977 -0.00148635 0)
(0.0274372 -0.00130675 0)
(0.0268863 -0.00114245 0)
(0.0264404 -0.000987922 0)
(0.0260881 -0.000844677 0)
(0.148384 -0.00159504 0)
(0.148329 -0.00174102 0)
(0.14823 -0.00192452 0)
(0.148136 -0.0020206 0)
(0.148047 -0.00213532 0)
(0.147942 -0.00219641 0)
(0.147849 -0.00226624 0)
(0.147737 -0.00230415 0)
(0.147634 -0.00234563 0)
(0.147515 -0.00236761 0)
(0.147399 -0.00239077 0)
(0.147272 -0.00240176 0)
(0.147144 -0.00241308 0)
(0.147007 -0.00241682 0)
(0.146868 -0.00242082 0)
(0.146721 -0.00242029 0)
(0.146571 -0.00242031 0)
(0.146415 -0.00241793 0)
(0.146255 -0.0024165 0)
(0.146089 -0.00241419 0)
(0.145918 -0.00241325 0)
(0.145743 -0.00241253 0)
(0.145563 -0.00241357 0)
(0.145379 -0.00241567 0)
(0.14519 -0.00241988 0)
(0.144996 -0.00242576 0)
(0.144797 -0.00243411 0)
(0.144594 -0.00244459 0)
(0.144387 -0.00245788 0)
(0.144174 -0.00247368 0)
(0.143957 -0.00249265 0)
(0.143735 -0.00251444 0)
(0.143508 -0.00253982 0)
(0.143275 -0.00256825 0)
(0.143037 -0.0026008 0)
(0.142794 -0.00263653 0)
(0.142545 -0.0026771 0)
(0.142289 -0.00272082 0)
(0.142027 -0.00277035 0)
(0.141758 -0.0028228 0)
(0.141482 -0.00288237 0)
(0.141199 -0.00294437 0)
(0.140907 -0.00301506 0)
(0.140607 -0.00308781 0)
(0.140297 -0.00317022 0)
(0.139977 -0.00325593 0)
(0.139647 -0.00335027 0)
(0.139305 -0.00345015 0)
(0.138951 -0.00355833 0)
(0.138583 -0.0036734 0)
(0.138201 -0.00379694 0)
(0.137803 -0.00392839 0)
(0.137389 -0.0040687 0)
(0.136955 -0.00421774 0)
(0.136502 -0.00437612 0)
(0.136027 -0.00454389 0)
(0.135528 -0.00472145 0)
(0.135004 -0.00490889 0)
(0.134451 -0.00510644 0)
(0.133868 -0.00531414 0)
(0.133252 -0.00553206 0)
(0.1326 -0.00576011 0)
(0.131909 -0.00599814 0)
(0.131175 -0.00624587 0)
(0.130394 -0.00650291 0)
(0.129564 -0.00676869 0)
(0.128679 -0.0070425 0)
(0.127735 -0.00732344 0)
(0.126727 -0.0076104 0)
(0.125651 -0.00790206 0)
(0.124501 -0.00819684 0)
(0.123272 -0.00849293 0)
(0.121957 -0.00878824 0)
(0.120552 -0.0090804 0)
(0.11905 -0.00936677 0)
(0.117444 -0.00964443 0)
(0.115731 -0.00991019 0)
(0.113902 -0.0101606 0)
(0.111954 -0.0103921 0)
(0.109881 -0.0106007 0)
(0.107678 -0.0107825 0)
(0.105343 -0.0109336 0)
(0.102871 -0.0110498 0)
(0.100263 -0.0111274 0)
(0.0975166 -0.0111628 0)
(0.0946344 -0.0111528 0)
(0.0916194 -0.0110946 0)
(0.0884768 -0.0109862 0)
(0.0852139 -0.0108264 0)
(0.0818402 -0.0106148 0)
(0.0783679 -0.0103519 0)
(0.0748113 -0.0100395 0)
(0.0711874 -0.00967998 0)
(0.0675155 -0.00927705 0)
(0.0638175 -0.00883528 0)
(0.0601171 -0.00836027 0)
(0.0564402 -0.00785856 0)
(0.0528138 -0.00733757 0)
(0.049266 -0.00680547 0)
(0.0458244 -0.00627089 0)
(0.0425156 -0.0057426 0)
(0.039364 -0.00522909 0)
(0.0363899 -0.00473807 0)
(0.0336095 -0.00427609 0)
(0.0310336 -0.00384807 0)
(0.0286673 -0.00345718 0)
(0.0265105 -0.00310463 0)
(0.0245587 -0.00278997 0)
(0.022803 -0.00251114 0)
(0.0212325 -0.00226515 0)
(0.0198338 -0.0020483 0)
(0.0185935 -0.00185674 0)
(0.0174975 -0.00168679 0)
(0.0165332 -0.00153496 0)
(0.0156876 -0.00139863 0)
(0.0149508 -0.00127492 0)
(0.0143114 -0.00116257 0)
(0.0137626 -0.00105887 0)
(0.0132944 -0.00096398 0)
(0.0129025 -0.000874656 0)
(0.0125788 -0.000792637 0)
(0.0123199 -0.000713568 0)
(0.01212 -0.000640648 0)
(0.147835 -0.00142614 0)
(0.147685 -0.0015527 0)
(0.147458 -0.00168908 0)
(0.147245 -0.00177696 0)
(0.147001 -0.00187671 0)
(0.146755 -0.00193762 0)
(0.146495 -0.00200609 0)
(0.146229 -0.00204671 0)
(0.145954 -0.00209075 0)
(0.145672 -0.00211552 0)
(0.145383 -0.00214129 0)
(0.145086 -0.00215403 0)
(0.144783 -0.00216675 0)
(0.144473 -0.00217092 0)
(0.144158 -0.00217494 0)
(0.143836 -0.00217361 0)
(0.143509 -0.0021724 0)
(0.143177 -0.00216815 0)
(0.142839 -0.00216447 0)
(0.142496 -0.00215943 0)
(0.142148 -0.00215542 0)
(0.141796 -0.00215127 0)
(0.141438 -0.00214859 0)
(0.141076 -0.00214665 0)
(0.140708 -0.00214656 0)
(0.140336 -0.00214788 0)
(0.139958 -0.00215139 0)
(0.139576 -0.00215683 0)
(0.139187 -0.00216474 0)
(0.138794 -0.00217502 0)
(0.138394 -0.00218805 0)
(0.137988 -0.00220381 0)
(0.137575 -0.00222259 0)
(0.137155 -0.00224447 0)
(0.136728 -0.0022696 0)
(0.136293 -0.00229826 0)
(0.135849 -0.00233036 0)
(0.135397 -0.00236649 0)
(0.134935 -0.00240622 0)
(0.134462 -0.00245055 0)
(0.133979 -0.00249863 0)
(0.133484 -0.00255192 0)
(0.132976 -0.00260924 0)
(0.132455 -0.00267213 0)
(0.131919 -0.00273985 0)
(0.131367 -0.00281288 0)
(0.1308 -0.00289219 0)
(0.130213 -0.00297663 0)
(0.129607 -0.00306785 0)
(0.12898 -0.00316477 0)
(0.128332 -0.00326872 0)
(0.127658 -0.00337903 0)
(0.126959 -0.00349658 0)
(0.126232 -0.00362101 0)
(0.125475 -0.00375289 0)
(0.124685 -0.00389201 0)
(0.123861 -0.00403868 0)
(0.123 -0.00419274 0)
(0.122098 -0.00435428 0)
(0.121154 -0.0045231 0)
(0.120163 -0.00469909 0)
(0.119123 -0.00488189 0)
(0.11803 -0.00507117 0)
(0.11688 -0.00526637 0)
(0.11567 -0.0054669 0)
(0.114396 -0.00567192 0)
(0.113052 -0.0058805 0)
(0.111636 -0.00609149 0)
(0.110142 -0.00630358 0)
(0.108567 -0.00651524 0)
(0.106905 -0.00672473 0)
(0.105152 -0.00693009 0)
(0.103303 -0.00712918 0)
(0.101354 -0.0073196 0)
(0.0993016 -0.0074988 0)
(0.0971412 -0.00766403 0)
(0.0948699 -0.00781242 0)
(0.0924848 -0.00794097 0)
(0.0899839 -0.00804665 0)
(0.0873664 -0.00812644 0)
(0.0846321 -0.00817737 0)
(0.0817824 -0.00819663 0)
(0.07882 -0.00818164 0)
(0.0757494 -0.00813009 0)
(0.0725769 -0.0080401 0)
(0.0693108 -0.00791029 0)
(0.0659616 -0.00773991 0)
(0.0625424 -0.00752892 0)
(0.0590687 -0.0072782 0)
(0.0555587 -0.00698958 0)
(0.0520334 -0.00666604 0)
(0.048516 -0.00631169 0)
(0.0450321 -0.00593185 0)
(0.041609 -0.00553294 0)
(0.0382742 -0.00512235 0)
(0.0350551 -0.00470816 0)
(0.0319772 -0.00429872 0)
(0.0290627 -0.00390218 0)
(0.0263296 -0.0035259 0)
(0.0237903 -0.00317582 0)
(0.0214515 -0.00285603 0)
(0.0193141 -0.00256856 0)
(0.0173733 -0.00231337 0)
(0.0156203 -0.0020887 0)
(0.014043 -0.00189157 0)
(0.0126276 -0.00171845 0)
(0.0113596 -0.0015657 0)
(0.010225 -0.00143013 0)
(0.00921036 -0.00130911 0)
(0.00830366 -0.00120067 0)
(0.00749346 -0.00110342 0)
(0.00677038 -0.00101635 0)
(0.0061251 -0.000938771 0)
(0.00555087 -0.000869827 0)
(0.00504015 -0.000809045 0)
(0.00458852 -0.000755171 0)
(0.00418971 -0.000707889 0)
(0.00384108 -0.000665379 0)
(0.00353715 -0.000627775 0)
(0.00327649 -0.000592784 0)
(0.00305445 -0.000561151 0)
(0.00286996 -0.000530492 0)
(0.00271988 -0.000501717 0)
(0.135264 -0.00122087 0)
(0.135023 -0.00133964 0)
(0.134679 -0.00146086 0)
(0.134368 -0.0015435 0)
(0.133995 -0.00162856 0)
(0.133633 -0.00167897 0)
(0.133233 -0.00173109 0)
(0.132834 -0.00175733 0)
(0.13241 -0.00178449 0)
(0.131984 -0.00179388 0)
(0.131539 -0.00180372 0)
(0.131091 -0.001802 0)
(0.130629 -0.00180066 0)
(0.130164 -0.00179217 0)
(0.129689 -0.00178424 0)
(0.12921 -0.00177221 0)
(0.128724 -0.00176106 0)
(0.128234 -0.0017479 0)
(0.127738 -0.00173595 0)
(0.127239 -0.00172342 0)
(0.126735 -0.0017124 0)
(0.126228 -0.00170177 0)
(0.125716 -0.00169291 0)
(0.1252 -0.00168511 0)
(0.12468 -0.00167928 0)
(0.124156 -0.00167498 0)
(0.123627 -0.00167285 0)
(0.123093 -0.00167256 0)
(0.122554 -0.00167461 0)
(0.12201 -0.00167876 0)
(0.12146 -0.00168543 0)
(0.120903 -0.00169436 0)
(0.12034 -0.00170604 0)
(0.119769 -0.00172011 0)
(0.11919 -0.00173721 0)
(0.118602 -0.00175676 0)
(0.118005 -0.00177973 0)
(0.117397 -0.00180513 0)
(0.116778 -0.00183443 0)
(0.116148 -0.0018661 0)
(0.115504 -0.00190224 0)
(0.114846 -0.00194067 0)
(0.114173 -0.00198411 0)
(0.113483 -0.00202993 0)
(0.112776 -0.00208102 0)
(0.11205 -0.00213502 0)
(0.111303 -0.00219416 0)
(0.110534 -0.00225677 0)
(0.109741 -0.00232455 0)
(0.108923 -0.00239628 0)
(0.108077 -0.00247317 0)
(0.107202 -0.00255441 0)
(0.106296 -0.00264077 0)
(0.105356 -0.00273172 0)
(0.10438 -0.0028277 0)
(0.103365 -0.00292834 0)
(0.102309 -0.00303381 0)
(0.101209 -0.00314377 0)
(0.100063 -0.0032582 0)
(0.0988671 -0.00337668 0)
(0.0976184 -0.00349899 0)
(0.0963137 -0.00362461 0)
(0.0949499 -0.00375307 0)
(0.0935237 -0.00388369 0)
(0.0920316 -0.00401576 0)
(0.0904703 -0.00414837 0)
(0.0888366 -0.00428053 0)
(0.087127 -0.00441107 0)
(0.0853385 -0.00453872 0)
(0.0834681 -0.004662 0)
(0.081513 -0.00477935 0)
(0.0794709 -0.00488901 0)
(0.0773398 -0.00498912 0)
(0.0751182 -0.00507769 0)
(0.0728054 -0.00515264 0)
(0.0704012 -0.00521183 0)
(0.0679066 -0.0052531 0)
(0.0653235 -0.0052743 0)
(0.0626551 -0.00527342 0)
(0.059906 -0.00524856 0)
(0.0570826 -0.00519811 0)
(0.054193 -0.00512079 0)
(0.0512474 -0.00501574 0)
(0.048258 -0.00488268 0)
(0.0452395 -0.004722 0)
(0.0422087 -0.00453487 0)
(0.0391844 -0.00432337 0)
(0.0361875 -0.00409054 0)
(0.0332399 -0.00384045 0)
(0.0303643 -0.00357805 0)
(0.027583 -0.00330902 0)
(0.0249171 -0.00303944 0)
(0.0223853 -0.00277536 0)
(0.0200028 -0.00252231 0)
(0.0177802 -0.00228482 0)
(0.0157233 -0.00206607 0)
(0.013833 -0.00186765 0)
(0.0121059 -0.0016896 0)
(0.0105351 -0.00153062 0)
(0.00911178 -0.00138853 0)
(0.0078256 -0.0012607 0)
(0.00666556 -0.00114461 0)
(0.00562018 -0.0010383 0)
(0.00467807 -0.000940722 0)
(0.0038282 -0.000851716 0)
(0.0030606 -0.000771814 0)
(0.00236632 -0.000701674 0)
(0.00173796 -0.000641677 0)
(0.00116884 -0.000591577 0)
(0.000653625 -0.000550528 0)
(0.000186889 -0.000517306 0)
(-0.000235618 -0.000490474 0)
(-0.000618794 -0.000468848 0)
(-0.000966056 -0.000451156 0)
(-0.00128183 -0.000436798 0)
(-0.00156856 -0.000424671 0)
(-0.00183 -0.000414786 0)
(-0.00206762 -0.000405898 0)
(-0.00228434 -0.000398613 0)
(-0.00248095 -0.000391338 0)
(-0.0026594 -0.000385252 0)
(-0.00282033 -0.000378443 0)
(-0.00296455 -0.000372407 0)
(0.11078 -0.000897088 0)
(0.110455 -0.000980253 0)
(0.110012 -0.0010519 0)
(0.109603 -0.00110533 0)
(0.109113 -0.0011555 0)
(0.108641 -0.00118608 0)
(0.108114 -0.00121651 0)
(0.107596 -0.00123086 0)
(0.107041 -0.00124562 0)
(0.106491 -0.0012486 0)
(0.105916 -0.00125184 0)
(0.105344 -0.00124702 0)
(0.104755 -0.00124236 0)
(0.104167 -0.00123252 0)
(0.103569 -0.00122292 0)
(0.102972 -0.00121027 0)
(0.102368 -0.00119809 0)
(0.101764 -0.00118437 0)
(0.101157 -0.00117139 0)
(0.10055 -0.00115796 0)
(0.0999404 -0.00114554 0)
(0.0993312 -0.00113342 0)
(0.09872 -0.00112254 0)
(0.0981089 -0.00111248 0)
(0.097496 -0.00110386 0)
(0.0968824 -0.00109642 0)
(0.0962668 -0.00109056 0)
(0.0956497 -0.00108614 0)
(0.09503 -0.00108342 0)
(0.0944076 -0.00108233 0)
(0.0937817 -0.00108304 0)
(0.0931519 -0.00108555 0)
(0.0925173 -0.00108993 0)
(0.0918775 -0.00109626 0)
(0.0912312 -0.00110452 0)
(0.0905781 -0.00111489 0)
(0.0899169 -0.00112725 0)
(0.0892469 -0.00114188 0)
(0.0885669 -0.00115854 0)
(0.0878759 -0.00117766 0)
(0.0871727 -0.00119886 0)
(0.0864562 -0.00122266 0)
(0.0857251 -0.00124871 0)
(0.0849779 -0.00127731 0)
(0.0842134 -0.00130855 0)
(0.0834299 -0.00134209 0)
(0.082626 -0.0013787 0)
(0.0817998 -0.00141751 0)
(0.08095 -0.00145947 0)
(0.0800743 -0.0015037 0)
(0.0791713 -0.00155099 0)
(0.0782385 -0.00160063 0)
(0.0772744 -0.00165316 0)
(0.0762764 -0.00170802 0)
(0.0752428 -0.0017655 0)
(0.0741708 -0.00182515 0)
(0.0730587 -0.00188703 0)
(0.0719037 -0.00195074 0)
(0.0707038 -0.00201613 0)
(0.0694564 -0.00208276 0)
(0.0681593 -0.00215033 0)
(0.0668101 -0.00221829 0)
(0.0654067 -0.00228615 0)
(0.0639469 -0.00235327 0)
(0.062429 -0.00241896 0)
(0.060851 -0.00248242 0)
(0.0592116 -0.00254281 0)
(0.0575097 -0.00259914 0)
(0.0557447 -0.0026504 0)
(0.0539162 -0.00269547 0)
(0.0520249 -0.00273319 0)
(0.0500718 -0.00276235 0)
(0.0480589 -0.00278174 0)
(0.0459891 -0.00279013 0)
(0.0438662 -0.0027864 0)
(0.0416955 -0.0027695 0)
(0.0394832 -0.00273859 0)
(0.0372372 -0.00269305 0)
(0.0349664 -0.00263261 0)
(0.0326817 -0.00255736 0)
(0.0303948 -0.00246786 0)
(0.0281191 -0.00236516 0)
(0.0258687 -0.00225085 0)
(0.0236587 -0.00212699 0)
(0.0215041 -0.00199607 0)
(0.0194194 -0.00186093 0)
(0.017418 -0.00172454 0)
(0.0155115 -0.00158985 0)
(0.013709 -0.00145956 0)
(0.012017 -0.00133586 0)
(0.0104394 -0.00122024 0)
(0.00897753 -0.00111333 0)
(0.00763077 -0.00101482 0)
(0.00639646 -0.000923511 0)
(0.00527024 -0.000837707 0)
(0.00424615 -0.000755777 0)
(0.003317 -0.000676866 0)
(0.0024749 -0.000601369 0)
(0.00171186 -0.000530836 0)
(0.00102043 -0.00046733 0)
(0.000393909 -0.000412495 0)
(-0.000173429 -0.000366943 0)
(-0.000686737 -0.000330131 0)
(-0.00115065 -0.000300799 0)
(-0.00156986 -0.000277493 0)
(-0.00194887 -0.000259004 0)
(-0.00229256 -0.000244426 0)
(-0.00260538 -0.0002331 0)
(-0.00289198 -0.00022446 0)
(-0.00315604 -0.000217972 0)
(-0.00340132 -0.000213213 0)
(-0.00363026 -0.000209791 0)
(-0.00384566 -0.000207604 0)
(-0.0040489 -0.000206422 0)
(-0.00424216 -0.000206419 0)
(-0.00442605 -0.000207263 0)
(-0.00460237 -0.000209252 0)
(-0.00477128 -0.000211753 0)
(-0.00493416 -0.00021517 0)
(-0.00509094 -0.00021861 0)
(-0.00524245 -0.000222586 0)
(-0.00538872 -0.000226188 0)
(-0.00552985 -0.000229851 0)
(0.0744547 -0.000508452 0)
(0.074082 -0.000562284 0)
(0.0735757 -0.000601724 0)
(0.0731175 -0.000634418 0)
(0.0725629 -0.000658033 0)
(0.0720412 -0.000671394 0)
(0.0714541 -0.000679346 0)
(0.07089 -0.000678228 0)
(0.0702838 -0.000674139 0)
(0.0696948 -0.000663633 0)
(0.0690805 -0.000651786 0)
(0.06848 -0.000636085 0)
(0.0678659 -0.000620142 0)
(0.0672639 -0.00060232 0)
(0.066656 -0.000584988 0)
(0.0660591 -0.000567132 0)
(0.0654613 -0.000550229 0)
(0.0648736 -0.00053366 0)
(0.064288 -0.000518311 0)
(0.0637115 -0.000503797 0)
(0.0631387 -0.00049063 0)
(0.0625739 -0.000478559 0)
(0.0620132 -0.000467871 0)
(0.0614592 -0.000458391 0)
(0.0609092 -0.000450276 0)
(0.0603643 -0.000443389 0)
(0.0598226 -0.000437823 0)
(0.0592846 -0.000433458 0)
(0.0587484 -0.000430362 0)
(0.0582143 -0.000428413 0)
(0.0576805 -0.000427693 0)
(0.0571469 -0.000428051 0)
(0.056612 -0.000429623 0)
(0.0560754 -0.000432188 0)
(0.0555357 -0.000435987 0)
(0.0549922 -0.000440673 0)
(0.0544435 -0.00044666 0)
(0.053889 -0.000453402 0)
(0.0533272 -0.000461553 0)
(0.0527574 -0.000470308 0)
(0.052178 -0.000480599 0)
(0.0515883 -0.000491356 0)
(0.0509865 -0.000503729 0)
(0.050372 -0.000516518 0)
(0.0497429 -0.000530863 0)
(0.0490985 -0.000545707 0)
(0.048437 -0.00056193 0)
(0.0477572 -0.000578702 0)
(0.0470578 -0.00059671 0)
(0.0463372 -0.000615274 0)
(0.0455942 -0.000634894 0)
(0.0448271 -0.000655023 0)
(0.0440349 -0.000675977 0)
(0.0432158 -0.000697315 0)
(0.0423687 -0.00071919 0)
(0.041492 -0.000741227 0)
(0.0405848 -0.000763442 0)
(0.0396455 -0.000785489 0)
(0.0386734 -0.000807269 0)
(0.0376674 -0.000828434 0)
(0.0366268 -0.000848789 0)
(0.035551 -0.000867966 0)
(0.0344399 -0.000885692 0)
(0.0332933 -0.000901572 0)
(0.0321118 -0.000915275 0)
(0.0308961 -0.000926394 0)
(0.0296473 -0.000934567 0)
(0.0283674 -0.000939397 0)
(0.0270585 -0.000940541 0)
(0.0257237 -0.000937655 0)
(0.0243665 -0.000930471 0)
(0.0229911 -0.000918765 0)
(0.0216026 -0.000902419 0)
(0.0202064 -0.000881407 0)
(0.0188087 -0.000855846 0)
(0.0174162 -0.000825993 0)
(0.0160359 -0.000792278 0)
(0.014675 -0.000755296 0)
(0.0133408 -0.000715814 0)
(0.0120404 -0.000674733 0)
(0.0107806 -0.000633039 0)
(0.00956744 -0.00059171 0)
(0.00840661 -0.000551594 0)
(0.00730278 -0.000513258 0)
(0.00625973 -0.000476854 0)
(0.00528024 -0.000442038 0)
(0.00436602 -0.000408019 0)
(0.00351766 -0.000373786 0)
(0.00273466 -0.000338486 0)
(0.00201544 -0.000301837 0)
(0.00135747 -0.000264392 0)
(0.000757509 -0.000227484 0)
(0.000211843 -0.000192846 0)
(-0.000283295 -0.000162054 0)
(-0.000731419 -0.000136068 0)
(-0.00113557 -0.000115074 0)
(-0.00149842 -9.86573e-05 0)
(-0.00182253 -8.61454e-05 0)
(-0.00211083 -7.68557e-05 0)
(-0.00236683 -7.01575e-05 0)
(-0.00259464 -6.53709e-05 0)
(-0.0027985 -6.1726e-05 0)
(-0.00298243 -5.84502e-05 0)
(-0.00314974 -5.50002e-05 0)
(-0.00330323 -5.12284e-05 0)
(-0.00344501 -4.74131e-05 0)
(-0.00357708 -4.40893e-05 0)
(-0.00370103 -4.18042e-05 0)
(-0.00381867 -4.09334e-05 0)
(-0.0039312 -4.15573e-05 0)
(-0.00404015 -4.35727e-05 0)
(-0.00414625 -4.66546e-05 0)
(-0.00425074 -5.05667e-05 0)
(-0.00435395 -5.4911e-05 0)