/*--------------------------------*- C++ -*----------------------------------*\
| =========                 |                                                 |
| \\      /  F ield         | OpenFOAM: The Open Source CFD Toolbox           |
|  \\    /   O peration     | Version:  4.1                                   |
|   \\  /    A nd           | Web:      www.OpenFOAM.org                      |
|    \\/     M anipulation  |                                                 |
\*---------------------------------------------------------------------------*/
FoamFile
{
    version     2.0;
    format      ascii;
    class       volVectorField;
    location    "1020";
    object      U;
}
// * * * * * * * * * * * * * * * * * * * * * * * * * * * * * * * * * * * * * //

dimensions      [0 1 -1 0 0 0 0];

internalField   nonuniform List<vector> 
1275
(
(0.0911636 -0.00442201 0)
(0.0911682 -0.00445871 0)
(0.0911434 -0.00441949 0)
(0.0911339 -0.00446282 0)
(0.0910869 -0.00442042 0)
(0.0780221 0.0042528 0)
(0.0789452 0.00448724 0)
(0.0798916 0.00472488 0)
(0.0808593 0.00496995 0)
(0.081847 0.00522065 0)
(0.0828522 0.00547865 0)
(0.0838735 0.00574323 0)
(0.0849082 0.00601507 0)
(0.0859546 0.00629367 0)
(0.08701 0.00657911 0)
(0.088072 0.00687079 0)
(0.0891376 0.0071683 0)
(0.090204 0.00747078 0)
(0.0912679 0.00777737 0)
(0.0923258 0.00808684 0)
(0.0933739 0.00839789 0)
(0.0944085 0.00870889 0)
(0.0954254 0.00901808 0)
(0.0964203 0.00932342 0)
(0.0973888 0.00962273 0)
(0.0983266 0.00991362 0)
(0.0992291 0.0101935 0)
(0.100092 0.0104598 0)
(0.100911 0.0107097 0)
(0.101681 0.0109404 0)
(0.102399 0.0111492 0)
(0.103062 0.0113332 0)
(0.103665 0.0114899 0)
(0.104206 0.0116169 0)
(0.104684 0.011712 0)
(0.105095 0.0117731 0)
(0.105439 0.0117989 0)
(0.105716 0.0117882 0)
(0.105925 0.0117401 0)
(0.106068 0.0116543 0)
(0.106145 0.0115311 0)
(0.106159 0.011371 0)
(0.106113 0.0111751 0)
(0.106009 0.0109448 0)
(0.105851 0.010682 0)
(0.105643 0.0103888 0)
(0.10539 0.0100678 0)
(0.105095 0.00972163 0)
(0.104765 0.00935323 0)
(0.104403 0.0089656 0)
(0.104015 0.00856181 0)
(0.103606 0.00814494 0)
(0.10318 0.00771801 0)
(0.102742 0.00728396 0)
(0.102297 0.0068456 0)
(0.101848 0.00640557 0)
(0.1014 0.0059663 0)
(0.100956 0.00553003 0)
(0.100519 0.00509876 0)
(0.100092 0.00467427 0)
(0.099677 0.00425811 0)
(0.099277 0.00385157 0)
(0.0988932 0.00345575 0)
(0.0985271 0.00307155 0)
(0.0981799 0.00269964 0)
(0.0978523 0.00234053 0)
(0.0975447 0.00199458 0)
(0.0972576 0.00166198 0)
(0.0969909 0.00134281 0)
(0.0967444 0.00103703 0)
(0.0965177 0.00074451 0)
(0.0963105 0.000465039 0)
(0.0961221 0.000198336 0)
(0.0959517 -5.59316e-05 0)
(0.0957985 -0.000298138 0)
(0.0956616 -0.000528691 0)
(0.0955401 -0.000748021 0)
(0.095433 -0.000956573 0)
(0.0953393 -0.0011548 0)
(0.0952581 -0.00134316 0)
(0.0951882 -0.00152211 0)
(0.0951287 -0.00169209 0)
(0.0950785 -0.00185355 0)
(0.0950368 -0.0020069 0)
(0.0950025 -0.00215256 0)
(0.0949748 -0.00229091 0)
(0.0949526 -0.00242234 0)
(0.0949353 -0.0025472 0)
(0.0949219 -0.00266582 0)
(0.0949116 -0.00277852 0)
(0.0949038 -0.0028856 0)
(0.0948976 -0.00298733 0)
(0.0948923 -0.00308397 0)
(0.0948874 -0.00317576 0)
(0.0948822 -0.00326291 0)
(0.094876 -0.00334563 0)
(0.0948683 -0.0034241 0)
(0.0948587 -0.00349849 0)
(0.0948465 -0.00356896 0)
(0.0948313 -0.00363564 0)
(0.0948127 -0.00369866 0)
(0.0947901 -0.00375813 0)
(0.0947633 -0.00381416 0)
(0.0947319 -0.00386684 0)
(0.0946954 -0.00391627 0)
(0.0946537 -0.00396249 0)
(0.0946062 -0.00400567 0)
(0.0945529 -0.00404571 0)
(0.0944933 -0.00408293 0)
(0.0944274 -0.00411703 0)
(0.0943547 -0.0041486 0)
(0.0942753 -0.00417695 0)
(0.0941887 -0.00420323 0)
(0.0940951 -0.00422598 0)
(0.0939937 -0.00424745 0)
(0.0938857 -0.00426464 0)
(0.0937687 -0.00428199 0)
(0.0936462 -0.00429352 0)
(0.0935124 -0.00430772 0)
(0.0933764 -0.00431326 0)
(0.0932235 -0.00432573 0)
(0.0930769 -0.00432456 0)
(0.0928997 -0.00433722 0)
(0.0927505 -0.00432822 0)
(0.0925363 -0.00434321 0)
(0.092404 -0.00432536 0)
(0.0921236 -0.00434329 0)
(0.0919489 -0.00431285 0)
(0.0917831 -0.0043437 0)
(0.0915027 -0.00429433 0)
(0.0913655 -0.00433075 0)
(0.0910003 -0.00427557 0)
(0.0575506 0.0032163 0)
(0.0586294 0.00342044 0)
(0.0597387 0.00363095 0)
(0.0608787 0.0038495 0)
(0.0620482 0.00407553 0)
(0.0632463 0.00431021 0)
(0.064472 0.00455321 0)
(0.065724 0.00480522 0)
(0.0670012 0.00506598 0)
(0.0683019 0.00533573 0)
(0.0696244 0.00561411 0)
(0.0709668 0.00590096 0)
(0.0723268 0.00619567 0)
(0.073702 0.00649766 0)
(0.0750895 0.00680598 0)
(0.0764861 0.00711958 0)
(0.0778886 0.0074371 0)
(0.079293 0.00775703 0)
(0.0806955 0.00807752 0)
(0.0820918 0.00839657 0)
(0.0834772 0.00871191 0)
(0.0848472 0.00902109 0)
(0.0861968 0.00932145 0)
(0.0875212 0.0096102 0)
(0.0888154 0.0098844 0)
(0.0900744 0.0101411 0)
(0.0912936 0.0103773 0)
(0.0924681 0.0105901 0)
(0.0935939 0.0107766 0)
(0.0946667 0.0109342 0)
(0.095683 0.0110604 0)
(0.0966397 0.0111532 0)
(0.0975341 0.0112107 0)
(0.0983642 0.0112316 0)
(0.0991285 0.0112149 0)
(0.0998262 0.0111602 0)
(0.100457 0.0110674 0)
(0.101021 0.0109368 0)
(0.101519 0.0107695 0)
(0.101954 0.0105668 0)
(0.102326 0.0103304 0)
(0.102639 0.0100623 0)
(0.102894 0.00976505 0)
(0.103097 0.00944127 0)
(0.103249 0.0090938 0)
(0.103355 0.00872564 0)
(0.103419 0.00833985 0)
(0.103444 0.00793952 0)
(0.103434 0.00752771 0)
(0.103394 0.00710737 0)
(0.103327 0.00668136 0)
(0.103237 0.00625236 0)
(0.103126 0.00582287 0)
(0.103 0.0053952 0)
(0.10286 0.00497143 0)
(0.102709 0.00455341 0)
(0.10255 0.00414277 0)
(0.102385 0.00374092 0)
(0.102217 0.00334904 0)
(0.102045 0.00296811 0)
(0.101874 0.00259893 0)
(0.101702 0.00224209 0)
(0.101532 0.00189803 0)
(0.101364 0.00156705 0)
(0.101199 0.0012493 0)
(0.101038 0.000944816 0)
(0.100879 0.000653542 0)
(0.100725 0.000375328 0)
(0.100574 0.000109952 0)
(0.100426 -0.00014287 0)
(0.100282 -0.000383469 0)
(0.100141 -0.000612216 0)
(0.100002 -0.00082951 0)
(0.0998662 -0.00103577 0)
(0.0997322 -0.00123143 0)
(0.0995998 -0.00141694 0)
(0.0994684 -0.00159272 0)
(0.0993377 -0.00175923 0)
(0.0992072 -0.00191689 0)
(0.0990763 -0.00206612 0)
(0.0989447 -0.00220734 0)
(0.0988119 -0.00234094 0)
(0.0986774 -0.00246728 0)
(0.0985408 -0.00258674 0)
(0.0984016 -0.00269965 0)
(0.0982595 -0.00280634 0)
(0.0981141 -0.00290709 0)
(0.0979649 -0.00300221 0)
(0.0978117 -0.00309195 0)
(0.0976541 -0.00317655 0)
(0.0974917 -0.00325625 0)
(0.0973243 -0.00333126 0)
(0.0971515 -0.00340176 0)
(0.0969732 -0.00346794 0)
(0.0967891 -0.00352996 0)
(0.0965988 -0.00358797 0)
(0.0964023 -0.00364211 0)
(0.0961993 -0.0036925 0)
(0.0959896 -0.00373926 0)
(0.0957731 -0.00378251 0)
(0.0955496 -0.00382231 0)
(0.095319 -0.00385884 0)
(0.0950811 -0.00389206 0)
(0.0948359 -0.00392223 0)
(0.0945833 -0.00394918 0)
(0.0943232 -0.00397338 0)
(0.0940555 -0.00399434 0)
(0.0937804 -0.00401298 0)
(0.0934973 -0.00402817 0)
(0.093207 -0.00404179 0)
(0.0929084 -0.00405135 0)
(0.0926032 -0.00406063 0)
(0.0922886 -0.00406457 0)
(0.091969 -0.00407053 0)
(0.091638 -0.00406852 0)
(0.0913051 -0.00407273 0)
(0.0909564 -0.00406385 0)
(0.0906123 -0.00406881 0)
(0.0902434 -0.00405102 0)
(0.0898919 -0.00406056 0)
(0.0894989 -0.00403049 0)
(0.0891453 -0.00404848 0)
(0.08872 -0.00400619 0)
(0.0883885 -0.0040294 0)
(0.0878903 -0.00397443 0)
(0.0876385 -0.00400359 0)
(0.0869923 -0.00393987 0)
(0.0386294 0.00212946 0)
(0.0396825 0.00229902 0)
(0.040772 0.00247553 0)
(0.0418986 0.00266024 0)
(0.0430618 0.0028529 0)
(0.0442618 0.00305462 0)
(0.0454985 0.00326527 0)
(0.0467715 0.0034856 0)
(0.0480805 0.00371557 0)
(0.0494251 0.00395559 0)
(0.0508044 0.00420554 0)
(0.0522174 0.00446553 0)
(0.053663 0.00473523 0)
(0.0551396 0.00501437 0)
(0.0566453 0.00530233 0)
(0.0581779 0.00559841 0)
(0.0597349 0.0059016 0)
(0.0613134 0.00621071 0)
(0.06291 0.00652426 0)
(0.0645213 0.00684056 0)
(0.0661432 0.00715764 0)
(0.0677714 0.0074733 0)
(0.0694014 0.00778509 0)
(0.0710284 0.00809037 0)
(0.0726472 0.00838634 0)
(0.0742528 0.00867003 0)
(0.07584 0.00893842 0)
(0.0774033 0.00918844 0)
(0.0789377 0.00941708 0)
(0.080438 0.00962139 0)
(0.0818994 0.00979862 0)
(0.0833172 0.00994623 0)
(0.0846871 0.010062 0)
(0.0860052 0.010144 0)
(0.0872682 0.0101907 0)
(0.0884729 0.010201 0)
(0.089617 0.0101744 0)
(0.0906985 0.0101107 0)
(0.0917161 0.0100102 0)
(0.0926691 0.00987358 0)
(0.0935571 0.00970218 0)
(0.0943805 0.00949757 0)
(0.0951399 0.0092617 0)
(0.0958367 0.00899686 0)
(0.0964723 0.00870558 0)
(0.0970488 0.00839057 0)
(0.0975684 0.00805471 0)
(0.0980336 0.00770093 0)
(0.0984472 0.00733222 0)
(0.0988119 0.0069515 0)
(0.0991307 0.00656166 0)
(0.0994064 0.00616547 0)
(0.0996422 0.00576554 0)
(0.0998407 0.00536433 0)
(0.100005 0.00496409 0)
(0.100137 0.00456689 0)
(0.100241 0.00417455 0)
(0.100317 0.00378872 0)
(0.100369 0.00341081 0)
(0.100399 0.00304201 0)
(0.100408 0.00268333 0)
(0.100399 0.00233558 0)
(0.100372 0.00199941 0)
(0.10033 0.00167529 0)
(0.100272 0.00136354 0)
(0.100202 0.00106437 0)
(0.100119 0.000777863 0)
(0.100024 0.000503987 0)
(0.0999177 0.000242638 0)
(0.0998014 -6.36881e-06 0)
(0.0996751 -0.00024328 0)
(0.0995393 -0.000468392 0)
(0.0993944 -0.000682043 0)
(0.0992406 -0.000884603 0)
(0.0990782 -0.00107646 0)
(0.0989074 -0.00125803 0)
(0.0987283 -0.00142972 0)
(0.0985409 -0.00159195 0)
(0.0983455 -0.00174514 0)
(0.0981419 -0.0018897 0)
(0.0979303 -0.00202604 0)
(0.0977107 -0.00215454 0)
(0.097483 -0.00227558 0)
(0.0972473 -0.00238953 0)
(0.0970035 -0.00249673 0)
(0.0967517 -0.00259751 0)
(0.0964917 -0.00269217 0)
(0.0962236 -0.00278102 0)
(0.0959474 -0.00286431 0)
(0.095663 -0.00294232 0)
(0.0953703 -0.00301526 0)
(0.0950694 -0.00308337 0)
(0.0947603 -0.00314685 0)
(0.094443 -0.00320588 0)
(0.0941174 -0.00326064 0)
(0.0937835 -0.0033113 0)
(0.0934413 -0.003358 0)
(0.0930909 -0.00340088 0)
(0.0927323 -0.00344005 0)
(0.0923655 -0.00347567 0)
(0.0919906 -0.0035078 0)
(0.0916074 -0.00353662 0)
(0.0912163 -0.00356211 0)
(0.0908171 -0.00358455 0)
(0.09041 -0.00360376 0)
(0.0899949 -0.00362024 0)
(0.0895722 -0.00363349 0)
(0.0891415 -0.00364448 0)
(0.0887035 -0.00365204 0)
(0.0882575 -0.00365807 0)
(0.0878048 -0.00366014 0)
(0.0873439 -0.0036619 0)
(0.0868768 -0.00365858 0)
(0.0864017 -0.00365699 0)
(0.0859203 -0.00364819 0)
(0.085432 -0.00364453 0)
(0.0849358 -0.00362985 0)
(0.0844368 -0.00362586 0)
(0.083923 -0.00360442 0)
(0.0834196 -0.0036025 0)
(0.0828797 -0.00357256 0)
(0.0823873 -0.00357609 0)
(0.0818011 -0.00353428 0)
(0.0813512 -0.00354749 0)
(0.0806755 -0.00349243 0)
(0.0803406 -0.00351232 0)
(0.0794751 -0.00344865 0)
(0.0227962 0.00114739 0)
(0.0236894 0.00127776 0)
(0.0246215 0.001415 0)
(0.0255938 0.0015599 0)
(0.0266065 0.00171259 0)
(0.0276607 0.00187391 0)
(0.0287568 0.00204401 0)
(0.0298954 0.00222364 0)
(0.0310769 0.00241296 0)
(0.0323018 0.00261253 0)
(0.0335701 0.00282248 0)
(0.0348817 0.0030431 0)
(0.0362365 0.00327438 0)
(0.0376337 0.00351634 0)
(0.0390727 0.00376867 0)
(0.0405521 0.00403104 0)
(0.0420706 0.00430277 0)
(0.0436262 0.00458308 0)
(0.0452166 0.00487085 0)
(0.0468392 0.00516477 0)
(0.0484911 0.00546322 0)
(0.0501687 0.00576436 0)
(0.0518683 0.00606608 0)
(0.0535857 0.00636601 0)
(0.0553165 0.00666158 0)
(0.0570559 0.00695006 0)
(0.0587989 0.00722855 0)
(0.0605404 0.00749408 0)
(0.0622751 0.00774362 0)
(0.0639975 0.00797422 0)
(0.0657023 0.00818298 0)
(0.067384 0.00836719 0)
(0.0690375 0.00852433 0)
(0.0706577 0.0086522 0)
(0.0722398 0.0087489 0)
(0.0737794 0.00881293 0)
(0.0752722 0.00884319 0)
(0.0767146 0.00883904 0)
(0.0781033 0.00880025 0)
(0.0794354 0.00872708 0)
(0.0807086 0.0086202 0)
(0.081921 0.0084807 0)
(0.0830713 0.00831003 0)
(0.0841586 0.00811002 0)
(0.0851826 0.00788276 0)
(0.0861431 0.00763058 0)
(0.0870407 0.00735601 0)
(0.087876 0.0070617 0)
(0.0886504 0.00675037 0)
(0.0893651 0.00642479 0)
(0.0900217 0.00608767 0)
(0.0906222 0.00574168 0)
(0.0911685 0.00538939 0)
(0.0916627 0.00503323 0)
(0.0921069 0.00467547 0)
(0.0925035 0.00431822 0)
(0.0928546 0.00396338 0)
(0.0931623 0.00361268 0)
(0.093429 0.00326763 0)
(0.0936567 0.00292956 0)
(0.0938475 0.00259961 0)
(0.0940032 0.0022787 0)
(0.0941258 0.00196764 0)
(0.0942171 0.00166701 0)
(0.0942786 0.00137729 0)
(0.094312 0.0010988 0)
(0.0943188 0.000831745 0)
(0.0943002 0.000576218 0)
(0.0942576 0.00033222 0)
(0.0941922 9.96673e-05 0)
(0.094105 -0.000121593 0)
(0.093997 -0.000331774 0)
(0.0938691 -0.000531135 0)
(0.0937223 -0.000719973 0)
(0.0935573 -0.000898619 0)
(0.0933748 -0.00106742 0)
(0.0931756 -0.00122674 0)
(0.0929602 -0.00137696 0)
(0.0927292 -0.00151845 0)
(0.0924832 -0.0016516 0)
(0.0922226 -0.00177676 0)
(0.0919479 -0.00189431 0)
(0.0916596 -0.0020046 0)
(0.0913579 -0.00210797 0)
(0.0910433 -0.00220476 0)
(0.0907162 -0.00229527 0)
(0.0903768 -0.0023798 0)
(0.0900254 -0.00245863 0)
(0.0896624 -0.00253203 0)
(0.0892879 -0.00260025 0)
(0.0889023 -0.00266352 0)
(0.0885058 -0.00272206 0)
(0.0880986 -0.00277606 0)
(0.0876809 -0.00282572 0)
(0.087253 -0.00287121 0)
(0.086815 -0.0029127 0)
(0.0863672 -0.00295033 0)
(0.0859097 -0.00298425 0)
(0.0854428 -0.00301457 0)
(0.0849666 -0.00304146 0)
(0.0844814 -0.00306496 0)
(0.0839873 -0.00308528 0)
(0.0834845 -0.00310239 0)
(0.0829732 -0.00311659 0)
(0.0824538 -0.00312769 0)
(0.0819261 -0.00313621 0)
(0.0813907 -0.00314162 0)
(0.0808475 -0.00314495 0)
(0.080297 -0.00314494 0)
(0.079739 -0.00314366 0)
(0.0791743 -0.00313841 0)
(0.0786025 -0.00313327 0)
(0.0780243 -0.00312281 0)
(0.0774398 -0.00311485 0)
(0.0768484 -0.00309895 0)
(0.0762532 -0.00308964 0)
(0.0756479 -0.00306772 0)
(0.0750453 -0.00305905 0)
(0.0744228 -0.00303012 0)
(0.0738206 -0.00302454 0)
(0.0731717 -0.00298768 0)
(0.0725874 -0.00298717 0)
(0.0718885 -0.00294291 0)
(0.0713624 -0.00294757 0)
(0.0705605 -0.00289668 0)
(0.0701757 -0.00290595 0)
(0.0691635 -0.00284993 0)
(0.0102755 0.000382131 0)
(0.0109359 0.000473669 0)
(0.0116345 0.000571105 0)
(0.0123731 0.000675069 0)
(0.0131525 0.000785823 0)
(0.0139742 0.00090415 0)
(0.0148392 0.00103033 0)
(0.0157488 0.0011651 0)
(0.0167041 0.0013088 0)
(0.0177061 0.00146204 0)
(0.0187556 0.00162517 0)
(0.0198535 0.00179865 0)
(0.0210003 0.0019827 0)
(0.0221962 0.00217758 0)
(0.0234414 0.0023833 0)
(0.0247357 0.00259983 0)
(0.0260786 0.00282684 0)
(0.0274692 0.00306392 0)
(0.0289063 0.00331034 0)
(0.0303883 0.00356518 0)
(0.0319133 0.00382725 0)
(0.0334788 0.0040951 0)
(0.0350822 0.00436701 0)
(0.0367201 0.00464102 0)
(0.0383892 0.0049149 0)
(0.0400853 0.00518625 0)
(0.0418043 0.00545246 0)
(0.0435415 0.00571081 0)
(0.0452922 0.00595848 0)
(0.0470512 0.00619262 0)
(0.0488132 0.00641044 0)
(0.0505728 0.00660922 0)
(0.0523247 0.00678642 0)
(0.0540632 0.0069397 0)
(0.055783 0.007067 0)
(0.0574788 0.00716659 0)
(0.0591454 0.00723708 0)
(0.0607779 0.00727747 0)
(0.0623716 0.00728719 0)
(0.0639223 0.00726604 0)
(0.065426 0.00721427 0)
(0.0668792 0.00713249 0)
(0.0682788 0.00702171 0)
(0.069622 0.00688325 0)
(0.0709068 0.00671876 0)
(0.0721313 0.0065301 0)
(0.0732941 0.00631939 0)
(0.0743945 0.00608886 0)
(0.0754319 0.00584089 0)
(0.0764062 0.0055779 0)
(0.0773177 0.00530232 0)
(0.0781669 0.00501658 0)
(0.0789546 0.00472302 0)
(0.0796821 0.00442391 0)
(0.0803506 0.00412139 0)
(0.0809615 0.00381748 0)
(0.0815166 0.003514 0)
(0.0820175 0.00321265 0)
(0.082466 0.00291494 0)
(0.0828641 0.00262218 0)
(0.0832137 0.00233556 0)
(0.0835166 0.00205604 0)
(0.0837748 0.00178447 0)
(0.0839902 0.00152152 0)
(0.0841645 0.00126772 0)
(0.0842998 0.00102346 0)
(0.0843976 0.00078904 0)
(0.0844597 0.000564618 0)
(0.0844877 0.000350277 0)
(0.0844831 0.000146011 0)
(0.0844475 -4.82594e-05 0)
(0.0843824 -0.000232672 0)
(0.0842889 -0.000407417 0)
(0.0841685 -0.000572726 0)
(0.0840223 -0.000728863 0)
(0.0838514 -0.000876119 0)
(0.0836571 -0.0010148 0)
(0.0834402 -0.00114523 0)
(0.0832017 -0.00126773 0)
(0.0829425 -0.00138263 0)
(0.0826636 -0.00149026 0)
(0.0823655 -0.00159094 0)
(0.0820493 -0.00168498 0)
(0.0817154 -0.0017727 0)
(0.0813646 -0.00185437 0)
(0.0809975 -0.0019303 0)
(0.0806146 -0.00200073 0)
(0.0802166 -0.00206593 0)
(0.079804 -0.00212613 0)
(0.0793771 -0.00218155 0)
(0.0789366 -0.00223242 0)
(0.0784829 -0.00227892 0)
(0.0780163 -0.00232124 0)
(0.0775373 -0.00235955 0)
(0.0770462 -0.00239402 0)
(0.0765435 -0.00242479 0)
(0.0760296 -0.002452 0)
(0.0755047 -0.00247578 0)
(0.0749693 -0.00249626 0)
(0.0744237 -0.00251357 0)
(0.0738682 -0.00252777 0)
(0.0733032 -0.00253905 0)
(0.0727291 -0.0025474 0)
(0.0721461 -0.0025531 0)
(0.0715548 -0.00255595 0)
(0.0709552 -0.00255651 0)
(0.0703481 -0.00255421 0)
(0.0697333 -0.00255011 0)
(0.0691118 -0.00254294 0)
(0.0684833 -0.00253477 0)
(0.0678489 -0.00252293 0)
(0.0672083 -0.0025114 0)
(0.0665621 -0.00249499 0)
(0.0659115 -0.00248105 0)
(0.0652541 -0.00245999 0)
(0.0645963 -0.00244489 0)
(0.063927 -0.00241894 0)
(0.063267 -0.00240423 0)
(0.062582 -0.00237307 0)
(0.0619298 -0.00236047 0)
(0.061218 -0.0023242 0)
(0.060594 -0.00231505 0)
(0.0598304 -0.00227526 0)
(0.0592763 -0.00226937 0)
(0.0584086 -0.00223065 0)
(0.0580083 -0.00222617 0)
(0.0569352 -0.00218975 0)
(0.000820438 -0.000136217 0)
(0.00121838 -8.16697e-05 0)
(0.00165062 -2.25614e-05 0)
(0.00211899 4.1648e-05 0)
(0.00262488 0.000111289 0)
(0.00317012 0.000187023 0)
(0.00375625 0.000269243 0)
(0.00438506 0.00035864 0)
(0.00505816 0.000455674 0)
(0.00577723 0.000561013 0)
(0.00654381 0.000675137 0)
(0.00735939 0.00079864 0)
(0.00822533 0.000931946 0)
(0.0091428 0.0010755 0)
(0.0101128 0.00122958 0)
(0.0111361 0.00139439 0)
(0.0122132 0.00156995 0)
(0.0133443 0.00175614 0)
(0.0145292 0.00195258 0)
(0.0157675 0.00215875 0)
(0.0170584 0.00237381 0)
(0.0184004 0.00259671 0)
(0.019792 0.00282614 0)
(0.0212311 0.00306054 0)
(0.022715 0.00329806 0)
(0.0242409 0.0035367 0)
(0.0258054 0.00377419 0)
(0.0274047 0.00400816 0)
(0.0290347 0.00423609 0)
(0.0306909 0.00445542 0)
(0.0323685 0.00466357 0)
(0.0340624 0.00485802 0)
(0.0357674 0.00503633 0)
(0.037478 0.00519626 0)
(0.0391886 0.00533575 0)
(0.0408937 0.00545301 0)
(0.0425875 0.00554656 0)
(0.0442646 0.00561522 0)
(0.0459196 0.00565819 0)
(0.0475471 0.00567501 0)
(0.0491421 0.00566559 0)
(0.0507001 0.00563019 0)
(0.0522164 0.00556941 0)
(0.0536873 0.00548415 0)
(0.0551089 0.00537562 0)
(0.0564782 0.00524526 0)
(0.0577924 0.00509471 0)
(0.0590492 0.0049258 0)
(0.0602467 0.00474046 0)
(0.0613835 0.0045407 0)
(0.0624585 0.00432859 0)
(0.0634711 0.0041062 0)
(0.0644211 0.00387555 0)
(0.0653085 0.00363862 0)
(0.0661337 0.0033973 0)
(0.0668974 0.00315337 0)
(0.0676005 0.00290848 0)
(0.0682442 0.00266417 0)
(0.0688297 0.00242182 0)
(0.0693586 0.00218265 0)
(0.0698323 0.00194777 0)
(0.0702526 0.00171812 0)
(0.0706212 0.0014945 0)
(0.0709399 0.00127758 0)
(0.0712105 0.0010679 0)
(0.0714349 0.000865895 0)
(0.0716147 0.000671873 0)
(0.0717519 0.000486057 0)
(0.0718482 0.00030858 0)
(0.0719053 0.000139497 0)
(0.0719248 -2.12041e-05 0)
(0.0719084 -0.000173593 0)
(0.0718577 -0.000317787 0)
(0.0717741 -0.000453948 0)
(0.071659 -0.000582265 0)
(0.0715139 -0.000702958 0)
(0.0713401 -0.000816263 0)
(0.0711387 -0.000922432 0)
(0.0709111 -0.00102172 0)
(0.0706582 -0.00111441 0)
(0.0703812 -0.00120075 0)
(0.0700811 -0.001281 0)
(0.0697588 -0.00135545 0)
(0.0694154 -0.00142432 0)
(0.0690515 -0.00148789 0)
(0.0686681 -0.00154637 0)
(0.068266 -0.00160001 0)
(0.0678459 -0.00164901 0)
(0.0674086 -0.00169359 0)
(0.0669547 -0.00173394 0)
(0.0664849 -0.00177025 0)
(0.0659998 -0.00180269 0)
(0.0655002 -0.00183143 0)
(0.0649866 -0.00185664 0)
(0.0644596 -0.00187844 0)
(0.0639198 -0.001897 0)
(0.0633678 -0.00191242 0)
(0.0628042 -0.00192487 0)
(0.0622296 -0.00193442 0)
(0.0616445 -0.00194123 0)
(0.0610495 -0.00194536 0)
(0.0604452 -0.00194702 0)
(0.0598322 -0.00194614 0)
(0.059211 -0.00194308 0)
(0.0585823 -0.00193758 0)
(0.0579465 -0.00193027 0)
(0.0573045 -0.0019205 0)
(0.0566565 -0.00190945 0)
(0.0560033 -0.00189569 0)
(0.0553456 -0.00188152 0)
(0.0546836 -0.00186397 0)
(0.0540188 -0.00184745 0)
(0.0533497 -0.00182618 0)
(0.052681 -0.00180827 0)
(0.052006 -0.0017832 0)
(0.0513373 -0.00176514 0)
(0.0506558 -0.0017361 0)
(0.0499934 -0.00171922 0)
(0.0493016 -0.0016864 0)
(0.0486562 -0.00167162 0)
(0.0479436 -0.00163666 0)
(0.0473353 -0.00162326 0)
(0.0465785 -0.00159145 0)
(0.0460461 -0.00157583 0)
(0.0451984 -0.00155678 0)
(0.044816 -0.00153639 0)
(0.0437939 -0.0015327 0)
(-0.00562647 -0.000380185 0)
(-0.00548958 -0.000356085 0)
(-0.00532638 -0.000329119 0)
(-0.00513496 -0.000298853 0)
(-0.00491363 -0.000264989 0)
(-0.00466034 -0.000226963 0)
(-0.00437317 -0.000184394 0)
(-0.00404994 -0.000136654 0)
(-0.00368855 -8.3266e-05 0)
(-0.00328674 -2.35719e-05 0)
(-0.00284232 4.29705e-05 0)
(-0.00235305 0.00011701 0)
(-0.00181674 0.000199094 0)
(-0.00123127 0.000289801 0)
(-0.000594644 0.000389598 0)
(9.49915e-05 0.000498913 0)
(0.0008393 0.000618027 0)
(0.0016397 0.000747116 0)
(0.00249732 0.000886162 0)
(0.00341299 0.00103498 0)
(0.00438715 0.00119317 0)
(0.00541987 0.00136009 0)
(0.00651077 0.00153486 0)
(0.00765901 0.00171637 0)
(0.00886331 0.00190326 0)
(0.0101219 0.00209394 0)
(0.0114324 0.00228662 0)
(0.0127923 0.00247936 0)
(0.0141981 0.00267003 0)
(0.0156462 0.00285647 0)
(0.0171325 0.00303645 0)
(0.0186524 0.00320774 0)
(0.0202012 0.00336818 0)
(0.0217734 0.00351574 0)
(0.0233638 0.00364852 0)
(0.0249666 0.00376483 0)
(0.0265761 0.00386323 0)
(0.0281862 0.00394252 0)
(0.0297912 0.00400182 0)
(0.0313851 0.00404052 0)
(0.0329623 0.00405831 0)
(0.0345173 0.00405522 0)
(0.0360446 0.00403152 0)
(0.0375393 0.00398779 0)
(0.0389968 0.00392482 0)
(0.0404127 0.00384365 0)
(0.0417831 0.00374549 0)
(0.0431047 0.00363172 0)
(0.0443743 0.00350383 0)
(0.0455894 0.00336339 0)
(0.0467478 0.00321203 0)
(0.0478479 0.0030514 0)
(0.0488884 0.00288314 0)
(0.0498684 0.00270888 0)
(0.0507874 0.00253014 0)
(0.0516452 0.00234843 0)
(0.052442 0.00216511 0)
(0.0531782 0.00198149 0)
(0.0538545 0.00179873 0)
(0.0544717 0.00161791 0)
(0.055031 0.00143996 0)
(0.0555335 0.00126572 0)
(0.0559808 0.0010959 0)
(0.0563742 0.000931103 0)
(0.0567152 0.000771825 0)
(0.0570056 0.000618469 0)
(0.0572469 0.000471342 0)
(0.0574408 0.000330669 0)
(0.0575891 0.000196599 0)
(0.0576933 6.9214e-05 0)
(0.0577552 -5.14632e-05 0)
(0.0577763 -0.000165461 0)
(0.0577584 -0.000272852 0)
(0.057703 -0.000373745 0)
(0.0576117 -0.00046828 0)
(0.0574859 -0.000556621 0)
(0.0573271 -0.000638951 0)
(0.0571368 -0.000715467 0)
(0.0569163 -0.000786375 0)
(0.0566669 -0.000851889 0)
(0.0563901 -0.000912224 0)
(0.056087 -0.000967598 0)
(0.0557588 -0.00101823 0)
(0.0554068 -0.00106432 0)
(0.055032 -0.00110608 0)
(0.0546357 -0.00114371 0)
(0.0542189 -0.00117741 0)
(0.0537826 -0.00120736 0)
(0.053328 -0.00123374 0)
(0.0528559 -0.00125672 0)
(0.0523675 -0.00127647 0)
(0.0518637 -0.00129314 0)
(0.0513455 -0.00130688 0)
(0.0508138 -0.00131784 0)
(0.0502695 -0.00132616 0)
(0.0497136 -0.00133196 0)
(0.049147 -0.00133537 0)
(0.0485705 -0.00133652 0)
(0.0479851 -0.00133551 0)
(0.0473916 -0.00133249 0)
(0.0467909 -0.0013275 0)
(0.0461839 -0.00132077 0)
(0.0455714 -0.00131224 0)
(0.0449542 -0.00130225 0)
(0.0443332 -0.00129055 0)
(0.0437092 -0.00127776 0)
(0.0430828 -0.00126325 0)
(0.0424553 -0.00124818 0)
(0.0418266 -0.00123115 0)
(0.0411988 -0.00121437 0)
(0.0405705 -0.00119502 0)
(0.0399456 -0.00117721 0)
(0.0393197 -0.00115564 0)
(0.0387015 -0.00113763 0)
(0.038079 -0.00111385 0)
(0.0374721 -0.00109654 0)
(0.0368523 -0.00107061 0)
(0.0362628 -0.00105481 0)
(0.0356417 -0.00102736 0)
(0.0350795 -0.00101311 0)
(0.0344477 -0.000986775 0)
(0.0339289 -0.000971923 0)
(0.0332682 -0.000954266 0)
(0.0328204 -0.000932666 0)
(0.0320976 -0.000939412 0)
(0.0317722 -0.000905676 0)
(0.0309295 -0.000947337 0)
(-0.00876666 -0.000385766 0)
(-0.0088452 -0.000382377 0)
(-0.00890925 -0.000377769 0)
(-0.00895717 -0.000371661 0)
(-0.00898743 -0.000363838 0)
(-0.00899815 -0.000353911 0)
(-0.00898741 -0.000341573 0)
(-0.00895302 -0.000326348 0)
(-0.00889269 -0.00030782 0)
(-0.00880392 -0.00028544 0)
(-0.00868408 -0.000258699 0)
(-0.00853039 -0.000226996 0)
(-0.00833995 -0.000189768 0)
(-0.00810979 -0.000146407 0)
(-0.00783687 -9.63585e-05 0)
(-0.00751819 -3.90796e-05 0)
(-0.00715077 2.5885e-05 0)
(-0.00673173 9.89219e-05 0)
(-0.00625838 0.000180284 0)
(-0.00572824 0.000270096 0)
(-0.00513913 0.000368304 0)
(-0.00448922 0.00047468 0)
(-0.00377709 0.000588781 0)
(-0.00300178 0.000709962 0)
(-0.00216283 0.000837359 0)
(-0.00126037 0.000969905 0)
(-0.000295067 0.00110634 0)
(0.000731788 0.00124522 0)
(0.0018183 0.00138499 0)
(0.00296197 0.00152397 0)
(0.00415969 0.0016604 0)
(0.00540781 0.00179254 0)
(0.0067021 0.00191861 0)
(0.00803787 0.00203695 0)
(0.00940997 0.00214598 0)
(0.0108129 0.00224424 0)
(0.0122408 0.00233048 0)
(0.0136877 0.00240361 0)
(0.0151472 0.00246277 0)
(0.0166131 0.00250735 0)
(0.0180791 0.00253693 0)
(0.0195388 0.00255137 0)
(0.0209863 0.00255073 0)
(0.0224155 0.00253528 0)
(0.0238209 0.00250552 0)
(0.025197 0.00246209 0)
(0.0265391 0.00240583 0)
(0.0278424 0.00233767 0)
(0.0291029 0.00225866 0)
(0.0303168 0.00216995 0)
(0.031481 0.0020727 0)
(0.0325926 0.00196814 0)
(0.0336493 0.00185748 0)
(0.0346492 0.00174193 0)
(0.0355909 0.00162265 0)
(0.0364732 0.00150079 0)
(0.0372955 0.00137739 0)
(0.0380574 0.00125345 0)
(0.038759 0.0011299 0)
(0.0394004 0.00100755 0)
(0.0399822 0.000887169 0)
(0.0405052 0.000769401 0)
(0.0409703 0.000654821 0)
(0.0413788 0.000543917 0)
(0.0417318 0.000437093 0)
(0.0420309 0.000334678 0)
(0.0422777 0.000236926 0)
(0.0424737 0.000144027 0)
(0.0426206 5.61085e-05 0)
(0.0427204 -2.67582e-05 0)
(0.0427747 -0.000104549 0)
(0.0427854 -0.000177284 0)
(0.0427544 -0.00024502 0)
(0.0426836 -0.000307845 0)
(0.0425748 -0.000365874 0)
(0.04243 -0.000419243 0)
(0.0422509 -0.000468107 0)
(0.0420394 -0.000512631 0)
(0.0417973 -0.000552991 0)
(0.0415264 -0.000589372 0)
(0.0412284 -0.00062196 0)
(0.040905 -0.000650943 0)
(0.0405579 -0.000676508 0)
(0.0401887 -0.000698842 0)
(0.039799 -0.000718127 0)
(0.0393903 -0.000734541 0)
(0.0389642 -0.000748256 0)
(0.0385221 -0.000759439 0)
(0.0380653 -0.000768251 0)
(0.0375954 -0.000774847 0)
(0.0371135 -0.000779373 0)
(0.0366211 -0.000781972 0)
(0.0361192 -0.000782776 0)
(0.0356092 -0.000781917 0)
(0.0350921 -0.000779513 0)
(0.0345691 -0.000775686 0)
(0.0340413 -0.000770537 0)
(0.0335097 -0.000764188 0)
(0.0329752 -0.000756713 0)
(0.0324389 -0.000748251 0)
(0.0319017 -0.000738828 0)
(0.0313644 -0.000728631 0)
(0.0308278 -0.000717595 0)
(0.0302929 -0.000706026 0)
(0.0297601 -0.00069367 0)
(0.0292306 -0.000681085 0)
(0.0287044 -0.000667647 0)
(0.0281832 -0.000654419 0)
(0.0276658 -0.000640072 0)
(0.0271555 -0.000626614 0)
(0.0266488 -0.00061144 0)
(0.026152 -0.000598237 0)
(0.0256567 -0.00058221 0)
(0.0251764 -0.00056983 0)
(0.0246923 -0.000552846 0)
(0.0242319 -0.00054189 0)
(0.0237569 -0.000523934 0)
(0.0233215 -0.000514793 0)
(0.0228509 -0.000496499 0)
(0.0224475 -0.000488672 0)
(0.0219729 -0.000472783 0)
(0.0216115 -0.000463388 0)
(0.0211203 -0.000458036 0)
(0.0208139 -0.000439699 0)
(0.0202891 -0.000463914 0)
(0.0200568 -0.000427942 0)
(0.0194737 -0.000507146 0)
(-0.00818204 -0.000209014 0)
(-0.00836327 -0.000212722 0)
(-0.00854191 -0.000216394 0)
(-0.00871712 -0.000219932 0)
(-0.00888812 -0.000223288 0)
(-0.00905381 -0.000226303 0)
(-0.00921302 -0.000228868 0)
(-0.00936432 -0.000230764 0)
(-0.00950607 -0.000231799 0)
(-0.0096364 -0.000231686 0)
(-0.00975314 -0.000230139 0)
(-0.0098539 -0.000226795 0)
(-0.00993597 -0.000221283 0)
(-0.00999641 -0.000213171 0)
(-0.010032 -0.000202026 0)
(-0.0100393 -0.000187382 0)
(-0.0100146 -0.000168793 0)
(-0.00995425 -0.000145818 0)
(-0.00985427 -0.000118072 0)
(-0.00971082 -8.52216e-05 0)
(-0.00952006 -4.70322e-05 0)
(-0.00927831 -3.36986e-06 0)
(-0.00898216 4.57651e-05 0)
(-0.0086285 0.000100233 0)
(-0.00821465 0.000159738 0)
(-0.00773848 0.000223828 0)
(-0.00719839 0.000291898 0)
(-0.00659349 0.000363199 0)
(-0.00592355 0.000436853 0)
(-0.00518912 0.000511882 0)
(-0.0043915 0.000587223 0)
(-0.00353276 0.00066177 0)
(-0.00261571 0.000734394 0)
(-0.00164391 0.000803984 0)
(-0.000621579 0.000869471 0)
(0.000446446 0.000929857 0)
(0.00155478 0.00098424 0)
(0.00269758 0.00103184 0)
(0.00386864 0.001072 0)
(0.00506145 0.00110421 0)
(0.00626935 0.00112812 0)
(0.00748558 0.00114352 0)
(0.00870338 0.00115036 0)
(0.00991612 0.00114873 0)
(0.0111173 0.00113886 0)
(0.0123008 0.00112108 0)
(0.0134606 0.00109585 0)
(0.0145913 0.00106373 0)
(0.0156878 0.00102533 0)
(0.0167455 0.000981325 0)
(0.0177602 0.000932442 0)
(0.0187284 0.000879424 0)
(0.019647 0.000823022 0)
(0.0205134 0.000763984 0)
(0.0213255 0.00070304 0)
(0.0220818 0.000640887 0)
(0.0227811 0.000578187 0)
(0.0234228 0.000515555 0)
(0.0240066 0.000453551 0)
(0.0245328 0.000392681 0)
(0.0250017 0.000333391 0)
(0.0254143 0.000276065 0)
(0.0257717 0.000221029 0)
(0.0260752 0.000168548 0)
(0.0263265 0.00011883 0)
(0.0265273 7.20314e-05 0)
(0.0266795 2.82551e-05 0)
(0.0267853 -1.24399e-05 0)
(0.0268468 -5.00364e-05 0)
(0.0268662 -8.45539e-05 0)
(0.026846 -0.000116043 0)
(0.0267883 -0.000144583 0)
(0.0266955 -0.000170272 0)
(0.02657 -0.000193228 0)
(0.026414 -0.000213584 0)
(0.0262299 -0.000231478 0)
(0.0260198 -0.000247059 0)
(0.0257859 -0.000260476 0)
(0.0255302 -0.00027188 0)
(0.0252549 -0.00028142 0)
(0.0249617 -0.000289242 0)
(0.0246527 -0.000295485 0)
(0.0243294 -0.000300286 0)
(0.0239937 -0.000303773 0)
(0.0236471 -0.000306065 0)
(0.023291 -0.000307277 0)
(0.022927 -0.000307514 0)
(0.0225563 -0.000306875 0)
(0.0221802 -0.00030545 0)
(0.0217998 -0.000303323 0)
(0.0214163 -0.000300572 0)
(0.0210306 -0.000297267 0)
(0.0206437 -0.000293473 0)
(0.0202566 -0.000289249 0)
(0.0198699 -0.000284649 0)
(0.0194845 -0.000279725 0)
(0.019101 -0.000274516 0)
(0.0187202 -0.000269075 0)
(0.0183425 -0.000263422 0)
(0.0179685 -0.000257618 0)
(0.0175987 -0.000251656 0)
(0.0172337 -0.000245624 0)
(0.0168736 -0.000239459 0)
(0.0165191 -0.000233322 0)
(0.0161701 -0.000227035 0)
(0.0158275 -0.00022091 0)
(0.0154906 -0.00021455 0)
(0.0151611 -0.000208563 0)
(0.0148369 -0.000202143 0)
(0.0145216 -0.000196442 0)
(0.0142101 -0.000189928 0)
(0.0139103 -0.000184695 0)
(0.0136109 -0.000178003 0)
(0.0133279 -0.000173454 0)
(0.0130389 -0.000166478 0)
(0.0127753 -0.000162817 0)