/*--------------------------------*- C++ -*----------------------------------*\
| =========                 |                                                 |
| \\      /  F ield         | OpenFOAM: The Open Source CFD Toolbox           |
|  \\    /   O peration     | Version:  4.1                                   |
|   \\  /    A nd           | Web:      www.OpenFOAM.org                      |
|    \\/     M anipulation  |                                                 |
\*---------------------------------------------------------------------------*/
FoamFile
{
    version     2.0;
    format      ascii;
    class       volVectorField;
    location    "2250";
    object      U;
}
// * * * * * * * * * * * * * * * * * * * * * * * * * * * * * * * * * * * * * //

dimensions      [0 1 -1 0 0 0 0];

internalField   nonuniform List<vector> 
1275
(
(0.07641 -5.71289e-05 0)
(0.0766117 -0.00011863 0)
(0.076474 -0.000217472 0)
(0.0767159 -0.000276432 0)
(0.0767044 -0.000329987 0)
(0.0770198 -0.000422621 0)
(0.0771282 -0.000442876 0)
(0.077553 -0.000606534 0)
(0.0777972 -0.000631219 0)
(0.0784443 -0.000859874 0)
(0.112436 -3.99099e-05 0)
(0.112616 -0.000130773 0)
(0.112484 -0.000260121 0)
(0.112672 -0.000343939 0)
(0.112623 -0.000454836 0)
(0.112854 -0.000555818 0)
(0.112878 -0.000670105 0)
(0.113174 -0.000806865 0)
(0.113249 -0.000987037 0)
(0.113596 -0.00113664 0)
(0.136447 -3.25603e-05 0)
(0.136616 -0.000150446 0)
(0.136478 -0.00028352 0)
(0.13663 -0.000403667 0)
(0.13655 -0.000523145 0)
(0.136713 -0.000666761 0)
(0.136683 -0.000782615 0)
(0.136874 -0.000969255 0)
(0.136879 -0.00110693 0)
(0.137079 -0.00132469 0)
(0.148452 -2.82635e-05 0)
(0.148612 -0.000151446 0)
(0.14846 -0.000283368 0)
(0.148579 -0.000409192 0)
(0.14846 -0.000542037 0)
(0.148558 -0.000682501 0)
(0.14846 -0.000827811 0)
(0.148548 -0.000991842 0)
(0.148448 -0.00117319 0)
(0.148511 -0.00134864 0)
(0.148453 -2.31255e-05 0)
(0.148607 -0.000148217 0)
(0.148437 -0.000260785 0)
(0.148526 -0.000395234 0)
(0.148369 -0.000511247 0)
(0.148409 -0.000661622 0)
(0.148254 -0.000784738 0)
(0.148254 -0.000955543 0)
(0.148084 -0.0010939 0)
(0.148033 -0.00126986 0)
(0.136449 -1.58798e-05 0)
(0.136598 -0.000125284 0)
(0.136407 -0.000210429 0)
(0.136466 -0.000331399 0)
(0.13627 -0.000429678 0)
(0.136257 -0.000561328 0)
(0.136043 -0.000672833 0)
(0.135965 -0.000815077 0)
(0.135712 -0.000942668 0)
(0.135564 -0.00108587 0)
(0.112439 -3.50852e-06 0)
(0.112585 -9.59136e-05 0)
(0.112369 -0.000142682 0)
(0.112402 -0.000250055 0)
(0.112169 -0.000314511 0)
(0.112112 -0.000429282 0)
(0.111846 -0.000503531 0)
(0.111703 -0.000622487 0)
(0.111385 -0.000704304 0)
(0.111153 -0.000816716 0)
(0.0764173 2.70659e-05 0)
(0.0765629 -3.53362e-05 0)
(0.0763155 -3.83424e-05 0)
(0.0763434 -0.000116205 0)
(0.0760795 -0.000147323 0)
(0.0760071 -0.000226705 0)
(0.0757007 -0.000268483 0)
(0.0755285 -0.000345883 0)
(0.0751584 -0.00039308 0)
(0.0748848 -0.000463688 0)
(0.0284323 6.1207e-05 0)
(0.0286342 3.05296e-05 0)
(0.0284824 4.70982e-05 0)
(0.0286 2.51956e-06 0)
(0.0284125 -5.1797e-07 0)
(0.0284202 -3.8082e-05 0)
(0.0281818 -4.17076e-05 0)
(0.0280868 -7.17398e-05 0)
(0.0277907 -7.32381e-05 0)
(0.0276048 -9.45338e-05 0)
(0.0775312 -0.00279617 0)
(0.0784126 -0.00292593 0)
(0.0793128 -0.00306929 0)
(0.0802347 -0.00322086 0)
(0.0811774 -0.00338546 0)
(0.0821452 -0.00356124 0)
(0.0831374 -0.003751 0)
(0.0841576 -0.00395428 0)
(0.0852058 -0.00417303 0)
(0.0862847 -0.00440751 0)
(0.0873946 -0.00465927 0)
(0.0885376 -0.00492892 0)
(0.0897141 -0.00521782 0)
(0.0909255 -0.00552677 0)
(0.0921718 -0.00585696 0)
(0.0934538 -0.00620924 0)
(0.094771 -0.00658464 0)
(0.0961231 -0.00698393 0)
(0.097509 -0.00740789 0)
(0.0989271 -0.00785706 0)
(0.100375 -0.00833186 0)
(0.10185 -0.00883242 0)
(0.103348 -0.00935862 0)
(0.104865 -0.00990994 0)
(0.106395 -0.0104855 0)
(0.107932 -0.0110839 0)
(0.109468 -0.0117032 0)
(0.110994 -0.0123407 0)
(0.1125 -0.0129934 0)
(0.113977 -0.0136572 0)
(0.115412 -0.0143272 0)
(0.116793 -0.014998 0)
(0.118106 -0.0156631 0)
(0.119338 -0.0163153 0)
(0.120474 -0.0169469 0)
(0.1215 -0.0175495 0)
(0.122401 -0.0181141 0)
(0.123164 -0.0186316 0)
(0.123776 -0.0190931 0)
(0.124224 -0.0194896 0)
(0.124498 -0.0198126 0)
(0.12459 -0.0200545 0)
(0.124492 -0.0202087 0)
(0.124201 -0.0202698 0)
(0.123715 -0.0202339 0)
(0.123036 -0.020099 0)
(0.122166 -0.0198648 0)
(0.121115 -0.019533 0)
(0.11989 -0.0191073 0)
(0.118504 -0.0185932 0)
(0.116974 -0.0179979 0)
(0.115314 -0.01733 0)
(0.113544 -0.0165992 0)
(0.111685 -0.0158159 0)
(0.109756 -0.014991 0)
(0.107779 -0.0141352 0)
(0.105776 -0.0132595 0)
(0.103766 -0.0123738 0)
(0.101772 -0.0114878 0)
(0.0998104 -0.0106102 0)
(0.0978996 -0.00974849 0)
(0.0960548 -0.00890925 0)
(0.0942896 -0.0080978 0)
(0.092615 -0.00731827 0)
(0.0910402 -0.00657369 0)
(0.0895721 -0.00586598 0)
(0.0882157 -0.00519618 0)
(0.0869737 -0.00456446 0)
(0.0858479 -0.00397037 0)
(0.0848372 -0.00341294 0)
(0.0839414 -0.00289065 0)
(0.0831557 -0.00240213 0)
(0.0824797 -0.00194486 0)
(0.0819046 -0.00151814 0)
(0.081432 -0.00111758 0)
(0.0810482 -0.000745442 0)
(0.080757 -0.000392238 0)
(0.0805466 -6.94472e-05 0)
(0.0789308 -0.00118206 0)
(0.0787454 -0.00130891 0)
(0.0792267 -0.00139894 0)
(0.0794696 -0.00150242 0)
(0.0800266 -0.00156962 0)
(0.0804773 -0.00165052 0)
(0.0810738 -0.00170502 0)
(0.0816185 -0.00176331 0)
(0.082235 -0.00180487 0)
(0.0828225 -0.00184577 0)
(0.0834463 -0.00187666 0)
(0.084051 -0.00190574 0)
(0.0846734 -0.00192905 0)
(0.0852814 -0.00195075 0)
(0.0858967 -0.00196933 0)
(0.0865001 -0.00198694 0)
(0.0871051 -0.00200316 0)
(0.0876997 -0.00201913 0)
(0.0882926 -0.00203491 0)
(0.0888766 -0.00205113 0)
(0.0894573 -0.00206804 0)
(0.0900304 -0.00208601 0)
(0.0905997 -0.00210537 0)
(0.0911626 -0.00212635 0)
(0.0917219 -0.00214932 0)
(0.0922761 -0.00217442 0)
(0.0928275 -0.00220206 0)
(0.0933751 -0.00223232 0)
(0.0939209 -0.00226568 0)
(0.0944645 -0.00230214 0)
(0.0950073 -0.00234227 0)
(0.0955497 -0.00238601 0)
(0.0960924 -0.00243405 0)
(0.0966368 -0.00248623 0)
(0.0971822 -0.00254341 0)
(0.0977326 -0.00260535 0)
(0.098283 -0.002673 0)
(0.0988446 -0.00274626 0)
(0.0994008 -0.00282581 0)
(0.0999813 -0.00291229 0)
(0.10054 -0.00300507 0)
(0.101154 -0.00310739 0)
(0.101703 -0.00321421 0)
(0.102381 -0.00333654 0)
(0.102881 -0.00345586 0)
(0.103572 -0.00360073 0)
(0.104223 -0.00374747 0)
(0.104873 -0.00390704 0)
(0.105547 -0.00407764 0)
(0.106231 -0.00426203 0)
(0.106935 -0.00445937 0)
(0.107654 -0.00467167 0)
(0.108393 -0.00489883 0)
(0.109148 -0.00514238 0)
(0.109923 -0.00540263 0)
(0.110716 -0.00568082 0)
(0.111528 -0.00597745 0)
(0.112357 -0.00629355 0)
(0.113204 -0.00662967 0)
(0.114068 -0.00698662 0)
(0.114946 -0.00736488 0)
(0.115837 -0.007765 0)
(0.116739 -0.00818721 0)
(0.117649 -0.00863172 0)
(0.118562 -0.00909838 0)
(0.119475 -0.0095869 0)
(0.120383 -0.0100966 0)
(0.12128 -0.0106265 0)
(0.122159 -0.0111752 0)
(0.123013 -0.0117407 0)
(0.123834 -0.0123208 0)
(0.124611 -0.0129126 0)
(0.125336 -0.0135124 0)
(0.125997 -0.0141162 0)
(0.126583 -0.014719 0)
(0.127081 -0.0153154 0)
(0.127479 -0.0158993 0)
(0.127764 -0.0164638 0)
(0.127923 -0.0170015 0)
(0.127942 -0.0175048 0)
(0.12781 -0.0179654 0)
(0.127514 -0.0183751 0)
(0.127045 -0.0187258 0)
(0.126393 -0.0190094 0)
(0.125551 -0.0192187 0)
(0.124514 -0.0193473 0)
(0.123278 -0.0193898 0)
(0.121844 -0.0193422 0)
(0.120215 -0.019202 0)
(0.118395 -0.0189686 0)
(0.116393 -0.0186431 0)
(0.11422 -0.0182282 0)
(0.111891 -0.0177284 0)
(0.109421 -0.01715 0)
(0.106831 -0.0165005 0)
(0.104141 -0.0157888 0)
(0.101374 -0.0150248 0)
(0.0985551 -0.0142192 0)
(0.0957088 -0.0133834 0)
(0.0928604 -0.0125287 0)
(0.0900348 -0.0116661 0)
(0.0872557 -0.010806 0)
(0.0845454 -0.009958 0)
(0.081924 -0.00913018 0)
(0.0794097 -0.0083294 0)
(0.0770179 -0.00756108 0)
(0.0747615 -0.00682919 0)
(0.0726506 -0.00613645 0)
(0.0706926 -0.00548434 0)
(0.0688925 -0.00487336 0)
(0.0672523 -0.00430309 0)
(0.0657723 -0.00377248 0)
(0.0644504 -0.00327989 0)
(0.0632832 -0.00282324 0)
(0.0622649 -0.00240038 0)
(0.0613906 -0.00200852 0)
(0.0606516 -0.00164575 0)
(0.0600427 -0.00130841 0)
(0.0595531 -0.000996014 0)
(0.0591789 -0.000703056 0)
(0.0589076 -0.000432062 0)
(0.0587362 -0.000174618 0)
(0.0586543 6.50625e-05 0)
(0.113685 -0.00165936 0)
(0.113793 -0.00176498 0)
(0.114025 -0.00195567 0)
(0.114186 -0.00200593 0)
(0.114459 -0.00208758 0)
(0.114671 -0.00212485 0)
(0.114954 -0.00217214 0)
(0.115198 -0.00220296 0)
(0.115484 -0.00223585 0)
(0.115745 -0.0022607 0)
(0.116031 -0.00228517 0)
(0.116301 -0.0023048 0)
(0.116584 -0.00232365 0)
(0.116857 -0.0023394 0)
(0.117137 -0.00235472 0)
(0.117409 -0.00236824 0)
(0.117683 -0.00238189 0)
(0.117952 -0.00239482 0)
(0.118221 -0.0024085 0)
(0.118485 -0.0024224 0)
(0.118748 -0.00243766 0)
(0.119007 -0.00245395 0)
(0.119265 -0.00247216 0)
(0.11952 -0.00249212 0)
(0.119773 -0.00251456 0)
(0.120024 -0.00253937 0)
(0.120274 -0.00256721 0)
(0.120522 -0.00259799 0)
(0.12077 -0.00263238 0)
(0.121017 -0.00267026 0)
(0.121265 -0.00271238 0)
(0.121512 -0.00275848 0)
(0.12176 -0.00280957 0)
(0.122008 -0.00286509 0)
(0.12226 -0.00292654 0)
(0.122511 -0.00299275 0)
(0.122768 -0.00306614 0)
(0.123023 -0.00314435 0)
(0.123288 -0.00323156 0)
(0.123547 -0.00332308 0)
(0.123822 -0.00342647 0)
(0.124086 -0.00353241 0)
(0.124373 -0.00365493 0)
(0.124646 -0.00377642 0)
(0.124939 -0.00392015 0)
(0.125233 -0.00406263 0)
(0.125531 -0.00422346 0)
(0.125834 -0.0043931 0)
(0.126145 -0.00457654 0)
(0.12646 -0.00477251 0)
(0.126782 -0.00498244 0)
(0.127107 -0.00520679 0)
(0.127438 -0.00544622 0)
(0.127772 -0.00570149 0)
(0.128109 -0.0059731 0)
(0.128447 -0.00626179 0)
(0.128786 -0.00656796 0)
(0.129123 -0.00689221 0)
(0.129457 -0.00723482 0)
(0.129784 -0.00759614 0)
(0.130101 -0.00797624 0)
(0.130406 -0.00837514 0)
(0.130695 -0.00879258 0)
(0.130962 -0.00922812 0)
(0.131203 -0.00968103 0)
(0.131412 -0.0101503 0)
(0.131582 -0.0106345 0)
(0.131707 -0.011132 0)
(0.131779 -0.0116405 0)
(0.131789 -0.0121574 0)
(0.131728 -0.0126795 0)
(0.131586 -0.0132033 0)
(0.131353 -0.0137244 0)
(0.131018 -0.014238 0)
(0.13057 -0.0147389 0)
(0.129998 -0.0152211 0)
(0.129291 -0.0156784 0)
(0.128437 -0.0161039 0)
(0.127426 -0.0164906 0)
(0.126248 -0.0168315 0)
(0.124894 -0.0171192 0)
(0.123357 -0.0173469 0)
(0.121632 -0.0175082 0)
(0.119713 -0.0175971 0)
(0.117601 -0.0176087 0)
(0.115294 -0.0175389 0)
(0.112798 -0.0173849 0)
(0.110118 -0.0171454 0)
(0.107264 -0.0168205 0)
(0.104248 -0.0164121 0)
(0.101087 -0.0159239 0)
(0.0978 -0.0153615 0)
(0.0944081 -0.0147322 0)
(0.0909359 -0.014045 0)
(0.0874095 -0.0133101 0)
(0.0838567 -0.0125387 0)
(0.0803057 -0.0117424 0)
(0.0767851 -0.0109327 0)
(0.073323 -0.0101209 0)
(0.0699466 -0.00931721 0)
(0.0666815 -0.00853099 0)
(0.0635512 -0.00777032 0)
(0.0605765 -0.00704196 0)
(0.0577748 -0.00635136 0)
(0.0551601 -0.00570253 0)
(0.0527421 -0.00509808 0)
(0.0505267 -0.00453926 0)
(0.0485159 -0.00402603 0)
(0.046708 -0.00355715 0)
(0.0450983 -0.00313054 0)
(0.0436795 -0.00274329 0)
(0.0424426 -0.0023921 0)
(0.041377 -0.00207338 0)
(0.0404722 -0.00178351 0)
(0.0397159 -0.00151904 0)
(0.0390982 -0.0012765 0)
(0.0386065 -0.00105325 0)
(0.0382328 -0.000845972 0)
(0.0379647 -0.000653345 0)
(0.0377963 -0.000471688 0)
(0.0377166 -0.00030179 0)
(0.03772 -0.000138357 0)
(0.0377996 1.44839e-05 0)
(0.137125 -0.00155919 0)
(0.137113 -0.00168994 0)
(0.13716 -0.00185529 0)
(0.137148 -0.001952 0)
(0.137214 -0.00206748 0)
(0.137235 -0.00214345 0)
(0.137311 -0.00222518 0)
(0.137356 -0.00228254 0)
(0.137434 -0.00233968 0)
(0.137491 -0.00238083 0)
(0.137565 -0.00241994 0)
(0.137624 -0.00244836 0)
(0.137692 -0.00247481 0)
(0.137749 -0.00249427 0)
(0.137808 -0.00251248 0)
(0.137859 -0.00252645 0)
(0.13791 -0.00254007 0)
(0.137954 -0.0025515 0)
(0.137996 -0.00256346 0)
(0.138032 -0.00257482 0)
(0.138065 -0.00258749 0)
(0.138093 -0.0026008 0)
(0.138117 -0.00261612 0)
(0.138137 -0.00263307 0)
(0.138154 -0.00265266 0)
(0.138167 -0.00267469 0)
(0.138177 -0.00269995 0)
(0.138184 -0.00272837 0)
(0.138187 -0.00276057 0)
(0.138187 -0.0027966 0)
(0.138184 -0.00283699 0)
(0.138179 -0.00288185 0)
(0.138171 -0.00293164 0)
(0.138161 -0.00298663 0)
(0.138147 -0.00304709 0)
(0.138132 -0.00311361 0)
(0.138113 -0.00318607 0)
(0.138093 -0.00326568 0)
(0.13807 -0.00335152 0)
(0.138044 -0.00344604 0)
(0.138015 -0.00354669 0)
(0.137984 -0.00365809 0)
(0.137949 -0.00377522 0)
(0.137909 -0.00390532 0)
(0.137868 -0.00404139 0)
(0.137818 -0.00419075 0)
(0.137768 -0.00435048 0)
(0.137708 -0.00452098 0)
(0.137644 -0.00470389 0)
(0.13757 -0.00489883 0)
(0.137489 -0.00510705 0)
(0.137396 -0.00532858 0)
(0.137293 -0.00556422 0)
(0.137175 -0.0058142 0)
(0.137042 -0.00607902 0)
(0.13689 -0.00635891 0)
(0.136719 -0.00665415 0)
(0.136523 -0.00696484 0)
(0.136302 -0.00729097 0)
(0.136049 -0.00763238 0)
(0.135762 -0.00798876 0)
(0.135436 -0.00835957 0)
(0.135066 -0.00874403 0)
(0.134646 -0.00914114 0)
(0.134171 -0.00954956 0)
(0.133633 -0.00996765 0)
(0.133026 -0.0103934 0)
(0.132343 -0.0108245 0)
(0.131574 -0.011258 0)
(0.130713 -0.0116909 0)
(0.129749 -0.0121193 0)
(0.128673 -0.0125393 0)
(0.127478 -0.0129464 0)
(0.126152 -0.0133355 0)
(0.124686 -0.0137014 0)
(0.123072 -0.0140384 0)
(0.121302 -0.0143405 0)
(0.119366 -0.0146018 0)
(0.117259 -0.014816 0)
(0.114974 -0.014977 0)
(0.112508 -0.0150791 0)
(0.109859 -0.0151168 0)
(0.107027 -0.0150855 0)
(0.104015 -0.0149814 0)
(0.100827 -0.014802 0)
(0.097474 -0.0145462 0)
(0.0939665 -0.0142143 0)
(0.0903202 -0.0138086 0)
(0.0865535 -0.0133329 0)
(0.0826879 -0.0127931 0)
(0.0787479 -0.0121963 0)
(0.0747605 -0.0115512 0)
(0.0707548 -0.0108672 0)
(0.0667621 -0.0101547 0)
(0.0628148 -0.00942427 0)
(0.0589461 -0.00868699 0)
(0.0551889 -0.00795384 0)
(0.051575 -0.00723562 0)
(0.0481336 -0.00654254 0)
(0.0448902 -0.00588374 0)
(0.041865 -0.00526678 0)
(0.0390725 -0.00469726 0)
(0.0365205 -0.00417852 0)
(0.0342106 -0.00371166 0)
(0.0321387 -0.00329563 0)
(0.030296 -0.00292767 0)
(0.0286698 -0.00260368 0)
(0.0272458 -0.00231883 0)
(0.0260078 -0.00206795 0)
(0.0249401 -0.00184601 0)
(0.024027 -0.00164831 0)
(0.0232542 -0.00147069 0)
(0.0226078 -0.00130968 0)
(0.0220765 -0.00116221 0)
(0.0216488 -0.00102606 0)
(0.0213162 -0.000898916 0)
(0.0210691 -0.000779742 0)
(0.0209019 -0.000666339 0)
(0.0208061 -0.000558894 0)
(0.0207783 -0.000454757 0)
(0.0208111 -0.000355334 0)
(0.0209021 -0.000257562 0)
(0.0210461 -0.000162973 0)
(0.148386 -0.00160589 0)
(0.148331 -0.0017535 0)
(0.148232 -0.00193879 0)
(0.148138 -0.00203675 0)
(0.148049 -0.00215351 0)
(0.147945 -0.00221676 0)
(0.147851 -0.00228894 0)
(0.14774 -0.00232937 0)
(0.147636 -0.00237358 0)
(0.147517 -0.00239852 0)
(0.147401 -0.0024249 0)
(0.147273 -0.00243939 0)
(0.147146 -0.00245452 0)
(0.147008 -0.0024624 0)
(0.146868 -0.00247093 0)
(0.146721 -0.00247534 0)
(0.14657 -0.00248074 0)
(0.146412 -0.00248423 0)
(0.146251 -0.00248919 0)
(0.146083 -0.00249385 0)
(0.145911 -0.0025005 0)
(0.145734 -0.00250805 0)
(0.145552 -0.0025181 0)
(0.145364 -0.00252999 0)
(0.145172 -0.00254486 0)
(0.144974 -0.00256231 0)
(0.144772 -0.00258323 0)
(0.144563 -0.00260736 0)
(0.14435 -0.00263546 0)
(0.144131 -0.00266731 0)
(0.143907 -0.00270366 0)
(0.143676 -0.00274426 0)
(0.143439 -0.00279 0)
(0.143196 -0.0028404 0)
(0.142945 -0.0028967 0)
(0.142688 -0.00295801 0)
(0.142423 -0.00302617 0)
(0.142149 -0.00309955 0)
(0.141867 -0.00318103 0)
(0.141575 -0.0032677 0)
(0.141273 -0.00336407 0)
(0.14096 -0.00346534 0)
(0.140636 -0.0035782 0)
(0.140298 -0.00369577 0)
(0.139947 -0.00382618 0)
(0.13958 -0.00396272 0)
(0.139198 -0.00411121 0)
(0.138796 -0.00426836 0)
(0.138376 -0.0044372 0)
(0.137934 -0.00461619 0)
(0.137469 -0.004807 0)
(0.136977 -0.00500897 0)
(0.136459 -0.00522302 0)
(0.135908 -0.00544885 0)
(0.135325 -0.00568691 0)
(0.134704 -0.00593697 0)
(0.134044 -0.00619912 0)
(0.133339 -0.00647301 0)
(0.132586 -0.00675838 0)
(0.13178 -0.00705462 0)
(0.130916 -0.00736106 0)
(0.12999 -0.00767671 0)
(0.128995 -0.00800044 0)
(0.127927 -0.00833075 0)
(0.126778 -0.00866594 0)
(0.125542 -0.00900392 0)
(0.124212 -0.00934231 0)
(0.122781 -0.00967836 0)
(0.121242 -0.010009 0)
(0.119587 -0.0103306 0)
(0.117808 -0.0106395 0)
(0.115898 -0.0109315 0)
(0.11385 -0.011202 0)
(0.111657 -0.0114462 0)
(0.109313 -0.0116592 0)
(0.106812 -0.0118359 0)
(0.104151 -0.0119711 0)
(0.101326 -0.0120598 0)
(0.098337 -0.0120973 0)
(0.0951844 -0.0120794 0)
(0.0918715 -0.0120025 0)
(0.0884041 -0.011864 0)
(0.0847908 -0.0116622 0)
(0.0810432 -0.0113968 0)
(0.0771762 -0.0110685 0)
(0.073208 -0.0106795 0)
(0.0691602 -0.0102334 0)
(0.0650581 -0.00973487 0)
(0.0609303 -0.0091903 0)
(0.0568089 -0.00860748 0)
(0.0527288 -0.00799573 0)
(0.0487273 -0.00736584 0)
(0.0448424 -0.00672974 0)
(0.0411118 -0.0061 0)
(0.0375699 -0.00548917 0)
(0.0342464 -0.00490891 0)
(0.0311639 -0.00436916 0)
(0.0283369 -0.00387737 0)
(0.0257709 -0.00343787 0)
(0.0234633 -0.00305173 0)
(0.0214042 -0.00271697 0)
(0.0195784 -0.00242926 0)
(0.0179673 -0.00218275 0)
(0.0165505 -0.00197105 0)
(0.0153079 -0.00178798 0)
(0.0142202 -0.00162818 0)
(0.0132701 -0.00148722 0)
(0.0124422 -0.00136173 0)
(0.0117232 -0.00124913 0)
(0.0111018 -0.00114753 0)
(0.0105678 -0.00105542 0)
(0.0101133 -0.000971527 0)
(0.00973059 -0.000894811 0)
(0.00941414 -0.000824118 0)
(0.0091579 -0.000758668 0)
(0.00895818 -0.000697218 0)
(0.00880996 -0.000639363 0)
(0.00871094 -0.000583651 0)
(0.00865679 -0.00053027 0)
(0.00864604 -0.000477431 0)
(0.00867531 -0.000426074 0)
(0.008743 -0.000373987 0)
(0.00884736 -0.000322794 0)
(0.147832 -0.00143671 0)
(0.147681 -0.00156477 0)
(0.147453 -0.00170281 0)
(0.14724 -0.00179244 0)
(0.146994 -0.00189409 0)
(0.146746 -0.00195703 0)
(0.146485 -0.0020277 0)
(0.146217 -0.00207068 0)
(0.14594 -0.00211728 0)
(0.145654 -0.00214483 0)
(0.145362 -0.00217361 0)
(0.145062 -0.00218963 0)
(0.144756 -0.00220592 0)
(0.144442 -0.00221397 0)
(0.144122 -0.0022222 0)
(0.143795 -0.00222546 0)
(0.143462 -0.00222925 0)
(0.143123 -0.00223045 0)
(0.142779 -0.00223269 0)
(0.142428 -0.0022341 0)
(0.142071 -0.0022371 0)
(0.141709 -0.00224057 0)
(0.141341 -0.00224617 0)
(0.140966 -0.00225323 0)
(0.140586 -0.0022629 0)
(0.140199 -0.00227481 0)
(0.139805 -0.0022898 0)
(0.139405 -0.00230767 0)
(0.138997 -0.00232905 0)
(0.138581 -0.00235388 0)
(0.138157 -0.00238264 0)
(0.137725 -0.00241539 0)
(0.137283 -0.00245248 0)
(0.136831 -0.00249412 0)
(0.136368 -0.0025405 0)
(0.135894 -0.00259202 0)
(0.135408 -0.00264866 0)
(0.134908 -0.00271114 0)
(0.134395 -0.00277906 0)
(0.133865 -0.0028536 0)
(0.13332 -0.00293388 0)
(0.132755 -0.0030216 0)
(0.132173 -0.00311546 0)
(0.131568 -0.00321727 0)
(0.130942 -0.0033262 0)
(0.13029 -0.00344285 0)
(0.129613 -0.00356822 0)
(0.128907 -0.00370108 0)
(0.128171 -0.00384316 0)
(0.1274 -0.00399324 0)
(0.126595 -0.00415264 0)
(0.12575 -0.00432047 0)
(0.124864 -0.00449754 0)
(0.123933 -0.00468317 0)
(0.122953 -0.00487767 0)
(0.12192 -0.00508045 0)
(0.120831 -0.0052914 0)
(0.119682 -0.00550979 0)
(0.118468 -0.00573511 0)
(0.117183 -0.00596639 0)
(0.115824 -0.00620267 0)
(0.114386 -0.00644262 0)
(0.112862 -0.0066848 0)
(0.111247 -0.00692741 0)
(0.109535 -0.00716847 0)
(0.107722 -0.00740565 0)
(0.105801 -0.00763639 0)
(0.103766 -0.00785782 0)
(0.101613 -0.00806682 0)
(0.0993362 -0.00826001 0)
(0.0969307 -0.00843383 0)
(0.0943927 -0.00858455 0)
(0.0917192 -0.00870834 0)
(0.088908 -0.00880137 0)
(0.0859583 -0.00885983 0)
(0.082871 -0.0088801 0)
(0.0796485 -0.00885876 0)
(0.0762955 -0.00879277 0)
(0.072819 -0.00867957 0)
(0.0692288 -0.00851719 0)
(0.0655376 -0.00830452 0)
(0.0617615 -0.00804142 0)
(0.0579202 -0.007729 0)
(0.0540373 -0.0073698 0)
(0.0501407 -0.00696804 0)
(0.0462617 -0.00652969 0)
(0.0424352 -0.00606257 0)
(0.0386981 -0.00557623 0)
(0.0350878 -0.00508169 0)
(0.0316404 -0.00459095 0)
(0.0283878 -0.00411618 0)
(0.025356 -0.00366863 0)
(0.0225633 -0.00325752 0)
(0.0200186 -0.00288898 0)
(0.017722 -0.00256558 0)
(0.0156647 -0.00228632 0)
(0.0138319 -0.0020473 0)
(0.0122045 -0.00184281 0)
(0.010762 -0.00166657 0)
(0.00948414 -0.00151276 0)
(0.00835204 -0.00137671 0)
(0.00734824 -0.00125517 0)
(0.00645698 -0.00114626 0)
(0.00566444 -0.00104919 0)
(0.00495865 -0.000963725 0)
(0.0043297 -0.00088972 0)
(0.00376929 -0.000826724 0)
(0.00327072 -0.00077386 0)
(0.00282811 -0.000729841 0)
(0.00243667 -0.000693147 0)
(0.00209176 -0.000662259 0)
(0.00178974 -0.000635697 0)
(0.00152673 -0.000612333 0)
(0.00130009 -0.000591007 0)
(0.00110656 -0.000571162 0)
(0.000944492 -0.000551825 0)
(0.000811203 -0.000532979 0)
(0.000705891 -0.0005136 0)
(0.00062637 -0.000494172 0)
(0.000572392 -0.000473497 0)
(0.000542333 -0.000452411 0)
(0.000536028 -0.00042975 0)
(0.000552665 -0.000406188 0)
(0.135257 -0.00123025 0)
(0.135014 -0.00135032 0)
(0.134668 -0.00147297 0)
(0.134355 -0.00155711 0)
(0.133979 -0.0016438 0)
(0.133614 -0.00169594 0)
(0.13321 -0.00174993 0)
(0.132808 -0.00177817 0)
(0.132379 -0.00180749 0)
(0.131948 -0.00181922 0)
(0.131498 -0.00183159 0)
(0.131043 -0.0018326 0)
(0.130575 -0.00183423 0)
(0.130102 -0.00182897 0)
(0.129618 -0.00182454 0)
(0.12913 -0.00181633 0)
(0.128634 -0.00180931 0)
(0.128133 -0.00180066 0)
(0.127624 -0.0017936 0)
(0.127112 -0.00178638 0)
(0.126592 -0.00178113 0)
(0.126068 -0.00177677 0)
(0.125537 -0.00177469 0)
(0.125001 -0.00177426 0)
(0.124459 -0.00177641 0)
(0.12391 -0.00178075 0)
(0.123354 -0.00178795 0)
(0.122791 -0.00179775 0)
(0.12222 -0.00181071 0)
(0.12164 -0.0018266 0)
(0.121051 -0.00184594 0)
(0.120452 -0.00186851 0)
(0.119841 -0.00189486 0)
(0.119219 -0.00192468 0)
(0.118585 -0.00195869 0)
(0.117936 -0.00199633 0)
(0.117272 -0.00203868 0)
(0.116591 -0.00208475 0)
(0.115893 -0.00213613 0)
(0.115176 -0.00219126 0)
(0.114437 -0.00225238 0)
(0.113677 -0.00231722 0)
(0.112891 -0.00238868 0)
(0.11208 -0.00246398 0)
(0.11124 -0.00254618 0)
(0.11037 -0.00263274 0)
(0.109467 -0.00272599 0)
(0.108529 -0.0028241 0)
(0.107552 -0.00292877 0)
(0.106535 -0.0030386 0)
(0.105474 -0.00315469 0)
(0.104366 -0.00327598 0)
(0.103209 -0.00340306 0)
(0.101997 -0.00353503 0)
(0.100729 -0.00367205 0)
(0.0993995 -0.00381326 0)
(0.0980056 -0.0039584 0)
(0.0965428 -0.00410653 0)
(0.0950076 -0.00425699 0)
(0.0933953 -0.00440865 0)
(0.0917023 -0.00456046 0)
(0.0899241 -0.00471099 0)
(0.088057 -0.00485879 0)
(0.0860969 -0.00500208 0)
(0.0840404 -0.00513899 0)
(0.081884 -0.00526737 0)
(0.0796249 -0.00538497 0)
(0.0772609 -0.00548927 0)
(0.0747903 -0.00557769 0)
(0.0722124 -0.0056475 0)
(0.0695276 -0.00569592 0)
(0.0667374 -0.00572018 0)
(0.0638452 -0.00571761 0)
(0.0608559 -0.00568571 0)
(0.0577766 -0.0056223 0)
(0.0546169 -0.0055256 0)
(0.0513892 -0.00539442 0)
(0.0481087 -0.00522833 0)
(0.0447941 -0.00502782 0)
(0.0414671 -0.00479454 0)
(0.0381525 -0.00453151 0)
(0.0348777 -0.00424325 0)
(0.031672 -0.00393584 0)
(0.0285652 -0.00361675 0)
(0.0255866 -0.00329444 0)
(0.0227628 -0.00297772 0)
(0.020116 -0.00267498 0)
(0.0176623 -0.00239328 0)
(0.0154103 -0.00213759 0)
(0.0133608 -0.00191032 0)
(0.0115086 -0.00171121 0)
(0.00984343 -0.00153775 0)
(0.00835288 -0.0013857 0)
(0.00702277 -0.00125003 0)
(0.00583784 -0.00112601 0)
(0.00478206 -0.00101044 0)
(0.00383946 -0.000902524 0)
(0.00299528 -0.000803731 0)
(0.00223689 -0.000716617 0)
(0.00155418 -0.000643247 0)
(0.000939125 -0.000584104 0)
(0.000385126 -0.000538009 0)
(-0.000113762 -0.000502747 0)
(-0.000563146 -0.000475938 0)
(-0.000968611 -0.000455562 0)
(-0.00133542 -0.000440144 0)
(-0.00166864 -0.00042862 0)
(-0.00197262 -0.000420189 0)
(-0.00225135 -0.000414185 0)
(-0.00250782 -0.000410011 0)
(-0.00274482 -0.000407203 0)
(-0.00296408 -0.000405301 0)
(-0.00316746 -0.000404069 0)
(-0.00335578 -0.00040311 0)
(-0.00353033 -0.000402394 0)
(-0.0036913 -0.000401445 0)
(-0.00383965 -0.00040043 0)
(-0.00397519 -0.000398695 0)
(-0.00409854 -0.000396638 0)
(-0.00420944 -0.000393409 0)
(-0.00430804 -0.000389633 0)
(-0.00439429 -0.000384352 0)
(-0.00446777 -0.000378278 0)
(0.110769 -0.000904359 0)
(0.110441 -0.000988486 0)
(0.109995 -0.00106118 0)
(0.109583 -0.0011157 0)
(0.109088 -0.00116706 0)
(0.108612 -0.0011989 0)
(0.10808 -0.00123069 0)
(0.107556 -0.00124648 0)
(0.106995 -0.00126281 0)
(0.106438 -0.00126747 0)
(0.105856 -0.00127254 0)
(0.105274 -0.00126969 0)
(0.104676 -0.00126716 0)
(0.104078 -0.00125964 0)
(0.103468 -0.00125254 0)
(0.102858 -0.00124261 0)
(0.10224 -0.00123337 0)
(0.101621 -0.00122284 0)
(0.100996 -0.00121333 0)
(0.100371 -0.00120365 0)
(0.0997404 -0.0011953 0)
(0.0991087 -0.00118757 0)
(0.0984729 -0.00118145 0)
(0.0978348 -0.00117654 0)
(0.0971923 -0.00117346 0)
(0.0965465 -0.00117201 0)
(0.0958956 -0.00117261 0)
(0.09524 -0.00117515 0)
(0.0945782 -0.00117992 0)
(0.09391 -0.00118688 0)
(0.093234 -0.00119623 0)
(0.0925498 -0.001208 0)
(0.0918558 -0.00122229 0)
(0.0911513 -0.00123922 0)
(0.0904348 -0.0012588 0)
(0.0897053 -0.00128123 0)
(0.088961 -0.0013064 0)
(0.0882009 -0.00133467 0)
(0.0874232 -0.00136573 0)
(0.0866263 -0.00140012 0)
(0.0858083 -0.00143736 0)
(0.0849676 -0.00147807 0)
(0.0841021 -0.0015218 0)
(0.0832098 -0.00156889 0)
(0.0822886 -0.00161933 0)
(0.0813361 -0.00167278 0)
(0.0803502 -0.00172991 0)
(0.0793281 -0.00178974 0)
(0.0782677 -0.00185312 0)
(0.077166 -0.00191898 0)
(0.0760206 -0.00198798 0)
(0.0748284 -0.00205914 0)
(0.073587 -0.00213278 0)
(0.0722931 -0.00220801 0)
(0.0709443 -0.00228481 0)
(0.0695373 -0.00236232 0)
(0.0680697 -0.00244018 0)
(0.0665386 -0.00251745 0)
(0.0649417 -0.00259349 0)
(0.0632764 -0.00266722 0)
(0.061541 -0.0027377 0)
(0.0597336 -0.00280369 0)
(0.0578532 -0.00286399 0)
(0.0558991 -0.00291715 0)
(0.0538715 -0.00296175 0)
(0.0517711 -0.00299622 0)
(0.0496001 -0.003019 0)
(0.0473613 -0.00302847 0)
(0.0450593 -0.00302314 0)
(0.0426997 -0.0030016 0)
(0.0402903 -0.00296272 0)
(0.0378401 -0.00290563 0)
(0.0353606 -0.00282999 0)
(0.0328648 -0.00273594 0)
(0.030368 -0.00262435 0)
(0.0278871 -0.00249676 0)
(0.0254406 -0.0023555 0)
(0.0230478 -0.00220362 0)
(0.020728 -0.00204478 0)
(0.0184997 -0.00188306 0)
(0.016379 -0.0017227 0)
(0.0143791 -0.00156775 0)
(0.0125093 -0.0014217 0)
(0.0107753 -0.0012871 0)
(0.00917917 -0.00116518 0)
(0.00772037 -0.00105549 0)
(0.0063957 -0.000955816 0)
(0.00519954 -0.000862563 0)
(0.00412382 -0.000772057 0)
(0.00315844 -0.000682315 0)
(0.00229227 -0.000594306 0)
(0.00151432 -0.000511642 0)
(0.00081486 -0.00043868 0)
(0.000185899 -0.000378277 0)
(-0.000378897 -0.000330675 0)
(-0.00088473 -0.000294027 0)
(-0.00133643 -0.000265827 0)
(-0.0017391 -0.000244076 0)
(-0.00209849 -0.000227554 0)
(-0.00242081 -0.000215428 0)
(-0.00271227 -0.000206806 0)
(-0.00297848 -0.000200674 0)
(-0.00322416 -0.000196128 0)
(-0.00345298 -0.000192663 0)
(-0.00366789 -0.000190223 0)
(-0.00387114 -0.000189055 0)
(-0.00406478 -0.000189464 0)
(-0.00425034 -0.000191611 0)
(-0.00442936 -0.000195459 0)
(-0.00460282 -0.000200744 0)
(-0.00477186 -0.000207145 0)
(-0.00493694 -0.000214217 0)
(-0.00509888 -0.000221679 0)
(-0.00525773 -0.000229104 0)
(-0.00541406 -0.000236413 0)
(-0.00556764 -0.000243201 0)
(-0.00571879 -0.000249609 0)
(-0.0058671 -0.000255193 0)
(-0.00601265 -0.000260276 0)
(-0.00615496 -0.000264365 0)
(-0.0062938 -0.000267861 0)
(-0.0064288 -0.000270339 0)
(-0.00655937 -0.000272064 0)
(0.0744403 -0.000512808 0)
(0.0740642 -0.000567172 0)
(0.0735542 -0.000607183 0)
(0.0730916 -0.000640471 0)
(0.0725321 -0.000664718 0)
(0.0720049 -0.000678741 0)
(0.0714117 -0.000687397 0)
(0.0708409 -0.000687024 0)
(0.0702273 -0.000683731 0)
(0.06963 -0.000674074 0)
(0.0690067 -0.000663139 0)
(0.0683962 -0.000648419 0)
(0.0677712 -0.000633534 0)
(0.0671572 -0.000616855 0)
(0.0665363 -0.000600758 0)
(0.0659249 -0.000584239 0)
(0.0653115 -0.000568783 0)
(0.0647066 -0.000553781 0)
(0.0641024 -0.000540126 0)
(0.0635055 -0.000527443 0)
(0.0629104 -0.000516256 0)
(0.0623214 -0.000506321 0)
(0.0617343 -0.000497939 0)
(0.0611516 -0.000490941 0)
(0.0605703 -0.000485497 0)
(0.0599915 -0.000481482 0)
(0.0594128 -0.000478996 0)
(0.0588346 -0.000477932 0)
(0.0582549 -0.00047837 0)
(0.0576734 -0.000480194 0)
(0.0570884 -0.0004835 0)
(0.0564992 -0.000488139 0)
(0.0559042 -0.000494262 0)
(0.0553025 -0.000501644 0)
(0.0546923 -0.000510543 0)
(0.0540728 -0.000520598 0)
(0.053442 -0.000532238 0)
(0.052799 -0.000544892 0)
(0.0521417 -0.000559232 0)
(0.0514692 -0.000574402 0)
(0.0507793 -0.000591359 0)
(0.050071 -0.000608952 0)
(0.0493419 -0.000628357 0)
(0.0485911 -0.000648265 0)
(0.0478161 -0.000669824 0)
(0.0470159 -0.000691854 0)
(0.0461882 -0.000715205 0)
(0.0453316 -0.000738916 0)
(0.0444442 -0.0007636 0)
(0.0435244 -0.000788427 0)
(0.0425707 -0.00081378 0)
(0.0415813 -0.000838933 0)
(0.0405551 -0.00086404 0)
(0.0394906 -0.000888456 0)
(0.038387 -0.000912131 0)
(0.0372431 -0.000934459 0)
(0.0360587 -0.000955227 0)
(0.0348334 -0.000973844 0)
(0.0335676 -0.000989971 0)
(0.0322618 -0.00100303 0)
(0.0309176 -0.0010126 0)
(0.0295365 -0.00101814 0)
(0.0281214 -0.00101922 0)
(0.0266756 -0.00101538 0)
(0.0252033 -0.00100627 0)
(0.0237096 -0.000991583 0)
(0.0222006 -0.000971166 0)
(0.0206831 -0.000944976 0)
(0.0191647 -0.000913186 0)
(0.0176536 -0.00087615 0)
(0.0161587 -0.000834494 0)
(0.0146888 -0.000789084 0)
(0.0132529 -0.000741063 0)
(0.0118596 -0.000691783 0)
(0.0105171 -0.000642738 0)
(0.00923249 -0.000595385 0)
(0.0080122 -0.000550916 0)
(0.00686136 -0.000509947 0)
(0.00578392 -0.000472251 0)
(0.00478246 -0.000436624 0)
(0.00385814 -0.000401108 0)
(0.00301058 -0.000363626 0)
(0.00223795 -0.000322909 0)
(0.00153698 -0.000279262 0)
(0.000903237 -0.000234705 0)
(0.000331564 -0.00019229 0)
(-0.000183249 -0.000154902 0)
(-0.000645745 -0.000124219 0)
(-0.00105929 -0.000100414 0)
(-0.00142623 -8.26699e-05 0)
(-0.00174871 -6.99826e-05 0)
(-0.00202983 -6.1568e-05 0)
(-0.00227419 -5.66474e-05 0)
(-0.00248755 -5.4029e-05 0)
(-0.00267576 -5.20758e-05 0)
(-0.00284377 -4.92434e-05 0)
(-0.00299524 -4.47886e-05 0)
(-0.00313286 -3.90926e-05 0)
(-0.00325891 -3.33574e-05 0)
(-0.00337561 -2.89341e-05 0)
(-0.00348512 -2.67198e-05 0)
(-0.00358931 -2.69407e-05 0)
(-0.00368968 -2.92844e-05 0)
(-0.00378734 -3.31965e-05 0)
(-0.00388325 -3.81236e-05 0)
(-0.0039782 -4.36317e-05 0)
(-0.00407314 -4.94227e-05 0)
(-0.00416885 -5.52889e-05 0)
(-0.00426625 -6.11023e-05 0)