/*--------------------------------*- C++ -*----------------------------------*\
| =========                 |                                                 |
| \\      /  F ield         | OpenFOAM: The Open Source CFD Toolbox           |
|  \\    /   O peration     | Version:  4.1                                   |
|   \\  /    A nd           | Web:      www.OpenFOAM.org                      |
|    \\/     M anipulation  |                                                 |
\*---------------------------------------------------------------------------*/
FoamFile
{
    version     2.0;
    format      ascii;
    class       volScalarField;
    location    "360";
    object      p;
}
// * * * * * * * * * * * * * * * * * * * * * * * * * * * * * * * * * * * * * //

dimensions      [1 -1 -2 0 0 0 0];

internalField   nonuniform List<scalar> 
1275
(
0.713127
0.713124
0.713121
0.713119
0.713115
0.713109
0.7131
0.713089
0.713075
0.71306
0.713043
0.713026
0.71301
0.712995
0.712984
0.712977
0.712976
0.712983
0.712997
0.713021
0.713056
0.713102
0.71316
0.71323
0.713313
0.713408
0.713513
0.713629
0.713753
0.713884
0.714018
0.714153
0.714283
0.714404
0.714511
0.714598
0.714661
0.714696
0.714703
0.714684
0.714642
0.71458
0.714504
0.714419
0.714329
0.714239
0.71415
0.714066
0.713989
0.71392
0.71386
0.713811
0.713771
0.713742
0.713723
0.713714
0.713716
0.713727
0.713745
0.713769
0.713797
0.713829
0.713861
0.713892
0.71392
0.713943
0.71396
0.713969
0.713971
0.713965
0.713952
0.713932
0.713907
0.713876
0.713841
0.713803
0.713763
0.713723
0.713683
0.713647
0.713616
0.713593
0.713582
0.713585
0.713605
0.713643
0.7137
0.713774
0.713864
0.713965
0.714071
0.714177
0.714276
0.714366
0.714441
0.7145
0.714543
0.71457
0.714583
0.714585
0.714577
0.714561
0.71454
0.714515
0.714489
0.714462
0.714435
0.71441
0.714387
0.714367
0.714349
0.714335
0.714323
0.714313
0.714306
0.714301
0.714298
0.714296
0.714294
0.714293
0.714293
0.714293
0.714292
0.714292
0.714291
0.71429
0.714289
0.714287
0.713125
0.713124
0.713123
0.713122
0.713121
0.713116
0.713109
0.713099
0.713085
0.713069
0.713051
0.713032
0.713014
0.712997
0.712983
0.712974
0.712971
0.712975
0.712987
0.713009
0.713042
0.713087
0.713144
0.713213
0.713295
0.713388
0.713492
0.713607
0.71373
0.71386
0.713993
0.714128
0.714259
0.714382
0.714491
0.714581
0.714647
0.714685
0.714695
0.714678
0.714636
0.714575
0.714499
0.714415
0.714326
0.714236
0.714149
0.714066
0.713989
0.71392
0.71386
0.71381
0.713771
0.713742
0.713723
0.713714
0.713715
0.713725
0.713741
0.713764
0.713792
0.713826
0.713862
0.713895
0.713925
0.713949
0.713966
0.713977
0.713979
0.713974
0.71396
0.713941
0.713915
0.713884
0.713848
0.713809
0.713768
0.713725
0.713683
0.713644
0.71361
0.713584
0.713569
0.713569
0.713587
0.713623
0.713679
0.713754
0.713846
0.713949
0.714058
0.714168
0.714271
0.714364
0.714442
0.714503
0.714548
0.714576
0.71459
0.714591
0.714582
0.714566
0.714544
0.714518
0.714491
0.714463
0.714436
0.71441
0.714387
0.714366
0.714348
0.714333
0.714322
0.714312
0.714305
0.7143
0.714297
0.714295
0.714294
0.714293
0.714293
0.714292
0.714292
0.714292
0.714291
0.71429
0.714289
0.714287
0.71312
0.71312
0.713121
0.713122
0.713121
0.713117
0.71311
0.713099
0.713084
0.713066
0.713047
0.713026
0.713006
0.712988
0.712973
0.712962
0.712958
0.71296
0.712972
0.712993
0.713025
0.713068
0.713124
0.713191
0.713271
0.713362
0.713464
0.713575
0.713695
0.713822
0.713953
0.714086
0.714216
0.714339
0.71445
0.714542
0.71461
0.71465
0.714661
0.714645
0.714603
0.714541
0.714465
0.714379
0.71429
0.7142
0.714114
0.714032
0.713958
0.713891
0.713833
0.713785
0.713748
0.713721
0.713704
0.713698
0.713704
0.713719
0.713739
0.713766
0.713797
0.71383
0.713864
0.713897
0.713929
0.713957
0.713976
0.713987
0.713989
0.713983
0.713969
0.713949
0.713921
0.713889
0.713852
0.713811
0.713768
0.713723
0.713678
0.713635
0.713597
0.713568
0.713549
0.713545
0.713559
0.713594
0.713649
0.713725
0.713819
0.713926
0.714041
0.714155
0.714264
0.714361
0.714442
0.714506
0.714551
0.71458
0.714593
0.714594
0.714585
0.714567
0.714544
0.714518
0.714489
0.714461
0.714433
0.714407
0.714384
0.714363
0.714345
0.714331
0.714319
0.71431
0.714304
0.714299
0.714296
0.714294
0.714293
0.714293
0.714293
0.714293
0.714292
0.714292
0.714291
0.71429
0.714289
0.714288
0.713113
0.713115
0.713118
0.713122
0.713123
0.713121
0.713114
0.713103
0.713087
0.713068
0.713046
0.713024
0.713001
0.712981
0.712964
0.712952
0.712946
0.712947
0.712958
0.712978
0.713009
0.713051
0.713105
0.713171
0.713248
0.713336
0.713434
0.713541
0.713656
0.713778
0.713905
0.714033
0.714158
0.714278
0.714385
0.714473
0.714538
0.714576
0.714584
0.714564
0.71452
0.714457
0.714381
0.714297
0.714211
0.714127
0.714046
0.713972
0.713904
0.713844
0.713793
0.713751
0.71372
0.713699
0.713688
0.713686
0.713695
0.713712
0.713735
0.713764
0.713798
0.713837
0.713877
0.713913
0.713944
0.71397
0.713989
0.714001
0.714004
0.713997
0.713982
0.713959
0.71393
0.713896
0.713857
0.713814
0.713767
0.713719
0.71367
0.713623
0.71358
0.713545
0.713521
0.713512
0.713521
0.713552
0.713606
0.713682
0.713778
0.713889
0.714009
0.714129
0.714244
0.714346
0.714432
0.714499
0.714546
0.714576
0.714589
0.71459
0.71458
0.714562
0.714539
0.714513
0.714485
0.714456
0.714429
0.714404
0.71438
0.71436
0.714343
0.714329
0.714318
0.714309
0.714303
0.714299
0.714296
0.714295
0.714294
0.714293
0.714293
0.714293
0.714293
0.714292
0.714292
0.714291
0.714289
0.714288
0.7131
0.713105
0.713112
0.713119
0.713122
0.713122
0.713116
0.713104
0.713088
0.713068
0.713046
0.713023
0.713
0.712979
0.712961
0.712949
0.712943
0.712944
0.712955
0.712975
0.713005
0.713047
0.713099
0.713162
0.713236
0.71332
0.713413
0.713515
0.713624
0.713739
0.713858
0.713978
0.714095
0.714205
0.714302
0.714379
0.714432
0.714457
0.714452
0.714422
0.714369
0.714302
0.714225
0.714145
0.714067
0.713994
0.713926
0.713866
0.713812
0.713766
0.713727
0.713697
0.713675
0.713662
0.713658
0.713664
0.71368
0.713703
0.713733
0.713767
0.713806
0.713845
0.713884
0.713922
0.713957
0.713986
0.714006
0.714016
0.714016
0.714009
0.713993
0.713969
0.713938
0.713901
0.71386
0.713815
0.713766
0.713715
0.713662
0.713611
0.713563
0.713523
0.713493
0.713478
0.713483
0.713509
0.713561
0.713636
0.713733
0.713847
0.713971
0.714097
0.714217
0.714324
0.714413
0.714481
0.71453
0.71456
0.714573
0.714573
0.714563
0.714546
0.714524
0.714499
0.714473
0.714447
0.714421
0.714398
0.714376
0.714357
0.714341
0.714328
0.714318
0.71431
0.714304
0.7143
0.714298
0.714296
0.714295
0.714295
0.714294
0.714294
0.714294
0.714293
0.714292
0.714291
0.714289
0.714288
0.713083
0.713092
0.713102
0.713113
0.713122
0.713126
0.713123
0.713114
0.713099
0.71308
0.713057
0.713033
0.713009
0.712987
0.712968
0.712955
0.712949
0.71295
0.712961
0.712981
0.713011
0.713051
0.713102
0.713163
0.713233
0.713313
0.713401
0.713496
0.713598
0.713705
0.713814
0.713923
0.714028
0.714122
0.7142
0.714256
0.714285
0.714285
0.714257
0.714206
0.714138
0.714062
0.713985
0.713913
0.713849
0.713795
0.71375
0.713714
0.713685
0.713662
0.713644
0.713632
0.713625
0.713625
0.713631
0.713645
0.713667
0.713695
0.713728
0.713766
0.713808
0.713852
0.713895
0.713935
0.713969
0.713997
0.714018
0.71403
0.714032
0.714022
0.714004
0.713978
0.713945
0.713907
0.713864
0.713817
0.713765
0.713711
0.713656
0.713601
0.713549
0.713504
0.71347
0.71345
0.71345
0.713473
0.713522
0.713595
0.713692
0.713807
0.713933
0.714061
0.714183
0.714292
0.714382
0.714451
0.7145
0.714529
0.714543
0.714543
0.714535
0.714519
0.7145
0.714478
0.714455
0.714432
0.71441
0.71439
0.714371
0.714355
0.714341
0.71433
0.71432
0.714313
0.714307
0.714304
0.714301
0.714299
0.714298
0.714297
0.714297
0.714296
0.714295
0.714294
0.714293
0.714292
0.71429
0.714288
0.713055
0.71307
0.713088
0.713106
0.71312
0.713129
0.71313
0.713125
0.713112
0.713095
0.713073
0.71305
0.713027
0.713005
0.712987
0.712974
0.712968
0.712969
0.712979
0.712999
0.713028
0.713067
0.713116
0.713174
0.713241
0.713317
0.713399
0.713489
0.713583
0.713681
0.71378
0.713875
0.713962
0.714034
0.714086
0.71411
0.714104
0.714068
0.714005
0.713924
0.713834
0.713745
0.713666
0.713603
0.713557
0.713529
0.713516
0.713514
0.713519
0.713528
0.713539
0.713551
0.713565
0.713581
0.7136
0.713624
0.713652
0.713686
0.713724
0.713765
0.713809
0.713853
0.713896
0.713937
0.713974
0.714004
0.714026
0.714037
0.714039
0.714032
0.714014
0.713987
0.713953
0.713913
0.713869
0.71382
0.713768
0.713713
0.713656
0.713599
0.713546
0.713499
0.713462
0.71344
0.713437
0.713457
0.713502
0.713574
0.713668
0.713781
0.713904
0.71403
0.714149
0.714254
0.714341
0.714407
0.714453
0.714481
0.714495
0.714497
0.714491
0.714479
0.714464
0.714447
0.714429
0.714412
0.714395
0.714379
0.714365
0.714352
0.714341
0.714332
0.714324
0.714317
0.714313
0.714309
0.714306
0.714304
0.714302
0.714301
0.7143
0.714299
0.714297
0.714296
0.714294
0.714292
0.71429
0.714288
0.713027
0.713042
0.713062
0.713085
0.713108
0.713127
0.713138
0.71314
0.713134
0.71312
0.713101
0.713079
0.713057
0.713035
0.713017
0.713004
0.712997
0.712998
0.713008
0.713027
0.713055
0.713093
0.71314
0.713195
0.713259
0.713331
0.713409
0.713492
0.71358
0.713669
0.713755
0.713834
0.7139
0.713945
0.713962
0.713946
0.713897
0.713817
0.713714
0.713599
0.713484
0.713382
0.7133
0.713246
0.713221
0.713224
0.713247
0.713285
0.713331
0.713379
0.713425
0.713467
0.713505
0.713541
0.713575
0.713609
0.713644
0.713681
0.713721
0.713763
0.713806
0.71385
0.713894
0.713935
0.713972
0.714002
0.714026
0.714041
0.714046
0.71404
0.714023
0.713998
0.713965
0.713925
0.713879
0.713829
0.713776
0.713721
0.713665
0.713609
0.713556
0.713509
0.713472
0.71345
0.713446
0.713465
0.713508
0.713575
0.713665
0.713771
0.713887
0.714004
0.714114
0.71421
0.714288
0.714348
0.714389
0.714416
0.714429
0.714434
0.714432
0.714426
0.714417
0.714407
0.714397
0.714386
0.714376
0.714367
0.714357
0.714349
0.714341
0.714334
0.714329
0.714323
0.714319
0.714316
0.714313
0.71431
0.714308
0.714306
0.714304
0.714302
0.7143
0.714298
0.714296
0.714293
0.714291
0.714288
0.71301
0.713026
0.71305
0.713076
0.713102
0.713124
0.713139
0.713147
0.713146
0.713139
0.713126
0.71311
0.713091
0.713073
0.713057
0.713046
0.71304
0.713041
0.71305
0.713069
0.713096
0.713132
0.713177
0.713231
0.713292
0.713361
0.713435
0.713515
0.713596
0.713677
0.713752
0.713814
0.713856
0.713871
0.713851
0.713794
0.713701
0.713579
0.713439
0.713293
0.713156
0.713038
0.712952
0.712904
0.712895
0.712922
0.712978
0.713054
0.713139
0.713225
0.713307
0.713381
0.713445
0.713501
0.71355
0.713595
0.713636
0.713677
0.713718
0.713759
0.713801
0.713843
0.713884
0.713924
0.71396
0.713993
0.714019
0.714037
0.714046
0.714046
0.714035
0.714013
0.713982
0.713943
0.713899
0.71385
0.713798
0.713743
0.713688
0.713635
0.713585
0.713541
0.713507
0.713487
0.713484
0.713502
0.713543
0.713606
0.713688
0.713784
0.713886
0.713988
0.714082
0.714163
0.714228
0.714276
0.714311
0.714334
0.714348
0.714355
0.714359
0.714361
0.714361
0.71436
0.714359
0.714357
0.714355
0.714352
0.714349
0.714345
0.714341
0.714338
0.714334
0.71433
0.714327
0.714323
0.71432
0.714317
0.714314
0.714311
0.714309
0.714306
0.714303
0.7143
0.714298
0.714294
0.714291
0.714288
0.713037
0.713044
0.71306
0.713083
0.713109
0.713135
0.713155
0.713167
0.713171
0.713167
0.713158
0.713144
0.713128
0.713113
0.7131
0.71309
0.713087
0.71309
0.713101
0.71312
0.713148
0.713184
0.713229
0.713282
0.713343
0.713411
0.713484
0.713561
0.713639
0.713712
0.713774
0.713819
0.713838
0.713823
0.71377
0.713678
0.713552
0.713403
0.71324
0.713075
0.712921
0.712792
0.712698
0.712648
0.712644
0.712684
0.712759
0.71286
0.712974
0.713091
0.713202
0.713303
0.713391
0.713466
0.713529
0.713584
0.713632
0.713675
0.713716
0.713755
0.713794
0.713833
0.713872
0.71391
0.713946
0.713979
0.714008
0.714031
0.714047
0.714053
0.71405
0.714036
0.714012
0.713979
0.713938
0.713891
0.71384
0.713788
0.713735
0.713685
0.713638
0.713599
0.713569
0.713552
0.713552
0.71357
0.713608
0.713664
0.713734
0.713815
0.713899
0.713979
0.714052
0.714112
0.71416
0.714196
0.714222
0.714241
0.714256
0.714268
0.714279
0.71429
0.7143
0.71431
0.714318
0.714326
0.714332
0.714337
0.71434
0.714342
0.714342
0.714342
0.71434
0.714338
0.714335
0.714332
0.714328
0.714325
0.714321
0.714318
0.714314
0.71431
0.714307
)
;

boundaryField
{
    inlet
    {
        type            zeroGradient;
    }
    outlet
    {
        type            fixedValue;
        value           uniform 0.714286;
    }
    walls
    {
        type            zeroGradient;
    }
    symwall
    {
        type            empty;
    }
    procBoundary1to0
    {
        type            processor;
        value           nonuniform List<scalar> 10(0.713132 0.71313 0.713123 0.713115 0.7131 0.71308 0.713049 0.713021 0.713005 0.713039);
    }
    procBoundary1to2
    {
        type            processor;
        value           uniform 0.713117;
    }
    procBoundary1to3
    {
        type            processor;
        value           nonuniform List<scalar> 
128
(
0.714303
0.7143
0.714296
0.714292
0.714288
0.71312
0.713128
0.713145
0.713164
0.713182
0.713196
0.713206
0.713209
0.713207
0.713201
0.713191
0.713179
0.713168
0.713158
0.713152
0.713151
0.713156
0.713169
0.71319
0.71322
0.713258
0.713305
0.71336
0.713422
0.713491
0.713565
0.71364
0.713713
0.713779
0.713831
0.713859
0.713859
0.713821
0.713746
0.713636
0.713496
0.713334
0.713158
0.712981
0.712816
0.712676
0.712572
0.712513
0.712503
0.712541
0.71262
0.712728
0.712855
0.712988
0.713117
0.713236
0.713341
0.71343
0.713506
0.713569
0.713622
0.713669
0.71371
0.713749
0.713786
0.713823
0.713859
0.713895
0.713931
0.713966
0.713998
0.714026
0.714049
0.714064
0.714071
0.714069
0.714056
0.714032
0.714
0.713961
0.713915
0.713867
0.713819
0.713772
0.71373
0.713695
0.71367
0.713656
0.713657
0.713674
0.713706
0.713751
0.713805
0.713865
0.713924
0.713979
0.714025
0.714062
0.714091
0.714113
0.71413
0.714146
0.714162
0.714179
0.714197
0.714218
0.714238
0.714259
0.714278
0.714296
0.714311
0.714323
0.714333
0.714339
0.714344
0.714346
0.714346
0.714345
0.714343
0.71434
0.714337
0.714333
0.714328
0.714324
0.71432
0.714315
0.714303
0.714311
)
;
    }
}


// ************************************************************************* //
