/*--------------------------------*- C++ -*----------------------------------*\
| =========                 |                                                 |
| \\      /  F ield         | OpenFOAM: The Open Source CFD Toolbox           |
|  \\    /   O peration     | Version:  4.1                                   |
|   \\  /    A nd           | Web:      www.OpenFOAM.org                      |
|    \\/     M anipulation  |                                                 |
\*---------------------------------------------------------------------------*/
FoamFile
{
    version     2.0;
    format      ascii;
    class       volVectorField;
    location    "341";
    object      U;
}
// * * * * * * * * * * * * * * * * * * * * * * * * * * * * * * * * * * * * * //

dimensions      [0 1 -1 0 0 0 0];

internalField   nonuniform List<vector> 
3264
(
(-2.64398e-06 -4.09234e-07 0)
(-0.000132701 3.05444e-05 0)
(-0.000388645 4.85926e-05 0)
(-0.000675347 5.08629e-05 0)
(-0.000976908 5.25192e-05 0)
(-0.00128282 5.18279e-05 0)
(-0.00158778 5.30236e-05 0)
(-0.00189332 5.35568e-05 0)
(-0.00219503 5.45591e-05 0)
(-0.0024939 5.51035e-05 0)
(-0.00278774 5.56213e-05 0)
(-0.00307724 5.58969e-05 0)
(-0.00336195 5.61313e-05 0)
(-0.00364272 5.63355e-05 0)
(-0.00392013 5.66415e-05 0)
(-0.00419531 5.71292e-05 0)
(-0.00446942 5.7912e-05 0)
(-0.00474384 5.9087e-05 0)
(-0.00501998 6.07556e-05 0)
(-0.00529925 6.30061e-05 0)
(-0.00558298 6.59139e-05 0)
(-0.00587228 6.95306e-05 0)
(-0.00616797 7.38767e-05 0)
(-0.00647043 7.89312e-05 0)
(-0.00677953 8.4623e-05 0)
(-0.00709446 9.08225e-05 0)
(-0.0074137 9.73369e-05 0)
(-0.00773491 0.000103909 0)
(-0.00805488 0.000110225 0)
(-0.00836957 0.000115918 0)
(-0.0086741 0.000120596 0)
(-0.00896288 0.000123852 0)
(-0.00922971 0.000125294 0)
(-0.00946794 0.000124566 0)
(-0.00967065 0.000121374 0)
(-0.00983089 0.000115497 0)
(-0.00994182 0.000106805 0)
(-0.009997 9.52616e-05 0)
(-0.00999052 8.09285e-05 0)
(-0.00991716 6.39584e-05 0)
(-0.00977258 4.45888e-05 0)
(-0.00955339 2.31312e-05 0)
(-0.00925729 -4.0481e-08 0)
(-0.00888304 -2.45027e-05 0)
(-0.0084306 -4.97951e-05 0)
(-0.00790106 -7.54324e-05 0)
(-0.00729667 -0.000100917 0)
(-0.00662079 -0.000125749 0)
(-0.00587788 -0.000149439 0)
(-0.00507342 -0.000171514 0)
(-0.00421383 -0.000191533 0)
(-0.0033064 -0.000209092 0)
(-0.00235919 -0.000223834 0)
(-0.00138092 -0.000235458 0)
(-0.000380825 -0.00024373 0)
(0.000631442 -0.000248486 0)
(0.00164599 -0.000249643 0)
(0.00265285 -0.000247198 0)
(0.00364212 -0.000241238 0)
(0.00460417 -0.000231934 0)
(0.00552977 -0.000219542 0)
(0.00641031 -0.000204395 0)
(0.00723794 -0.000186893 0)
(0.0080057 -0.000167493 0)
(0.00870765 -0.000146693 0)
(0.00933898 -0.000125014 0)
(0.0098961 -0.000102983 0)
(0.0103766 -8.11137e-05 0)
(0.0107793 -5.98909e-05 0)
(0.0111044 -3.97521e-05 0)
(0.0113529 -2.10752e-05 0)
(0.0115273 -4.16856e-06 0)
(0.0116306 1.07361e-05 0)
(0.0116669 2.34872e-05 0)
(0.011641 3.40127e-05 0)
(0.0115581 4.23171e-05 0)
(0.011424 4.8476e-05 0)
(0.0112445 5.26272e-05 0)
(0.0110258 5.49622e-05 0)
(0.0107738 5.57139e-05 0)
(0.0104947 5.51449e-05 0)
(0.0101942 5.35335e-05 0)
(0.00987777 5.11591e-05 0)
(0.00955067 4.82867e-05 0)
(0.00921769 4.51517e-05 0)
(0.00888321 4.19461e-05 0)
(0.00855118 3.88082e-05 0)
(0.00822508 3.58182e-05 0)
(0.00790793 3.30009e-05 0)
(0.00760229 3.03364e-05 0)
(0.00731023 2.77765e-05 0)
(0.00703337 2.52659e-05 0)
(0.00677289 2.27608e-05 0)
(0.00652955 2.02427e-05 0)
(0.00630373 1.77249e-05 0)
(0.00609549 1.52489e-05 0)
(0.00590463 1.28751e-05 0)
(0.00573077 1.06697e-05 0)
(0.00557335 8.6919e-06 0)
(0.00543171 6.98303e-06 0)
(0.00530512 5.56111e-06 0)
(0.00519276 4.41991e-06 0)
(0.00509379 3.53265e-06 0)
(0.00500734 2.85904e-06 0)
(0.00493254 2.35356e-06 0)
(0.00486856 1.97316e-06 0)
(0.00481459 1.68262e-06 0)
(0.00476989 1.45698e-06 0)
(0.00473378 1.2808e-06 0)
(0.00470567 1.14547e-06 0)
(0.00468504 1.04528e-06 0)
(0.0046715 9.73655e-07 0)
(0.00466476 9.20105e-07 0)
(0.00466463 8.68372e-07 0)
(0.00467108 7.95816e-07 0)
(0.00468418 6.73905e-07 0)
(0.00470413 4.69533e-07 0)
(0.00473124 1.46938e-07 0)
(0.00476593 -3.30064e-07 0)
(0.00480869 -9.95709e-07 0)
(0.00486009 -1.87996e-06 0)
(0.00492071 -3.00636e-06 0)
(0.00499114 -4.39016e-06 0)
(0.00507194 -6.03678e-06 0)
(0.0051636 -7.94083e-06 0)
(0.0052665 -1.00855e-05 0)
(0.00538089 -1.24424e-05 0)
(0.00550686 -1.49724e-05 0)
(0.00564428 -1.76263e-05 0)
(0.00579285 -2.03463e-05 0)
(0.005952 -2.30684e-05 0)
(0.00612094 -2.57243e-05 0)
(0.00629865 -2.82439e-05 0)
(0.00648386 -3.05584e-05 0)
(0.0066751 -3.26025e-05 0)
(0.0068707 -3.43177e-05 0)
(0.00706884 -3.56542e-05 0)
(0.00726758 -3.65729e-05 0)
(0.00746489 -3.70474e-05 0)
(0.00765871 -3.70647e-05 0)
(0.00784702 -3.66254e-05 0)
(0.00802788 -3.57436e-05 0)
(0.00819946 -3.44457e-05 0)
(0.00836014 -3.27692e-05 0)
(0.00850851 -3.07601e-05 0)
(0.00864343 -2.84713e-05 0)
(0.00876406 -2.59599e-05 0)
(0.00886987 -2.32852e-05 0)
(0.00896065 -2.05066e-05 0)
(0.00903648 -1.7682e-05 0)
(0.00909779 -1.48664e-05 0)
(0.00914523 -1.21111e-05 0)
(0.00917972 -9.46281e-06 0)
(0.00920237 -6.96338e-06 0)
(0.00921446 -4.64927e-06 0)
(0.00921737 -2.55142e-06 0)
(0.00921256 -6.95074e-07 0)
(0.00920153 9.00277e-07 0)
(0.00918576 2.22093e-06 0)
(0.00916671 3.25893e-06 0)
(0.00914576 4.01196e-06 0)
(0.00912422 4.48326e-06 0)
(0.00910326 4.68144e-06 0)
(0.00908395 4.6203e-06 0)
(0.00906721 4.31855e-06 0)
(0.00905381 3.79953e-06 0)
(0.00904436 3.09068e-06 0)
(0.00903932 2.22304e-06 0)
(0.00903899 1.23045e-06 0)
(0.0090435 1.48694e-07 0)
(0.00905283 -9.85463e-07 0)
(0.00906686 -2.13539e-06 0)
(0.00908528 -3.26565e-06 0)
(0.00910772 -4.3431e-06 0)
(0.00913369 -5.33787e-06 0)
(0.00916263 -6.22419e-06 0)
(0.00919392 -6.98107e-06 0)
(0.00922692 -7.59275e-06 0)
(0.00926098 -8.04894e-06 0)
(0.00929544 -8.34481e-06 0)
(0.00932968 -8.48078e-06 0)
(0.00936313 -8.46216e-06 0)
(0.00939524 -8.29858e-06 0)
(0.00942559 -8.00334e-06 0)
(0.00945377 -7.59267e-06 0)
(0.00947951 -7.08498e-06 0)
(0.00950257 -6.50005e-06 0)
(0.00952284 -5.85837e-06 0)
(0.00954024 -5.18027e-06 0)
(0.00955481 -4.48569e-06 0)
(0.00956663 -3.79223e-06 0)
(0.00957584 -3.11873e-06 0)
(0.00958264 -2.47191e-06 0)
(0.00958722 -1.88143e-06 0)
(0.00958993 -1.30291e-06 0)
(0.00959072 -8.45083e-07 0)
(0.0095907 -2.78103e-07 0)
(0.00958776 1.44704e-07 0)
(0.00958728 5.51295e-07 0)
(0.00957856 2.71067e-06 0)
(-8.33102e-05 0.000135773 0)
(-0.000582341 0.000377986 0)
(-0.00131022 0.000517097 0)
(-0.00208501 0.000561584 0)
(-0.00286599 0.000583212 0)
(-0.00363676 0.000585748 0)
(-0.00438427 0.000586775 0)
(-0.00511191 0.000581544 0)
(-0.00581305 0.000574612 0)
(-0.00649062 0.000565148 0)
(-0.00714281 0.000555148 0)
(-0.00777208 0.00054503 0)
(-0.00837925 0.000535764 0)
(-0.00896673 0.000527837 0)
(-0.00953638 0.000521768 0)
(-0.0100905 0.000517883 0)
(-0.0106309 0.00051642 0)
(-0.0111596 0.000517472 0)
(-0.0116777 0.000520986 0)
(-0.0121862 0.000526739 0)
(-0.0126851 0.000534321 0)
(-0.0131736 0.000543121 0)
(-0.0136501 0.000552323 0)
(-0.0141118 0.000560912 0)
(-0.0145547 0.000567691 0)
(-0.0149738 0.000571319 0)
(-0.0153631 0.000570355 0)
(-0.0157155 0.000563322 0)
(-0.0160231 0.000548773 0)
(-0.0162775 0.000525363 0)
(-0.0164698 0.00049192 0)
(-0.0165911 0.000447508 0)
(-0.0166325 0.000391474 0)
(-0.0165854 0.000323484 0)
(-0.016442 0.000243539 0)
(-0.0161953 0.000151975 0)
(-0.015839 4.94486e-05 0)
(-0.0153681 -6.30886e-05 0)
(-0.0147788 -0.000184427 0)
(-0.0140685 -0.000313139 0)
(-0.0132361 -0.000447617 0)
(-0.0122814 -0.000586118 0)
(-0.011206 -0.000726802 0)
(-0.0100125 -0.000867769 0)
(-0.00870504 -0.00100709 0)
(-0.00728871 -0.00114283 0)
(-0.00576998 -0.00127311 0)
(-0.00415641 -0.00139606 0)
(-0.00245663 -0.00150993 0)
(-0.000680257 -0.00161305 0)
(0.00116217 -0.00170389 0)
(0.0030593 -0.00178103 0)
(0.00499902 -0.00184326 0)
(0.00696865 -0.00188954 0)
(0.00895498 -0.00191905 0)
(0.0109445 -0.00193121 0)
(0.0129233 -0.00192571 0)
(0.0148778 -0.0019025 0)
(0.0167941 -0.00186184 0)
(0.0186589 -0.00180425 0)
(0.0204593 -0.00173059 0)
(0.0221829 -0.00164196 0)
(0.0238184 -0.00153974 0)
(0.0253552 -0.00142556 0)
(0.026784 -0.00130122 0)
(0.0280965 -0.00116868 0)
(0.029286 -0.00103 0)
(0.0303469 -0.000887314 0)
(0.031275 -0.000742717 0)
(0.0320678 -0.000598273 0)
(0.0327238 -0.000455941 0)
(0.0332431 -0.000317544 0)
(0.0336269 -0.000184728 0)
(0.0338776 -5.89468e-05 0)
(0.0339988 5.85603e-05 0)
(0.0339951 0.000166774 0)
(0.0338719 0.000264896 0)
(0.0336356 0.000352345 0)
(0.0332933 0.000428746 0)
(0.0328527 0.00049392 0)
(0.0323223 0.000547866 0)
(0.031711 0.000590752 0)
(0.0310283 0.000622899 0)
(0.030284 0.000644766 0)
(0.0294883 0.000656946 0)
(0.0286515 0.00066015 0)
(0.0277843 0.000655199 0)
(0.026897 0.000643012 0)
(0.026 0.000624588 0)
(0.025103 0.000600981 0)
(0.0242154 0.000573271 0)
(0.0233456 0.000542517 0)
(0.0225014 0.000509715 0)
(0.0216892 0.00047575 0)
(0.0209146 0.000441357 0)
(0.0201819 0.000407105 0)
(0.0194942 0.000373405 0)
(0.0188538 0.000340535 0)
(0.0182619 0.000308688 0)
(0.0177187 0.000278002 0)
(0.017224 0.000248598 0)
(0.0167767 0.000220583 0)
(0.0163754 0.000194053 0)
(0.0160184 0.000169079 0)
(0.0157036 0.0001457 0)
(0.0154291 0.000123911 0)
(0.0151927 0.000103663 0)
(0.0149923 8.486e-05 0)
(0.0148259 6.73685e-05 0)
(0.0146917 5.10182e-05 0)
(0.014588 3.56109e-05 0)
(0.0145132 2.09268e-05 0)
(0.0144662 6.73137e-06 0)
(0.014446 -7.21683e-06 0)
(0.0144519 -2.1159e-05 0)
(0.0144833 -3.53282e-05 0)
(0.01454 -4.99409e-05 0)
(0.014622 -6.51887e-05 0)
(0.0147293 -8.12298e-05 0)
(0.0148623 -9.81808e-05 0)
(0.0150212 -0.00011611 0)
(0.0152062 -0.000135029 0)
(0.0154178 -0.000154894 0)
(0.015656 -0.000175595 0)
(0.0159208 -0.000196964 0)
(0.016212 -0.000218771 0)
(0.016529 -0.000240732 0)
(0.0168712 -0.000262512 0)
(0.0172373 -0.000283738 0)
(0.0176258 -0.000304003 0)
(0.0180348 -0.000322883 0)
(0.0184621 -0.000339948 0)
(0.018905 -0.000354773 0)
(0.0193606 -0.000366955 0)
(0.0198253 -0.000376128 0)
(0.0202957 -0.000381972 0)
(0.0207678 -0.000384234 0)
(0.0212376 -0.000382734 0)
(0.0217008 -0.000377378 0)
(0.0221532 -0.000368165 0)
(0.0225907 -0.000355195 0)
(0.0230092 -0.000338667 0)
(0.023405 -0.000318881 0)
(0.0237745 -0.000296225 0)
(0.0241148 -0.00027117 0)
(0.0244233 -0.000244254 0)
(0.0246982 -0.00021606 0)
(0.0249382 -0.000187196 0)
(0.0251427 -0.000158276 0)
(0.0253118 -0.000129892 0)
(0.0254464 -0.000102597 0)
(0.025548 -7.68866e-05 0)
(0.0256188 -5.31844e-05 0)
(0.0256614 -3.18327e-05 0)
(0.0256788 -1.30886e-05 0)
(0.0256746 2.87651e-06 0)
(0.0256523 1.59731e-05 0)
(0.0256157 2.61877e-05 0)
(0.0255685 3.35745e-05 0)
(0.0255145 3.8247e-05 0)
(0.0254569 4.03683e-05 0)
(0.0253989 4.01434e-05 0)
(0.0253434 3.78104e-05 0)
(0.0252929 3.36334e-05 0)
(0.0252495 2.78953e-05 0)
(0.0252146 2.08922e-05 0)
(0.0251898 1.29263e-05 0)
(0.0251756 4.30025e-06 0)
(0.0251727 -4.68847e-06 0)
(0.0251811 -1.37539e-05 0)
(0.0252005 -2.26272e-05 0)
(0.0252304 -3.10619e-05 0)
(0.02527 -3.88392e-05 0)
(0.0253181 -4.57721e-05 0)
(0.0253737 -5.17091e-05 0)
(0.0254353 -5.65363e-05 0)
(0.0255015 -6.01791e-05 0)
(0.0255708 -6.26018e-05 0)
(0.0256418 -6.38065e-05 0)
(0.0257131 -6.38308e-05 0)
(0.0257834 -6.27442e-05 0)
(0.0258513 -6.06434e-05 0)
(0.025916 -5.76477e-05 0)
(0.0259764 -5.38933e-05 0)
(0.0260318 -4.95276e-05 0)
(0.0260816 -4.47036e-05 0)
(0.0261256 -3.95747e-05 0)
(0.0261635 -3.42901e-05 0)
(0.0261952 -2.899e-05 0)
(0.026221 -2.38027e-05 0)
(0.0262411 -1.88405e-05 0)
(0.0262557 -1.42016e-05 0)
(0.0262656 -9.95087e-06 0)
(0.0262711 -6.18051e-06 0)
(0.0262728 -2.80315e-06 0)
(0.0262714 -1.31176e-07 0)
(0.0262676 2.58343e-06 0)
(0.0262612 4.20104e-06 0)
(0.0262554 6.0618e-06 0)
(0.0262432 1.0286e-05 0)
(-0.00017912 0.000644735 0)
(-0.00104392 0.0012531 0)
(-0.00216971 0.00153265 0)
(-0.00330921 0.00157571 0)
(-0.00440143 0.00157339 0)
(-0.00543618 0.0015333 0)
(-0.00639795 0.0014937 0)
(-0.00729814 0.00144639 0)
(-0.00813367 0.00139952 0)
(-0.00891311 0.00135174 0)
(-0.00963826 0.00130589 0)
(-0.0103147 0.00126246 0)
(-0.0109452 0.00122255 0)
(-0.0115335 0.00118658 0)
(-0.012082 0.00115484 0)
(-0.0125929 0.0011273 0)
(-0.0130675 0.00110371 0)
(-0.0135065 0.00108349 0)
(-0.0139098 0.00106579 0)
(-0.0142764 0.00104947 0)
(-0.0146046 0.00103308 0)
(-0.0148914 0.00101489 0)
(-0.0151333 0.000992946 0)
(-0.0153258 0.000965116 0)
(-0.0154634 0.000929163 0)
(-0.0155403 0.000882839 0)
(-0.0155499 0.000823977 0)
(-0.0154854 0.000750591 0)
(-0.0153397 0.000660966 0)
(-0.0151061 0.00055374 0)
(-0.0147777 0.000427962 0)
(-0.0143484 0.000283141 0)
(-0.0138124 0.000119262 0)
(-0.0131649 -6.32108e-05 0)
(-0.0124018 -0.000263353 0)
(-0.0115199 -0.00047981 0)
(-0.0105171 -0.000710845 0)
(-0.00939218 -0.000954383 0)
(-0.00814505 -0.00120807 0)
(-0.00677665 -0.00146932 0)
(-0.00528895 -0.00173537 0)
(-0.00368497 -0.00200333 0)
(-0.00196875 -0.00227023 0)
(-0.000145322 -0.00253303 0)
(0.00177928 -0.00278869 0)
(0.0037981 -0.00303421 0)
(0.00590322 -0.00326663 0)
(0.00808587 -0.00348307 0)
(0.0103364 -0.00368078 0)
(0.0126445 -0.00385716 0)
(0.0149989 -0.00400978 0)
(0.0173879 -0.00413646 0)
(0.019799 -0.00423524 0)
(0.0222195 -0.00430448 0)
(0.0246362 -0.00434287 0)
(0.0270356 -0.00434949 0)
(0.0294042 -0.00432381 0)
(0.0317286 -0.00426577 0)
(0.0339956 -0.00417578 0)
(0.0361924 -0.0040547 0)
(0.0383069 -0.00390391 0)
(0.0403277 -0.00372521 0)
(0.0422441 -0.00352087 0)
(0.0440468 -0.00329352 0)
(0.0457275 -0.0030461 0)
(0.0472788 -0.0027818 0)
(0.048695 -0.002504 0)
(0.0499714 -0.00221612 0)
(0.0511045 -0.00192163 0)
(0.0520921 -0.00162387 0)
(0.052933 -0.00132609 0)
(0.0536271 -0.00103131 0)
(0.054175 -0.000742323 0)
(0.0545784 -0.000461646 0)
(0.0548395 -0.000191525 0)
(0.0549612 6.60781e-05 0)
(0.0549469 0.000309474 0)
(0.0548007 0.000537227 0)
(0.0545269 0.000748134 0)
(0.0541305 0.000941194 0)
(0.0536166 0.00111559 0)
(0.052991 0.00127065 0)
(0.0522601 0.00140585 0)
(0.0514305 0.00152079 0)
(0.0505097 0.00161521 0)
(0.0495056 0.00168899 0)
(0.048427 0.00174219 0)
(0.0472832 0.00177504 0)
(0.0460846 0.00178807 0)
(0.0448418 0.00178205 0)
(0.0435664 0.00175809 0)
(0.0422705 0.00171763 0)
(0.0409663 0.00166242 0)
(0.0396662 0.00159448 0)
(0.0383824 0.00151604 0)
(0.0371265 0.0014294 0)
(0.0359092 0.0013369 0)
(0.0347402 0.00124073 0)
(0.0336278 0.00114291 0)
(0.0325785 0.00104515 0)
(0.0315975 0.000948893 0)
(0.0306883 0.000855218 0)
(0.0298529 0.000764907 0)
(0.0290921 0.000678464 0)
(0.0284055 0.000596161 0)
(0.0277919 0.000518093 0)
(0.0272494 0.000444219 0)
(0.0267756 0.000374395 0)
(0.0263677 0.000308393 0)
(0.026023 0.000245914 0)
(0.0257387 0.000186594 0)
(0.0255119 0.00013001 0)
(0.0253401 7.56943e-05 0)
(0.0252208 2.31459e-05 0)
(0.0251519 -2.8147e-05 0)
(0.0251314 -7.86863e-05 0)
(0.0251577 -0.000128941 0)
(0.0252291 -0.000179323 0)
(0.0253445 -0.00023017 0)
(0.0255026 -0.000281724 0)
(0.0257024 -0.000334116 0)
(0.025943 -0.000387362 0)
(0.0262233 -0.000441353 0)
(0.0265423 -0.000495853 0)
(0.0268988 -0.000550506 0)
(0.0272914 -0.00060484 0)
(0.0277185 -0.00065828 0)
(0.0281784 -0.000710161 0)
(0.0286689 -0.000759745 0)
(0.0291876 -0.00080624 0)
(0.0297316 -0.00084882 0)
(0.030298 -0.00088665 0)
(0.0308832 -0.000918908 0)
(0.0314835 -0.000944811 0)
(0.0320947 -0.000963638 0)
(0.0327126 -0.000974756 0)
(0.0333326 -0.000977646 0)
(0.0339498 -0.000971926 0)
(0.0345593 -0.00095737 0)
(0.0351562 -0.000933932 0)
(0.0357355 -0.000901756 0)
(0.0362924 -0.000861191 0)
(0.0368222 -0.000812792 0)
(0.0373205 -0.000757318 0)
(0.0377833 -0.000695723 0)
(0.0382071 -0.000629137 0)
(0.038589 -0.000558834 0)
(0.0389269 -0.0004862 0)
(0.0392191 -0.000412687 0)
(0.039465 -0.000339768 0)
(0.0396648 -0.000268883 0)
(0.0398196 -0.000201386 0)
(0.0399312 -0.000138503 0)
(0.0400022 -8.12872e-05 0)
(0.0400361 -3.05869e-05 0)
(0.040037 1.2973e-05 0)
(0.0400092 4.90014e-05 0)
(0.0399577 7.73383e-05 0)
(0.0398875 9.80413e-05 0)
(0.0398037 0.000111365 0)
(0.0397112 0.000117735 0)
(0.0396147 0.000117717 0)
(0.0395187 0.000111984 0)
(0.0394269 0.000101292 0)
(0.0393429 8.64476e-05 0)
(0.0392693 6.82842e-05 0)
(0.0392084 4.76404e-05 0)
(0.0391617 2.53403e-05 0)
(0.0391304 2.17669e-06 0)
(0.0391149 -2.11038e-05 0)
(0.0391152 -4.38135e-05 0)
(0.0391308 -6.53348e-05 0)
(0.0391608 -8.51294e-05 0)
(0.039204 -0.000102746 0)
(0.0392589 -0.000117825 0)
(0.0393238 -0.000130103 0)
(0.0393968 -0.000139413 0)
(0.0394761 -0.000145682 0)
(0.0395595 -0.000148928 0)
(0.0396452 -0.000149255 0)
(0.0397314 -0.000146839 0)
(0.0398163 -0.000141925 0)
(0.0398982 -0.00013481 0)
(0.039976 -0.000125831 0)
(0.0400483 -0.000115354 0)
(0.0401142 -0.000103756 0)
(0.0401732 -9.14173e-05 0)
(0.0402246 -7.87063e-05 0)
(0.0402684 -6.59699e-05 0)
(0.0403044 -5.35244e-05 0)
(0.040333 -4.16492e-05 0)
(0.0403544 -3.05781e-05 0)
(0.0403692 -2.05015e-05 0)
(0.0403781 -1.15609e-05 0)
(0.0403818 -3.80869e-06 0)
(0.040381 2.57648e-06 0)
(0.0403765 8.08723e-06 0)
(0.0403695 1.17443e-05 0)
(0.0403607 1.53479e-05 0)
(0.0403483 1.90426e-05 0)
(-0.000306485 0.0012616 0)
(-0.0015203 0.00231488 0)
(-0.00287729 0.0027247 0)
(-0.00414791 0.00273787 0)
(-0.00525081 0.00267013 0)
(-0.00623532 0.00254585 0)
(-0.00708735 0.00242266 0)
(-0.00784031 0.00229434 0)
(-0.00849539 0.00217215 0)
(-0.00906894 0.00205491 0)
(-0.00956572 0.00194512 0)
(-0.00999408 0.00184259 0)
(-0.0103581 0.0017475 0)
(-0.0106619 0.00165939 0)
(-0.010908 0.00157767 0)
(-0.0110981 0.00150144 0)
(-0.0112328 0.00142959 0)
(-0.0113118 0.00136073 0)
(-0.0113343 0.00129322 0)
(-0.0112985 0.00122511 0)
(-0.011202 0.00115425 0)
(-0.0110418 0.00107824 0)
(-0.0108143 0.000994538 0)
(-0.0105156 0.000900536 0)
(-0.0101414 0.000793627 0)
(-0.0096872 0.00067132 0)
(-0.00914852 0.000531335 0)
(-0.00852089 0.000371703 0)
(-0.00780006 0.000190849 0)
(-0.00698207 -1.23404e-05 0)
(-0.00606339 -0.000238463 0)
(-0.00504102 -0.000487576 0)
(-0.00391251 -0.000759189 0)
(-0.00267606 -0.00105227 0)
(-0.00133058 -0.00136529 0)
(0.000124334 -0.00169624 0)
(0.00168833 -0.00204268 0)
(0.0033603 -0.00240184 0)
(0.00513837 -0.00277061 0)
(0.00701987 -0.00314562 0)
(0.00900135 -0.0035233 0)
(0.0110785 -0.00389994 0)
(0.0132464 -0.00427168 0)
(0.015499 -0.00463461 0)
(0.0178297 -0.00498479 0)
(0.0202309 -0.00531827 0)
(0.0226943 -0.00563116 0)
(0.0252107 -0.00591967 0)
(0.0277703 -0.00618013 0)
(0.0303624 -0.00640905 0)
(0.0329758 -0.00660318 0)
(0.0355986 -0.00675955 0)
(0.0382185 -0.00687551 0)
(0.0408226 -0.00694883 0)
(0.043398 -0.00697774 0)
(0.0459316 -0.00696101 0)
(0.0484104 -0.00689798 0)
(0.0508216 -0.00678863 0)
(0.0531529 -0.00663362 0)
(0.0553928 -0.0064343 0)
(0.0575303 -0.00619272 0)
(0.0595559 -0.00591156 0)
(0.061461 -0.00559414 0)
(0.0632383 -0.00524428 0)
(0.064882 -0.00486625 0)
(0.0663875 -0.00446462 0)
(0.0677517 -0.00404418 0)
(0.0689729 -0.00360975 0)
(0.0700502 -0.00316611 0)
(0.0709844 -0.00271787 0)
(0.0717766 -0.00226938 0)
(0.072429 -0.00182466 0)
(0.0729444 -0.00138733 0)
(0.073326 -0.000960612 0)
(0.0735773 -0.000547289 0)
(0.073702 -0.000149743 0)
(0.0737037 0.000230032 0)
(0.0735864 0.000590383 0)
(0.0733537 0.000929959 0)
(0.0730094 0.00124765 0)
(0.0725569 0.00154254 0)
(0.0719998 0.00181387 0)
(0.0713417 0.00206094 0)
(0.070586 0.00228317 0)
(0.0697365 0.00247997 0)
(0.068797 0.00265081 0)
(0.0677718 0.00279517 0)
(0.0666654 0.0029126 0)
(0.065483 0.00300274 0)
(0.0642304 0.00306533 0)
(0.0629145 0.00310035 0)
(0.0615426 0.00310801 0)
(0.0601234 0.00308885 0)
(0.0586665 0.0030438 0)
(0.0571823 0.00297419 0)
(0.0556822 0.00288181 0)
(0.0541785 0.0027689 0)
(0.0526837 0.00263809 0)
(0.0512104 0.00249232 0)
(0.0497712 0.00233478 0)
(0.0483781 0.00216874 0)
(0.0470418 0.00199738 0)
(0.0457722 0.00182371 0)
(0.0445774 0.00165037 0)
(0.0434638 0.00147959 0)
(0.0424363 0.0013131 0)
(0.041498 0.00115217 0)
(0.0406505 0.000997593 0)
(0.039894 0.000849774 0)
(0.0392278 0.000708766 0)
(0.0386501 0.000574351 0)
(0.0381584 0.000446107 0)
(0.03775 0.000323463 0)
(0.0374218 0.000205753 0)
(0.0371703 9.22648e-05 0)
(0.0369925 -1.77205e-05 0)
(0.0368848 -0.000124891 0)
(0.0368443 -0.000229869 0)
(0.0368677 -0.00033318 0)
(0.0369521 -0.000435226 0)
(0.0370948 -0.000536264 0)
(0.0372928 -0.00063639 0)
(0.0375435 -0.000735529 0)
(0.0378442 -0.000833432 0)
(0.0381922 -0.000929677 0)
(0.0385848 -0.00102368 0)
(0.039019 -0.00111471 0)
(0.0394918 -0.0012019 0)
(0.0400002 -0.00128428 0)
(0.0405407 -0.0013608 0)
(0.0411098 -0.00143036 0)
(0.0417038 -0.00149181 0)
(0.0423186 -0.00154404 0)
(0.0429501 -0.00158598 0)
(0.0435938 -0.00161663 0)
(0.0442452 -0.00163508 0)
(0.0448994 -0.00164061 0)
(0.0455517 -0.00163263 0)
(0.046197 -0.0016108 0)
(0.0468304 -0.00157498 0)
(0.0474468 -0.00152532 0)
(0.0480415 -0.00146224 0)
(0.0486097 -0.00138645 0)
(0.049147 -0.00129896 0)
(0.0496492 -0.00120106 0)
(0.0501126 -0.00109432 0)
(0.050534 -0.000980561 0)
(0.0509107 -0.000861794 0)
(0.0512406 -0.000740194 0)
(0.0515225 -0.000618026 0)
(0.0517556 -0.000497581 0)
(0.0519404 -0.000381104 0)
(0.0520777 -0.000270718 0)
(0.0521694 -0.000168354 0)
(0.0522182 -7.56876e-05 0)
(0.0522273 5.91379e-06 0)
(0.0522009 7.54331e-05 0)
(0.0521434 0.000132225 0)
(0.0520599 0.000176021 0)
(0.0519556 0.000206922 0)
(0.0518358 0.000225369 0)
(0.0517059 0.000232104 0)
(0.0515711 0.000228126 0)
(0.0514362 0.000214635 0)
(0.0513055 0.000192976 0)
(0.051183 0.000164592 0)
(0.0510719 0.000130967 0)
(0.0509749 9.35832e-05 0)
(0.050894 5.38853e-05 0)
(0.0508304 1.32434e-05 0)
(0.0507849 -2.7073e-05 0)
(0.0507576 -6.59171e-05 0)
(0.0507481 -0.000102282 0)
(0.0507556 -0.000135315 0)
(0.0507789 -0.000164322 0)
(0.0508164 -0.000188777 0)
(0.0508662 -0.000208319 0)
(0.0509265 -0.000222751 0)
(0.0509952 -0.000232031 0)
(0.05107 -0.000236264 0)
(0.051149 -0.000235687 0)
(0.05123 -0.000230652 0)
(0.0513111 -0.000221611 0)
(0.0513907 -0.000209093 0)
(0.0514671 -0.000193681 0)
(0.051539 -0.000175996 0)
(0.0516052 -0.000156673 0)
(0.051665 -0.000136338 0)
(0.0517176 -0.000115596 0)
(0.0517627 -9.50091e-05 0)
(0.0518003 -7.50842e-05 0)
(0.0518303 -5.62644e-05 0)
(0.051853 -3.89163e-05 0)
(0.051869 -2.33314e-05 0)
(0.0518788 -9.70979e-06 0)
(0.0518831 1.79369e-06 0)
(0.0518828 1.12845e-05 0)
(0.0518789 1.82946e-05 0)
(0.0518719 2.42251e-05 0)
(0.0518623 2.75412e-05 0)
(-0.00040634 0.00247402 0)
(-0.00172383 0.00380092 0)
(-0.00299478 0.00414685 0)
(-0.00405923 0.00389767 0)
(-0.00483569 0.00362785 0)
(-0.0054349 0.00332917 0)
(-0.00585317 0.00306945 0)
(-0.0061495 0.00282765 0)
(-0.00633233 0.00260897 0)
(-0.00642689 0.00240725 0)
(-0.00644052 0.00222137 0)
(-0.00638387 0.00204884 0)
(-0.00626123 0.0018879 0)
(-0.00607689 0.00173671 0)
(-0.00583256 0.00159349 0)
(-0.00552933 0.00145639 0)
(-0.00516705 0.00132347 0)
(-0.00474493 0.00119264 0)
(-0.00426146 0.00106165 0)
(-0.00371466 0.000928075 0)
(-0.00310213 0.000789334 0)
(-0.00242115 0.000642727 0)
(-0.00166883 0.000485486 0)
(-0.00084215 0.000314862 0)
(6.19187e-05 0.0001282 0)
(0.00104632 -7.69591e-05 0)
(0.00211384 -0.000302787 0)
(0.00326704 -0.000551083 0)
(0.00450816 -0.000823191 0)
(0.00583911 -0.00111995 0)
(0.00726138 -0.00144164 0)
(0.00877601 -0.00178798 0)
(0.0103836 -0.0021581 0)
(0.0120842 -0.00255057 0)
(0.0138774 -0.00296343 0)
(0.0157621 -0.00339422 0)
(0.0177367 -0.00384004 0)
(0.019799 -0.00429758 0)
(0.0219463 -0.00476316 0)
(0.0241749 -0.00523284 0)
(0.0264807 -0.00570239 0)
(0.0288587 -0.00616738 0)
(0.0313032 -0.00662323 0)
(0.0338078 -0.00706521 0)
(0.0363652 -0.00748855 0)
(0.0389674 -0.00788841 0)
(0.0416054 -0.00826003 0)
(0.0442695 -0.00859868 0)
(0.0469494 -0.00889979 0)
(0.0496339 -0.00915902 0)
(0.0523112 -0.00937227 0)
(0.054969 -0.00953582 0)
(0.0575947 -0.00964636 0)
(0.0601753 -0.00970114 0)
(0.0626978 -0.009698 0)
(0.0651495 -0.00963551 0)
(0.0675179 -0.00951305 0)
(0.0697912 -0.00933084 0)
(0.0719584 -0.00909006 0)
(0.0740099 -0.0087928 0)
(0.0759371 -0.00844209 0)
(0.0777331 -0.00804182 0)
(0.0793926 -0.00759668 0)
(0.080912 -0.00711201 0)
(0.0822893 -0.00659363 0)
(0.0835242 -0.00604772 0)
(0.0846179 -0.00548059 0)
(0.0855727 -0.00489853 0)
(0.0863923 -0.00430762 0)
(0.0870808 -0.00371363 0)
(0.0876433 -0.00312183 0)
(0.0880851 -0.00253701 0)
(0.0884117 -0.00196333 0)
(0.0886286 -0.00140439 0)
(0.0887411 -0.00086316 0)
(0.0887541 -0.000342087 0)
(0.0886723 0.000156895 0)
(0.0885 0.000632287 0)
(0.0882408 0.00108295 0)
(0.087898 0.00150802 0)
(0.0874744 0.00190685 0)
(0.0869725 0.00227892 0)
(0.0863941 0.00262378 0)
(0.0857411 0.00294101 0)
(0.0850149 0.00323014 0)
(0.0842168 0.00349068 0)
(0.0833481 0.00372205 0)
(0.0824101 0.00392363 0)
(0.0814043 0.00409476 0)
(0.0803324 0.00423479 0)
(0.0791965 0.00434309 0)
(0.0779994 0.00441918 0)
(0.0767444 0.00446271 0)
(0.0754356 0.0044736 0)
(0.0740783 0.00445206 0)
(0.0726785 0.00439867 0)
(0.0712434 0.00431441 0)
(0.0697811 0.00420072 0)
(0.0683011 0.00405951 0)
(0.0668134 0.00389316 0)
(0.065329 0.00370447 0)
(0.0638594 0.00349662 0)
(0.0624164 0.00327303 0)
(0.0610117 0.00303732 0)
(0.0596563 0.00279308 0)
(0.0583607 0.00254379 0)
(0.0571343 0.00229268 0)
(0.0559852 0.00204261 0)
(0.0549199 0.00179596 0)
(0.0539434 0.00155463 0)
(0.0530594 0.00131999 0)
(0.0522698 0.00109291 0)
(0.0515754 0.000873839 0)
(0.0509757 0.00066282 0)
(0.0504694 0.00045962 0)
(0.0500542 0.000263797 0)
(0.0497274 7.47839e-05 0)
(0.0494856 -0.000108029 0)
(0.0493253 -0.000285227 0)
(0.0492426 -0.000457315 0)
(0.0492335 -0.00062467 0)
(0.049294 -0.000787501 0)
(0.0494201 -0.000945835 0)
(0.0496075 -0.0010995 0)
(0.0498523 -0.0012481 0)
(0.0501502 -0.00139109 0)
(0.0504971 -0.00152768 0)
(0.0508888 -0.00165695 0)
(0.0513211 -0.00177784 0)
(0.0517896 -0.00188916 0)
(0.0522901 -0.00198967 0)
(0.0528179 -0.00207807 0)
(0.0533685 -0.00215306 0)
(0.0539373 -0.00221339 0)
(0.0545196 -0.00225789 0)
(0.0551104 -0.0022855 0)
(0.0557049 -0.00229535 0)
(0.0562983 -0.00228675 0)
(0.0568856 -0.00225927 0)
(0.0574621 -0.00221278 0)
(0.058023 -0.00214743 0)
(0.0585637 -0.00206375 0)
(0.0590799 -0.0019626 0)
(0.0595674 -0.00184522 0)
(0.0600226 -0.0017132 0)
(0.060442 -0.0015685 0)
(0.0608226 -0.00141339 0)
(0.0611621 -0.0012504 0)
(0.0614584 -0.00108232 0)
(0.0617103 -0.000912067 0)
(0.061917 -0.000742636 0)
(0.0620784 -0.000577027 0)
(0.0621952 -0.00041814 0)
(0.0622685 -0.000268694 0)
(0.0623002 -0.000131141 0)
(0.0622928 -7.59101e-06 0)
(0.0622496 0.00010025 0)
(0.062174 0.000191132 0)
(0.0620702 0.000264284 0)
(0.0619427 0.000319429 0)
(0.0617961 0.000356775 0)
(0.0616354 0.000376978 0)
(0.0614654 0.000381107 0)
(0.061291 0.000370576 0)
(0.0611166 0.000347084 0)
(0.0609464 0.000312535 0)
(0.0607843 0.000268968 0)
(0.0606334 0.000218486 0)
(0.0604964 0.000163187 0)
(0.0603755 0.000105106 0)
(0.0602721 4.6168e-05 0)
(0.060187 -1.18589e-05 0)
(0.0601207 -6.73926e-05 0)
(0.060073 -0.000119063 0)
(0.0600433 -0.000165727 0)
(0.0600304 -0.000206481 0)
(0.0600332 -0.000240659 0)
(0.0600499 -0.000267832 0)
(0.0600789 -0.000287801 0)
(0.0601181 -0.000300578 0)
(0.0601656 -0.000306374 0)
(0.0602194 -0.000305572 0)
(0.0602775 -0.000298707 0)
(0.0603382 -0.000286436 0)
(0.0603996 -0.000269512 0)
(0.0604602 -0.000248755 0)
(0.0605185 -0.000225022 0)
(0.0605735 -0.000199182 0)
(0.0606241 -0.000172086 0)
(0.0606695 -0.000144549 0)
(0.0607092 -0.000117327 0)
(0.060743 -9.10961e-05 0)
(0.0607707 -6.64449e-05 0)
(0.0607923 -4.38648e-05 0)
(0.0608082 -2.37317e-05 0)
(0.0608187 -6.33874e-06 0)
(0.0608245 8.18489e-06 0)
(0.0608261 1.95666e-05 0)
(0.0608243 2.86237e-05 0)
(0.0608198 3.31115e-05 0)
(-0.000695729 0.00309791 0)
(-0.00209699 0.00472657 0)
(-0.0025578 0.0049557 0)
(-0.00279076 0.0045088 0)
(-0.00261629 0.00403696 0)
(-0.00235398 0.00357055 0)
(-0.00194112 0.00316639 0)
(-0.00146149 0.00280774 0)
(-0.000905286 0.0024901 0)
(-0.000296865 0.00220483 0)
(0.000363251 0.00194522 0)
(0.00106737 0.00170625 0)
(0.00181473 0.00148334 0)
(0.00260349 0.00127299 0)
(0.00343418 0.00107193 0)
(0.00430751 0.00087733 0)
(0.00522517 0.00068643 0)
(0.00618918 0.000496579 0)
(0.00720199 0.000305096 0)
(0.00826627 0.000109283 0)
(0.00938484 -9.36068e-05 0)
(0.0105606 -0.000306338 0)
(0.0117963 -0.000531656 0)
(0.0130948 -0.000772229 0)
(0.0144586 -0.00103058 0)
(0.0158901 -0.00130899 0)
(0.0173911 -0.00160945 0)
(0.0189635 -0.00193356 0)
(0.0206085 -0.00228247 0)
(0.0223271 -0.0026568 0)
(0.0241198 -0.00305664 0)
(0.0259868 -0.0034815 0)
(0.0279276 -0.00393028 0)
(0.0299414 -0.00440132 0)
(0.032027 -0.00489238 0)
(0.0341824 -0.0054007 0)
(0.0364051 -0.00592299 0)
(0.0386923 -0.00645552 0)
(0.0410401 -0.00699415 0)
(0.0434442 -0.00753436 0)
(0.0458996 -0.0080713 0)
(0.0484005 -0.00859985 0)
(0.0509401 -0.00911466 0)
(0.0535111 -0.00961016 0)
(0.0561052 -0.0100807 0)
(0.0587133 -0.0105205 0)
(0.0613253 -0.0109238 0)
(0.0639306 -0.011285 0)
(0.0665176 -0.0115985 0)
(0.0690741 -0.0118591 0)
(0.0715875 -0.0120618 0)
(0.0740446 -0.0122022 0)
(0.0764324 -0.0122765 0)
(0.0787377 -0.0122814 0)
(0.0809477 -0.0122148 0)
(0.0830505 -0.0120753 0)
(0.0850349 -0.0118627 0)
(0.0868912 -0.011578 0)
(0.0886114 -0.0112234 0)
(0.0901892 -0.0108024 0)
(0.0916206 -0.0103196 0)
(0.0929037 -0.00978078 0)
(0.0940388 -0.00919253 0)
(0.0950283 -0.00856223 0)
(0.0958768 -0.00789768 0)
(0.0965901 -0.0072069 0)
(0.0971758 -0.00649785 0)
(0.0976421 -0.00577823 0)
(0.097998 -0.00505523 0)
(0.0982525 -0.00433541 0)
(0.0984149 -0.0036246 0)
(0.0984939 -0.00292778 0)
(0.0984974 -0.00224912 0)
(0.0984331 -0.00159196 0)
(0.0983073 -0.000958885 0)
(0.0981257 -0.000351814 0)
(0.097893 0.000227935 0)
(0.097613 0.000779523 0)
(0.0972887 0.00130249 0)
(0.0969221 0.00179665 0)
(0.0965148 0.00226201 0)
(0.0960674 0.00269864 0)
(0.0955801 0.00310664 0)
(0.0950529 0.00348607 0)
(0.0944849 0.00383689 0)
(0.0938754 0.00415891 0)
(0.0932232 0.0044518 0)
(0.0925269 0.00471508 0)
(0.0917854 0.00494812 0)
(0.0909975 0.00515015 0)
(0.0901619 0.00532033 0)
(0.0892781 0.0054578 0)
(0.0883455 0.0055617 0)
(0.0873643 0.00563128 0)
(0.0863353 0.00566593 0)
(0.0852597 0.00566529 0)
(0.08414 0.00562932 0)
(0.0829795 0.00555833 0)
(0.0817822 0.00545307 0)
(0.0805536 0.00531473 0)
(0.0792999 0.00514501 0)
(0.0780284 0.00494606 0)
(0.0767475 0.00472048 0)