/*--------------------------------*- C++ -*----------------------------------*\
| =========                 |                                                 |
| \\      /  F ield         | OpenFOAM: The Open Source CFD Toolbox           |
|  \\    /   O peration     | Version:  4.1                                   |
|   \\  /    A nd           | Web:      www.OpenFOAM.org                      |
|    \\/     M anipulation  |                                                 |
\*---------------------------------------------------------------------------*/
FoamFile
{
    version     2.0;
    format      ascii;
    class       volVectorField;
    location    "5700";
    object      U;
}
// * * * * * * * * * * * * * * * * * * * * * * * * * * * * * * * * * * * * * //

dimensions      [0 1 -1 0 0 0 0];

internalField   nonuniform List<vector> 
1275
(
(0.0902557 -0.000653819 0)
(0.0901594 -0.000659135 0)
(0.0900279 -0.000653688 0)
(0.0899524 -0.000660697 0)
(0.0897943 -0.000650815 0)
(0.0890532 -0.00266679 0)
(0.0883912 -0.00220453 0)
(0.0878156 -0.00177163 0)
(0.0873222 -0.00136058 0)
(0.0869089 -0.000973817 0)
(0.0865711 -0.000607786 0)
(0.0863056 -0.000262568 0)
(0.086108 6.41364e-05 0)
(0.0859745 0.000372971 0)
(0.0859007 0.000665669 0)
(0.0858827 0.000943088 0)
(0.0859163 0.00120662 0)
(0.0859977 0.00145713 0)
(0.086123 0.00169577 0)
(0.0862884 0.00192334 0)
(0.0864905 0.00214078 0)
(0.0867259 0.00234878 0)
(0.0869914 0.00254811 0)
(0.0872838 0.00273935 0)
(0.0876003 0.0029231 0)
(0.0879381 0.00309985 0)
(0.0882946 0.00327004 0)
(0.0886673 0.00343404 0)
(0.0890538 0.00359218 0)
(0.089452 0.00374471 0)
(0.0898597 0.00389185 0)
(0.0902749 0.00403374 0)
(0.0906957 0.0041705 0)
(0.0911203 0.00430219 0)
(0.0915469 0.00442881 0)
(0.0919739 0.00455035 0)
(0.0923998 0.00466673 0)
(0.0928229 0.00477785 0)
(0.0932419 0.00488358 0)
(0.0936554 0.00498375 0)
(0.0940622 0.00507818 0)
(0.0944609 0.00516664 0)
(0.0948504 0.00524893 0)
(0.0952297 0.00532478 0)
(0.0955976 0.00539395 0)
(0.0959532 0.00545619 0)
(0.0962957 0.00551124 0)
(0.0966241 0.00555884 0)
(0.0969378 0.00559877 0)
(0.097236 0.00563079 0)
(0.0975182 0.00565469 0)
(0.0977839 0.00567029 0)
(0.0980326 0.00567742 0)
(0.0982639 0.00567597 0)
(0.0984777 0.00566584 0)
(0.0986737 0.00564697 0)
(0.0988517 0.00561934 0)
(0.0990119 0.00558297 0)
(0.0991542 0.00553792 0)
(0.0992787 0.00548432 0)
(0.0993857 0.0054223 0)
(0.0994755 0.00535206 0)
(0.0995484 0.00527384 0)
(0.0996047 0.00518791 0)
(0.099645 0.0050946 0)
(0.0996698 0.00499424 0)
(0.0996796 0.00488723 0)
(0.099675 0.00477397 0)
(0.0996567 0.00465492 0)
(0.0996253 0.00453052 0)
(0.0995815 0.00440127 0)
(0.0995259 0.00426766 0)
(0.0994594 0.0041302 0)
(0.0993826 0.00398939 0)
(0.0992961 0.00384576 0)
(0.0992008 0.00369982 0)
(0.0990973 0.00355208 0)
(0.0989862 0.00340304 0)
(0.0988683 0.00325318 0)
(0.0987441 0.00310299 0)
(0.0986143 0.00295293 0)
(0.0984794 0.00280342 0)
(0.09834 0.0026549 0)
(0.0981966 0.00250776 0)
(0.0980498 0.00236236 0)
(0.0978999 0.00221906 0)
(0.0977474 0.00207818 0)
(0.0975927 0.00194002 0)
(0.0974361 0.00180484 0)
(0.097278 0.00167288 0)
(0.0971186 0.00154437 0)
(0.0969583 0.0014195 0)
(0.0967973 0.00129844 0)
(0.0966358 0.00118132 0)
(0.096474 0.00106827 0)
(0.0963121 0.000959378 0)
(0.0961502 0.000854728 0)
(0.0959884 0.000754372 0)
(0.095827 0.000658346 0)
(0.0956658 0.000566666 0)
(0.0955052 0.000479333 0)
(0.095345 0.000396331 0)
(0.0951854 0.000317627 0)
(0.0950265 0.000243183 0)
(0.0948682 0.000172931 0)
(0.0947106 0.000106818 0)
(0.0945537 4.47437e-05 0)
(0.0943976 -1.33489e-05 0)
(0.0942421 -6.76046e-05 0)
(0.0940876 -0.000118056 0)
(0.0939337 -0.000164919 0)
(0.0937808 -0.000208158 0)
(0.0936284 -0.000248115 0)
(0.0934772 -0.000284597 0)
(0.0933261 -0.000318189 0)
(0.093177 -0.000348377 0)
(0.0930269 -0.000376202 0)
(0.0928803 -0.000400532 0)
(0.0927304 -0.000423258 0)
(0.0925877 -0.000442107 0)
(0.0924359 -0.000460484 0)
(0.0923005 -0.000474142 0)
(0.0921415 -0.000488995 0)
(0.0920217 -0.000497694 0)
(0.0918426 -0.000509793 0)
(0.0917587 -0.000513968 0)
(0.091529 -0.000523307 0)
(0.0914334 -0.000524054 0)
(0.0913185 -0.000531295 0)
(0.09115 -0.000527802 0)
(0.0910584 -0.000533462 0)
(0.0908559 -0.000527535 0)
(0.0681236 -0.00191268 0)
(0.0674672 -0.00155351 0)
(0.0669152 -0.00121749 0)
(0.0664667 -0.000900577 0)
(0.0661143 -0.000602903 0)
(0.0658532 -0.000321625 0)
(0.0656774 -5.62086e-05 0)
(0.0655813 0.000195438 0)
(0.0655597 0.00043408 0)
(0.0656071 0.000661302 0)
(0.0657185 0.000877898 0)
(0.0658891 0.00108509 0)
(0.0661144 0.0012836 0)
(0.06639 0.00147438 0)
(0.0667118 0.00165806 0)
(0.0670759 0.00183537 0)
(0.0674787 0.00200683 0)
(0.0679169 0.00217301 0)
(0.0683873 0.00233431 0)
(0.0688868 0.00249117 0)
(0.0694127 0.00264388 0)
(0.0699623 0.00279276 0)
(0.0705331 0.00293801 0)
(0.0711227 0.00307985 0)
(0.071729 0.00321838 0)
(0.0723497 0.00335372 0)
(0.0729829 0.0034859 0)
(0.0736267 0.00361495 0)
(0.0742792 0.00374083 0)
(0.0749386 0.00386347 0)
(0.0756032 0.00398277 0)
(0.0762715 0.00409859 0)
(0.0769417 0.00421077 0)
(0.0776124 0.0043191 0)
(0.078282 0.00442336 0)
(0.0789492 0.0045233 0)
(0.0796124 0.00461864 0)
(0.0802704 0.00470911 0)
(0.0809218 0.0047944 0)
(0.0815653 0.00487419 0)
(0.0821997 0.00494817 0)
(0.0828239 0.00501602 0)
(0.0834366 0.00507743 0)
(0.0840368 0.00513207 0)
(0.0846235 0.00517965 0)
(0.0851958 0.0052199 0)
(0.0857526 0.00525254 0)
(0.0862932 0.00527734 0)
(0.0868168 0.00529409 0)
(0.0873228 0.00530262 0)
(0.0878104 0.00530277 0)
(0.0882792 0.00529447 0)
(0.0887287 0.00527763 0)
(0.0891584 0.00525225 0)
(0.0895682 0.00521835 0)
(0.0899577 0.005176 0)
(0.0903268 0.00512533 0)
(0.0906755 0.00506649 0)
(0.0910037 0.00499971 0)
(0.0913116 0.00492521 0)
(0.0915991 0.00484331 0)
(0.0918666 0.00475432 0)
(0.0921144 0.00465861 0)
(0.0923426 0.00455659 0)
(0.0925518 0.00444867 0)
(0.0927423 0.0043353 0)
(0.0929146 0.00421695 0)
(0.0930692 0.00409412 0)
(0.0932065 0.00396729 0)
(0.0933272 0.00383697 0)
(0.0934319 0.00370368 0)
(0.093521 0.00356792 0)
(0.0935953 0.00343019 0)
(0.0936553 0.003291 0)
(0.0937016 0.00315083 0)
(0.0937348 0.00301016 0)
(0.0937556 0.00286944 0)
(0.0937645 0.00272911 0)
(0.0937621 0.00258959 0)
(0.093749 0.00245128 0)
(0.0937257 0.00231454 0)
(0.0936929 0.00217972 0)
(0.0936509 0.00204715 0)
(0.0936004 0.00191712 0)
(0.0935419 0.0017899 0)
(0.0934757 0.00166574 0)
(0.0934024 0.00154484 0)
(0.0933224 0.0014274 0)
(0.0932362 0.00131359 0)
(0.093144 0.00120355 0)
(0.0930463 0.00109739 0)
(0.0929435 0.000995206 0)
(0.0928359 0.00089708 0)
(0.0927239 0.00080306 0)
(0.0926076 0.000713179 0)
(0.0924876 0.000627452 0)
(0.092364 0.000545877 0)
(0.0922371 0.000468437 0)
(0.0921072 0.000395097 0)
(0.0919745 0.000325811 0)
(0.0918393 0.000260521 0)
(0.0917018 0.000199155 0)
(0.0915621 0.000141637 0)
(0.0914206 8.78679e-05 0)
(0.0912774 3.77669e-05 0)
(0.0911328 -8.80004e-06 0)
(0.0909867 -5.18964e-05 0)
(0.0908396 -9.17148e-05 0)
(0.0906913 -0.000128257 0)
(0.0905426 -0.000161833 0)
(0.0903926 -0.000192284 0)
(0.0902428 -0.00022018 0)
(0.0900916 -0.000244982 0)
(0.0899417 -0.000267842 0)
(0.0897894 -0.000287344 0)
(0.0896401 -0.000305972 0)
(0.0894866 -0.000320294 0)
(0.0893393 -0.000335828 0)
(0.0891841 -0.000344617 0)
(0.0890402 -0.000358755 0)
(0.0888826 -0.000361222 0)
(0.0887427 -0.000375045 0)
(0.0885815 -0.00037461 0)
(0.088454 -0.000382142 0)
(0.0882759 -0.000381872 0)
(0.0881789 -0.000386018 0)
(0.0879615 -0.000384687 0)
(0.0459452 -0.00123407 0)
(0.0454601 -0.00099453 0)
(0.0450809 -0.000769917 0)
(0.0448017 -0.000558512 0)
(0.0446144 -0.000359202 0)
(0.0445132 -0.000169833 0)
(0.0444912 1.0241e-05 0)
(0.044543 0.000182685 0)
(0.0446629 0.000348069 0)
(0.044846 0.000507588 0)
(0.0450875 0.000661745 0)
(0.0453831 0.000811396 0)
(0.0457289 0.000956964 0)
(0.0461211 0.00109906 0)
(0.0465562 0.00123804 0)
(0.0470312 0.00137433 0)
(0.047543 0.0015082 0)
(0.0480889 0.00163998 0)
(0.0486664 0.00176985 0)
(0.0492731 0.00189805 0)
(0.0499066 0.00202469 0)
(0.050565 0.00214992 0)
(0.0512463 0.00227382 0)
(0.0519484 0.00239645 0)
(0.0526698 0.00251782 0)
(0.0534085 0.00263793 0)
(0.0541631 0.00275675 0)
(0.0549318 0.0028742 0)
(0.0557131 0.00299019 0)
(0.0565056 0.00310461 0)
(0.0573078 0.00321728 0)
(0.0581181 0.00332804 0)
(0.0589353 0.00343668 0)
(0.0597577 0.00354296 0)
(0.0605842 0.00364663 0)
(0.0614132 0.00374742 0)
(0.0622434 0.00384502 0)
(0.0630735 0.00393912 0)
(0.063902 0.00402939 0)
(0.0647277 0.0041155 0)
(0.0655492 0.00419708 0)
(0.0663651 0.0042738 0)
(0.0671743 0.00434529 0)
(0.0679754 0.00441121 0)
(0.0687672 0.00447121 0)
(0.0695484 0.00452496 0)
(0.070318 0.00457214 0)
(0.0710747 0.00461247 0)
(0.0718175 0.00464568 0)
(0.0725453 0.00467151 0)
(0.0732572 0.00468977 0)
(0.0739522 0.00470028 0)
(0.0746295 0.00470291 0)
(0.0752882 0.00469757 0)
(0.0759277 0.00468419 0)
(0.0765474 0.00466279 0)
(0.0771465 0.0046334 0)
(0.0777247 0.0045961 0)
(0.0782815 0.00455102 0)
(0.0788165 0.00449835 0)
(0.0793296 0.0044383 0)
(0.0798204 0.00437112 0)
(0.0802888 0.00429712 0)
(0.0807349 0.00421663 0)
(0.0811587 0.00413002 0)
(0.0815601 0.00403767 0)
(0.0819394 0.00394002 0)
(0.0822967 0.00383749 0)
(0.0826323 0.00373054 0)
(0.0829466 0.00361966 0)
(0.0832398 0.0035053 0)
(0.0835124 0.00338795 0)
(0.0837647 0.00326811 0)
(0.0839973 0.00314624 0)
(0.0842106 0.00302282 0)
(0.0844052 0.00289831 0)
(0.0845815 0.00277317 0)
(0.0847402 0.00264782 0)
(0.0848818 0.0025227 0)
(0.0850068 0.00239818 0)
(0.0851159 0.00227466 0)
(0.0852097 0.00215248 0)
(0.0852886 0.00203198 0)
(0.0853534 0.00191345 0)
(0.0854046 0.00179719 0)
(0.0854428 0.00168344 0)
(0.0854685 0.00157243 0)
(0.0854824 0.00146438 0)
(0.085485 0.00135945 0)
(0.0854767 0.00125781 0)
(0.0854583 0.00115958 0)
(0.0854302 0.00106488 0)
(0.0853929 0.000973801 0)
(0.0853469 0.000886398 0)
(0.0852927 0.000802725 0)
(0.0852309 0.00072281 0)
(0.0851618 0.000646664 0)
(0.0850859 0.000574283 0)
(0.0850037 0.000505648 0)
(0.0849156 0.000440723 0)
(0.084822 0.000379466 0)
(0.0847233 0.000321812 0)
(0.0846199 0.000267703 0)
(0.0845121 0.000217046 0)
(0.0844003 0.000169778 0)
(0.0842849 0.00012577 0)
(0.0841663 8.49739e-05 0)
(0.0840445 4.72116e-05 0)
(0.0839202 1.24717e-05 0)
(0.0837934 -1.94928e-05 0)
(0.0836645 -4.86246e-05 0)
(0.0835337 -7.5267e-05 0)
(0.0834015 -9.92643e-05 0)
(0.0832677 -0.00012107 0)
(0.0831329 -0.000140434 0)
(0.0829973 -0.000157868 0)
(0.0828604 -0.000173144 0)
(0.0827244 -0.000186615 0)
(0.0825853 -0.0001984 0)
(0.0824511 -0.000208269 0)
(0.082308 -0.000217075 0)
(0.0821803 -0.000223914 0)
(0.0820285 -0.000229549 0)
(0.0819135 -0.000234855 0)
(0.0817463 -0.000238666 0)
(0.0816584 -0.000240678 0)
(0.0814554 -0.000244142 0)
(0.026774 -0.000826573 0)
(0.0265142 -0.000689318 0)
(0.0263334 -0.000558868 0)
(0.026228 -0.00043404 0)
(0.0261909 -0.000314224 0)
(0.0262184 -0.000198281 0)
(0.0263054 -8.5876e-05 0)
(0.0264482 2.38743e-05 0)
(0.0266431 0.000131219 0)
(0.0268869 0.000236796 0)
(0.0271765 0.000340815 0)
(0.0275092 0.000443729 0)
(0.0278825 0.000545712 0)
(0.028294 0.000647084 0)
(0.0287416 0.000747986 0)
(0.0292233 0.000848641 0)
(0.0297372 0.000949154 0)
(0.0302817 0.00104968 0)
(0.0308551 0.00115029 0)
(0.0314559 0.00125107 0)
(0.0320826 0.00135206 0)
(0.0327339 0.00145331 0)
(0.0334085 0.00155482 0)
(0.0341052 0.00165659 0)
(0.0348226 0.00175857 0)
(0.0355597 0.00186073 0)
(0.0363152 0.00196299 0)
(0.0370881 0.00206525 0)
(0.0378772 0.00216739 0)
(0.0386813 0.00226929 0)
(0.0394994 0.00237076 0)
(0.0403303 0.00247164 0)
(0.0411728 0.00257171 0)
(0.0420258 0.00267075 0)
(0.0428882 0.00276849 0)
(0.0437587 0.00286468 0)
(0.0446361 0.00295901 0)
(0.0455191 0.00305119 0)
(0.0464066 0.00314088 0)
(0.0472973 0.00322775 0)
(0.0481898 0.00331144 0)
(0.0490829 0.00339162 0)
(0.0499752 0.0034679 0)
(0.0508655 0.00353994 0)
(0.0517523 0.00360737 0)
(0.0526344 0.00366985 0)
(0.0535105 0.00372704 0)
(0.0543792 0.0037786 0)
(0.0552393 0.00382424 0)
(0.0560895 0.00386367 0)
(0.0569286 0.00389664 0)
(0.0577553 0.00392292 0)
(0.0585686 0.00394233 0)
(0.0593673 0.0039547 0)
(0.0601503 0.00395993 0)
(0.0609167 0.00395794 0)
(0.0616655 0.0039487 0)
(0.0623959 0.00393223 0)
(0.063107 0.00390856 0)
(0.0637981 0.00387781 0)
(0.0644685 0.00384012 0)
(0.0651178 0.00379567 0)
(0.0657452 0.00374467 0)
(0.0663505 0.00368739 0)
(0.0669333 0.00362411 0)
(0.0674933 0.00355517 0)
(0.0680302 0.0034809 0)
(0.068544 0.00340169 0)
(0.0690346 0.00331792 0)
(0.069502 0.00323001 0)
(0.0699462 0.00313839 0)
(0.0703675 0.00304347 0)
(0.0707659 0.0029457 0)
(0.0711418 0.00284552 0)
(0.0714954 0.00274335 0)
(0.0718271 0.00263964 0)
(0.0721372 0.00253478 0)
(0.0724262 0.00242921 0)
(0.0726945 0.0023233 0)
(0.0729427 0.00221744 0)
(0.0731712 0.00211199 0)
(0.0733806 0.00200728 0)
(0.0735714 0.00190365 0)
(0.0737443 0.00180139 0)
(0.0738997 0.00170076 0)
(0.0740385 0.00160204 0)
(0.074161 0.00150544 0)
(0.074268 0.00141117 0)
(0.0743601 0.00131942 0)
(0.0744379 0.00123035 0)
(0.0745021 0.00114409 0)
(0.0745532 0.00106077 0)
(0.0745918 0.000980474 0)
(0.0746187 0.000903291 0)
(0.0746343 0.000829275 0)
(0.0746393 0.000758467 0)
(0.0746343 0.000690892 0)
(0.0746198 0.000626558 0)
(0.0745965 0.000565459 0)
(0.0745647 0.000507574 0)
(0.0745252 0.000452876 0)
(0.0744784 0.000401315 0)
(0.0744247 0.000352847 0)
(0.0743648 0.000307396 0)
(0.0742991 0.000264914 0)
(0.0742279 0.000225285 0)
(0.0741519 0.000188484 0)
(0.0740713 0.000154333 0)
(0.0739867 0.000122869 0)
(0.0738984 9.37991e-05 0)
(0.0738066 6.73059e-05 0)
(0.073712 4.28722e-05 0)
(0.0736146 2.09885e-05 0)
(0.0735151 6.92354e-07 0)
(0.0734131 -1.69132e-05 0)
(0.0733103 -3.36355e-05 0)
(0.0732046 -4.72422e-05 0)
(0.0730999 -6.1009e-05 0)
(0.0729908 -7.08997e-05 0)
(0.0728862 -8.22186e-05 0)
(0.072773 -8.90646e-05 0)
(0.072672 -9.76334e-05 0)
(0.0725518 -0.000103574 0)
(0.072461 -0.000107632 0)
(0.0723264 -0.00011449 0)
(0.0722572 -0.000114442 0)
(0.072095 -0.000122293 0)
(0.0125987 -0.00062558 0)
(0.0124588 -0.000553641 0)
(0.0123708 -0.000483655 0)
(0.012332 -0.000415954 0)
(0.0123391 -0.000349661 0)
(0.0123901 -0.000284341 0)
(0.0124824 -0.000219687 0)
(0.0126143 -0.000155205 0)
(0.0127836 -9.07465e-05 0)
(0.012989 -2.59266e-05 0)
(0.0132287 3.93522e-05 0)
(0.0135016 0.000105358 0)
(0.0138062 0.000172161 0)
(0.0141415 0.000239939 0)
(0.0145064 0.00030874 0)
(0.0148999 0.000378677 0)
(0.0153211 0.000449777 0)
(0.0157691 0.000522105 0)
(0.0162431 0.000595671 0)
(0.0167425 0.000670505 0)
(0.0172663 0.000746596 0)
(0.0178139 0.000823942 0)
(0.0183847 0.000902514 0)
(0.0189778 0.000982282 0)
(0.0195928 0.00106319 0)
(0.0202288 0.00114518 0)
(0.0208853 0.00122818 0)
(0.0215615 0.00131208 0)
(0.0222567 0.00139678 0)
(0.0229701 0.00148216 0)
(0.0237012 0.00156806 0)
(0.024449 0.00165433 0)
(0.0252127 0.00174077 0)
(0.0259915 0.00182721 0)
(0.0267845 0.0019134 0)
(0.0275908 0.00199911 0)
(0.0284095 0.00208409 0)
(0.0292394 0.00216806 0)
(0.0300795 0.00225072 0)
(0.0309288 0.00233178 0)
(0.0317861 0.00241092 0)
(0.0326502 0.0024878 0)
(0.03352 0.0025621 0)
(0.034394 0.00263347 0)
(0.0352712 0.00270157 0)
(0.0361502 0.00276606 0)
(0.0370296 0.00282661 0)
(0.0379081 0.00288289 0)
(0.0387844 0.0029346 0)
(0.0396571 0.00298143 0)
(0.0405248 0.00302312 0)
(0.0413863 0.00305941 0)
(0.0422402 0.00309009 0)
(0.0430852 0.00311495 0)
(0.04392 0.00313385 0)
(0.0447434 0.00314666 0)
(0.0455543 0.00315329 0)
(0.0463514 0.00315369 0)
(0.0471337 0.00314786 0)
(0.0479001 0.00313582 0)
(0.0486497 0.00311765 0)
(0.0493816 0.00309345 0)
(0.0500949 0.00306336 0)
(0.0507889 0.00302758 0)
(0.0514629 0.00298631 0)
(0.0521163 0.00293979 0)
(0.0527486 0.0028883 0)
(0.0533593 0.00283214 0)
(0.0539481 0.00277161 0)
(0.0545146 0.00270707 0)
(0.0550586 0.00263887 0)
(0.0555801 0.00256735 0)
(0.0560788 0.0024929 0)
(0.0565549 0.00241589 0)
(0.0570083 0.00233669 0)
(0.0574393 0.00225569 0)
(0.0578479 0.00217324 0)
(0.0582345 0.0020897 0)
(0.0585993 0.00200544 0)
(0.0589427 0.00192078 0)
(0.059265 0.00183606 0)
(0.0595668 0.00175158 0)
(0.0598483 0.00166762 0)
(0.0601102 0.00158448 0)
(0.060353 0.0015024 0)
(0.0605773 0.00142161 0)
(0.0607835 0.00134233 0)
(0.0609723 0.00126475 0)
(0.0611444 0.00118906 0)
(0.0613002 0.0011154 0)
(0.0614405 0.00104392 0)
(0.0615659 0.000974719 0)
(0.061677 0.000907906 0)
(0.0617745 0.000843559 0)
(0.061859 0.000781742 0)
(0.0619311 0.000722502 0)
(0.0619915 0.000665873 0)
(0.0620408 0.000611873 0)
(0.0620796 0.000560508 0)
(0.0621085 0.000511769 0)
(0.062128 0.00046564 0)
(0.0621389 0.00042209 0)
(0.0621415 0.000381087 0)
(0.0621366 0.000342574 0)
(0.0621245 0.000306513 0)
(0.0621058 0.000272822 0)
(0.0620811 0.000241464 0)
(0.0620508 0.000212328 0)
(0.0620153 0.000185389 0)
(0.0619751 0.000160502 0)
(0.0619306 0.000137665 0)
(0.0618822 0.000116701 0)
(0.0618303 9.76138e-05 0)
(0.0617754 8.02452e-05 0)
(0.0617174 6.45169e-05 0)
(0.0616575 5.04424e-05 0)
(0.0615944 3.76184e-05 0)
(0.0615312 2.66054e-05 0)
(0.0614635 1.61285e-05 0)
(0.0613993 8.05465e-06 0)
(0.0613265 -7.85668e-07 0)
(0.061264 -5.88315e-06 0)
(0.0611846 -1.41178e-05 0)
(0.0611278 -1.58489e-05 0)
(0.0610387 -2.54076e-05 0)
(0.0609939 -2.3269e-05 0)
(0.0608889 -3.42636e-05 0)
(0.0030027 -0.000492036 0)
(0.00289043 -0.000462332 0)
(0.00280913 -0.000432776 0)
(0.00275844 -0.000403058 0)
(0.00273621 -0.000372956 0)
(0.00274217 -0.000342118 0)
(0.00277486 -0.000310467 0)
(0.00283397 -0.000277718 0)
(0.00291855 -0.000243841 0)
(0.00302831 -0.000208632 0)
(0.00316262 -0.000172074 0)
(0.00332122 -0.000134032 0)
(0.00350368 -9.44923e-05 0)
(0.00370978 -5.33684e-05 0)
(0.00393922 -1.06529e-05 0)
(0.00419181 3.37076e-05 0)
(0.00446732 7.97146e-05 0)
(0.0047656 0.000127397 0)
(0.00508645 0.00017675 0)
(0.00542971 0.000227783 0)
(0.00579523 0.000280481 0)
(0.00618283 0.000334839 0)
(0.00659234 0.00039083 0)
(0.00702358 0.000448431 0)
(0.00747636 0.0005076 0)
(0.00795045 0.000568295 0)
(0.00844562 0.000630456 0)
(0.00896161 0.000694018 0)
(0.0094981 0.000758899 0)
(0.0100548 0.000825006 0)
(0.0106313 0.000892231 0)
(0.0112272 0.000960451 0)
(0.011842 0.00102953 0)
(0.0124753 0.0010993 0)
(0.0131264 0.00116961 0)
(0.0137948 0.00124025 0)
(0.0144798 0.00131102 0)
(0.0151806 0.0013817 0)
(0.0158966 0.00145205 0)
(0.0166268 0.00152182 0)
(0.0173703 0.00159073 0)
(0.0181262 0.00165851 0)
(0.0188934 0.00172486 0)
(0.019671 0.00178949 0)
(0.0204577 0.0018521 0)
(0.0212524 0.00191237 0)
(0.0220539 0.00197002 0)
(0.022861 0.00202473 0)
(0.0236723 0.00207621 0)
(0.0244865 0.00212419 0)
(0.0253024 0.00216839 0)
(0.0261184 0.00220856 0)
(0.0269334 0.00224447 0)
(0.0277459 0.00227592 0)
(0.0285546 0.00230272 0)
(0.0293581 0.00232473 0)
(0.0301551 0.00234182 0)
(0.0309443 0.0023539 0)
(0.0317245 0.00236092 0)
(0.0324944 0.00236284 0)
(0.0332528 0.00235969 0)
(0.0339987 0.00235151 0)
(0.0347309 0.00233837 0)
(0.0354485 0.00232038 0)
(0.0361506 0.00229769 0)
(0.0368362 0.00227046 0)
(0.0375046 0.00223888 0)
(0.038155 0.00220318 0)
(0.0387869 0.00216358 0)
(0.0393996 0.00212036 0)
(0.0399927 0.00207378 0)
(0.0405658 0.00202413 0)
(0.0411185 0.0019717 0)
(0.0416506 0.00191679 0)
(0.042162 0.00185971 0)
(0.0426525 0.00180077 0)
(0.0431221 0.00174027 0)
(0.0435707 0.0016785 0)
(0.0439987 0.00161577 0)
(0.0444059 0.00155235 0)
(0.0447928 0.00148853 0)
(0.0451595 0.00142456 0)
(0.0455064 0.0013607 0)
(0.0458338 0.00129718 0)
(0.0461421 0.00123422 0)
(0.0464318 0.00117204 0)
(0.0467033 0.00111081 0)
(0.0469571 0.00105071 0)
(0.0471938 0.000991907 0)
(0.0474138 0.00093453 0)
(0.0476177 0.000878706 0)
(0.0478062 0.000824545 0)
(0.0479798 0.000772138 0)
(0.048139 0.000721563 0)
(0.0482845 0.000672886 0)
(0.0484169 0.000626155 0)
(0.0485369 0.000581408 0)
(0.0486448 0.00053867 0)
(0.0487415 0.000497956 0)
(0.0488275 0.000459267 0)
(0.0489033 0.000422599 0)
(0.0489695 0.000387933 0)
(0.0490267 0.000355252 0)
(0.0490754 0.000324514 0)
(0.0491162 0.000295699 0)
(0.0491496 0.000268735 0)
(0.049176 0.000243616 0)
(0.0491961 0.000220227 0)
(0.0492102 0.000198598 0)
(0.0492188 0.000178544 0)
(0.0492223 0.000160175 0)
(0.0492213 0.000143187 0)
(0.0492158 0.00012783 0)
(0.0492068 0.00011362 0)
(0.0491938 0.000101007 0)
(0.0491784 8.92909e-05 0)
(0.0491591 7.91037e-05 0)
(0.0491389 6.96714e-05 0)
(0.0491141 6.14209e-05 0)
(0.0490906 5.43123e-05 0)
(0.049061 4.70714e-05 0)
(0.0490361 4.2877e-05 0)
(0.0490015 3.49734e-05 0)
(0.0489772 3.47691e-05 0)
(0.0489372 2.45055e-05 0)
(0.0489152 2.80391e-05 0)
(0.0488698 1.59478e-05 0)
(-0.00283771 -0.000366861 0)
(-0.00296179 -0.000359487 0)
(-0.00307009 -0.000351283 0)
(-0.0031624 -0.000342641 0)
(-0.00323935 -0.000333118 0)
(-0.00330064 -0.000322719 0)
(-0.00334659 -0.000311286 0)
(-0.0033769 -0.000298709 0)
(-0.00339165 -0.000284932 0)
(-0.00339053 -0.00026984 0)
(-0.00337347 -0.00025341 0)
(-0.00334016 -0.000235552 0)
(-0.00329042 -0.000216255 0)
(-0.00322394 -0.000195457 0)
(-0.00314048 -0.000173149 0)
(-0.00303974 -0.000149293 0)
(-0.00292145 -0.000123885 0)
(-0.0027853 -9.69008e-05 0)
(-0.00263104 -6.83395e-05 0)
(-0.00245836 -3.81888e-05 0)
(-0.00226701 -6.45274e-06 0)
(-0.00205672 2.68717e-05 0)
(-0.00182726 6.17747e-05 0)
(-0.00157839 9.82492e-05 0)
(-0.00130991 0.000136277 0)
(-0.00102164 0.00017584 0)
(-0.000713421 0.000216908 0)
(-0.000385133 0.000259447 0)
(-3.66871e-05 0.000303413 0)
(0.00033197 0.000348754 0)
(0.000720847 0.000395404 0)
(0.00112991 0.00044329 0)
(0.00155907 0.000492323 0)
(0.0020082 0.000542403 0)
(0.00247709 0.000593415 0)
(0.0029655 0.000645229 0)
(0.00347312 0.000697703 0)
(0.00399956 0.000750676 0)
(0.00454437 0.000803976 0)
(0.00510705 0.000857415 0)
(0.00568701 0.000910792 0)
(0.00628358 0.000963893 0)
(0.00689606 0.00101649 0)
(0.00752363 0.00106836 0)
(0.00816544 0.00111925 0)
(0.00882056 0.00116891 0)
(0.00948799 0.0012171 0)
(0.0101667 0.00126356 0)
(0.0108555 0.00130804 0)
(0.0115533 0.0013503 0)
(0.0122589 0.00139011 0)
(0.012971 0.00142724 0)
(0.0136883 0.00146147 0)
(0.0144096 0.00149262 0)
(0.0151335 0.00152049 0)
(0.0158587 0.00154495 0)
(0.0165838 0.00156584 0)
(0.0173074 0.00158308 0)
(0.0180283 0.00159656 0)
(0.0187452 0.00160623 0)
(0.0194567 0.00161207 0)
(0.0201616 0.00161407 0)
(0.0208587 0.00161226 0)
(0.0215468 0.00160668 0)
(0.0222248 0.00159741 0)
(0.0228917 0.00158456 0)
(0.0235465 0.00156824 0)
(0.0241881 0.00154861 0)
(0.0248159 0.00152581 0)
(0.0254289 0.00150005 0)
(0.0260264 0.0014715 0)
(0.0266079 0.00144038 0)
(0.0271728 0.0014069 0)
(0.0277205 0.00137129 0)
(0.0282506 0.00133377 0)
(0.0287629 0.00129458 0)
(0.0292571 0.00125395 0)
(0.0297329 0.00121211 0)
(0.0301902 0.00116929 0)
(0.030629 0.0011257 0)
(0.0310493 0.00108158 0)
(0.0314512 0.00103711 0)
(0.0318347 0.000992513 0)
(0.0322001 0.000947964 0)
(0.0325475 0.000903643 0)
(0.0328773 0.000859718 0)
(0.0331897 0.000816341 0)
(0.0334851 0.000773653 0)
(0.033764 0.000731784 0)
(0.0340266 0.000690849 0)
(0.0342735 0.000650951 0)
(0.034505 0.000612182 0)
(0.0347218 0.00057462 0)
(0.0349243 0.000538332 0)
(0.035113 0.000503373 0)
(0.0352884 0.00046979 0)
(0.0354511 0.000437615 0)
(0.0356017 0.000406875 0)
(0.0357406 0.000377584 0)
(0.0358684 0.000349749 0)
(0.0359856 0.000323371 0)
(0.0360929 0.00029844 0)
(0.0361906 0.000274945 0)
(0.0362794 0.000252859 0)
(0.0363598 0.000232165 0)
(0.0364323 0.000212822 0)
(0.0364973 0.000194807 0)
(0.0365554 0.000178066 0)
(0.036607 0.000162575 0)
(0.0366526 0.000148273 0)
(0.0366926 0.000135121 0)
(0.0367275 0.000123081 0)
(0.0367576 0.000112054 0)
(0.0367834 0.000102106 0)
(0.0368051 9.29468e-05 0)
(0.0368234 8.49597e-05 0)
(0.036838 7.7332e-05 0)
(0.0368503 7.12612e-05 0)
(0.036859 6.46916e-05 0)
(0.0368666 6.06527e-05 0)
(0.0368703 5.44234e-05 0)
(0.0368742 5.2784e-05 0)
(0.0368744 4.5789e-05 0)
(0.0368745 4.71579e-05 0)
(0.0368734 3.80324e-05 0)
(0.0368682 4.21796e-05 0)
(0.0368693 3.17275e-05 0)
(-0.00551024 -0.000227947 0)
(-0.00564356 -0.000230648 0)
(-0.00577175 -0.000232823 0)
(-0.005894 -0.000234377 0)
(-0.00601068 -0.000235265 0)
(-0.00612098 -0.00023536 0)
(-0.00622499 -0.000234667 0)
(-0.00632198 -0.000233082 0)
(-0.00641178 -0.000230615 0)
(-0.00649374 -0.000227192 0)
(-0.00656753 -0.000222818 0)
(-0.00663253 -0.00021744 0)
(-0.0066883 -0.000211059 0)
(-0.00673426 -0.000203636 0)
(-0.00676991 -0.000195168 0)
(-0.00679468 -0.000185626 0)
(-0.00680804 -0.000175002 0)
(-0.00680943 -0.000163274 0)
(-0.00679833 -0.000150432 0)
(-0.00677416 -0.000136457 0)
(-0.00673642 -0.000121339 0)
(-0.00668455 -0.000105063 0)
(-0.00661805 -8.76183e-05 0)
(-0.0065364 -6.89946e-05 0)
(-0.0064391 -4.91854e-05 0)
(-0.00632568 -2.81848e-05 0)
(-0.00619566 -5.99273e-06 0)
(-0.00604861 1.73888e-05 0)
(-0.00588412 4.19505e-05 0)
(-0.00570178 6.76791e-05 0)
(-0.00550126 9.45526e-05 0)
(-0.00528223 0.000122543 0)
(-0.00504441 0.000151611 0)
(-0.00478758 0.000181712 0)
(-0.00451153 0.000212786 0)
(-0.00421616 0.000244765 0)
(-0.00390138 0.00027757 0)
(-0.00356719 0.000311109 0)
(-0.00321364 0.000345278 0)
(-0.00284086 0.00037996 0)
(-0.00244906 0.000415028 0)
(-0.0020385 0.000450342 0)
(-0.00160955 0.000485754 0)
(-0.00116263 0.000521102 0)
(-0.000698271 0.00055622 0)
(-0.000217057 0.000590932 0)
(0.000280333 0.000625057 0)
(0.000793143 0.000658413 0)
(0.00132054 0.000690812 0)
(0.00186163 0.000722071 0)
(0.00241542 0.000752007 0)
(0.00298089 0.000780443 0)
(0.00355694 0.000807209 0)
(0.0041424 0.000832144 0)
(0.0047361 0.000855099 0)
(0.00533678 0.000875939 0)
(0.00594318 0.000894541 0)
(0.00655401 0.000910803 0)
(0.00716796 0.000924638 0)
(0.00778371 0.000935977 0)
(0.00839995 0.000944773 0)
(0.00901537 0.000950996 0)
(0.00962868 0.00095464 0)
(0.0102386 0.000955714 0)
(0.0108439 0.00095425 0)
(0.0114435 0.000950296 0)
(0.0120361 0.00094392 0)
(0.0126206 0.000935205 0)
(0.0131961 0.000924249 0)
(0.0137615 0.000911165 0)
(0.014316 0.000896075 0)
(0.0148586 0.000879116 0)
(0.0153887 0.000860429 0)
(0.0159055 0.000840165 0)
(0.0164083 0.000818478 0)
(0.0168967 0.000795527 0)
(0.0173702 0.00077147 0)
(0.0178283 0.000746469 0)
(0.0182708 0.000720681 0)
(0.0186973 0.000694263 0)
(0.0191078 0.000667366 0)
(0.019502 0.000640138 0)
(0.0198799 0.000612718 0)
(0.0202415 0.000585242 0)
(0.0205869 0.000557835 0)
(0.0209163 0.000530615 0)
(0.0212297 0.000503692 0)
(0.0215274 0.000477168 0)
(0.0218097 0.000451133 0)
(0.0220768 0.000425671 0)
(0.0223291 0.000400855 0)
(0.0225671 0.000376751 0)
(0.022791 0.000353414 0)
(0.0230013 0.000330891 0)
(0.0231984 0.000309221 0)
(0.0233829 0.000288437 0)
(0.0235552 0.000268562 0)
(0.0237157 0.000249612 0)
(0.0238651 0.000231599 0)
(0.0240038 0.000214526 0)
(0.0241322 0.000198394 0)
(0.0242511 0.000183192 0)
(0.0243607 0.000168915 0)
(0.0244617 0.00015554 0)
(0.0245545 0.000143061 0)
(0.0246397 0.000131436 0)
(0.0247177 0.000120668 0)
(0.024789 0.000110691 0)
(0.024854 0.000101527 0)
(0.0249133 9.30781e-05 0)
(0.0249671 8.53976e-05 0)
(0.0250161 7.83437e-05 0)
(0.0250604 7.20101e-05 0)
(0.0251006 6.6221e-05 0)
(0.0251369 6.10738e-05 0)
(0.0251699 5.64447e-05 0)
(0.0251996 5.22662e-05 0)
(0.0252266 4.87715e-05 0)
(0.0252511 4.52101e-05 0)
(0.025273 4.30014e-05 0)
(0.0252937 3.94455e-05 0)
(0.0253108 3.89565e-05 0)
(0.0253298 3.4469e-05 0)
(0.0253412 3.626e-05 0)
(0.0253615 3.00169e-05 0)
(0.0253642 3.36373e-05 0)
(0.0253904 2.66513e-05 0)
(-0.00534846 -9.39305e-05 0)
(-0.00546058 -9.7317e-05 0)
(-0.00557375 -0.000100308 0)
(-0.00568723 -0.000103143 0)
(-0.00580111 -0.000105648 0)
(-0.0059147 -0.000107905 0)
(-0.00602791 -0.000109841 0)
(-0.00614009 -0.000111466 0)
(-0.00625102 -0.00011275 0)
(-0.0063601 -0.000113678 0)
(-0.00646699 -0.000114233 0)
(-0.00657112 -0.000114395 0)
(-0.00667208 -0.000114154 0)
(-0.00676932 -0.000113487 0)
(-0.00686237 -0.000112387 0)
(-0.00695067 -0.000110835 0)
(-0.00703373 -0.000108821 0)
(-0.00711099 -0.000106328 0)
(-0.00718193 -0.000103347 0)
(-0.00724598 -9.98607e-05 0)
(-0.0073026 -9.58579e-05 0)
(-0.00735122 -9.13232e-05 0)
(-0.00739129 -8.62439e-05 0)
(-0.00742223 -8.0605e-05 0)
(-0.00744348 -7.43933e-05 0)
(-0.00745446 -6.75948e-05 0)
(-0.0074546 -6.01974e-05 0)
(-0.00744334 -5.21887e-05 0)
(-0.00742011 -4.35594e-05 0)
(-0.00738437 -3.43008e-05 0)
(-0.00733557 -2.44081e-05 0)
(-0.00727318 -1.38788e-05 0)
(-0.0071967 -2.7147e-06 0)
(-0.00710566 9.07814e-06 0)
(-0.00699958 2.14884e-05 0)
(-0.00687806 3.44993e-05 0)
(-0.00674072 4.80876e-05 0)
(-0.00658721 6.22238e-05 0)
(-0.00641725 7.68708e-05 0)
(-0.00623062 9.19846e-05 0)
(-0.00602714 0.000107513 0)
(-0.0058067 0.000123398 0)
(-0.00556929 0.000139571 0)
(-0.00531493 0.00015596 0)
(-0.00504375 0.000172484 0)
(-0.00475596 0.000189057 0)
(-0.00445183 0.000205587 0)
(-0.00413174 0.000221978 0)
(-0.00379615 0.000238131 0)
(-0.00344561 0.000253945 0)
(-0.00308073 0.000269318 0)
(-0.00270223 0.00028415 0)
(-0.00231089 0.000298341 0)
(-0.00190758 0.000311796 0)
(-0.00149323 0.000324422 0)
(-0.00106882 0.000336136 0)
(-0.000635414 0.000346859 0)
(-0.000194098 0.000356522 0)
(0.000253986 0.000365065 0)
(0.000707671 0.000372436 0)
(0.00116576 0.000378596 0)
(0.00162705 0.000383517 0)
(0.00209033 0.000387181 0)
(0.00255439 0.000389582 0)
(0.00301803 0.000390723 0)
(0.00348007 0.000390623 0)
(0.00393937 0.000389306 0)
(0.00439482 0.000386808 0)
(0.00484535 0.000383176 0)
(0.00528994 0.000378461 0)
(0.00572763 0.000372725 0)
(0.0061575 0.000366034 0)
(0.00657874 0.000358462 0)
(0.00699056 0.000350083 0)
(0.00739225 0.000340978 0)
(0.00778321 0.000331229 0)
(0.00816286 0.000320919 0)
(0.00853072 0.00031013 0)
(0.0088864 0.000298945 0)
(0.00922954 0.000287445 0)
(0.00955989 0.000275709 0)
(0.00987726 0.000263812 0)
(0.0101815 0.000251827 0)
(0.0104726 0.000239821 0)
(0.0107505 0.000227858 0)
(0.0110152 0.000215999 0)
(0.011267 0.000204297 0)
(0.0115058 0.000192801 0)
(0.011732 0.000181556 0)
(0.0119458 0.000170601 0)
(0.0121475 0.000159969 0)
(0.0123373 0.000149691 0)
(0.0125157 0.000139791 0)
(0.012683 0.000130288 0)
(0.0128396 0.000121198 0)
(0.0129858 0.000112533 0)
(0.0131222 0.0001043 0)
(0.0132492 9.65037e-05 0)
(0.0133672 8.91448e-05 0)
(0.0134766 8.22217e-05 0)
(0.0135779 7.57296e-05 0)
(0.0136716 6.96621e-05 0)
(0.0137581 6.40097e-05 0)
(0.0138378 5.87626e-05 0)