/*--------------------------------*- C++ -*----------------------------------*\
| =========                 |                                                 |
| \\      /  F ield         | OpenFOAM: The Open Source CFD Toolbox           |
|  \\    /   O peration     | Version:  4.1                                   |
|   \\  /    A nd           | Web:      www.OpenFOAM.org                      |
|    \\/     M anipulation  |                                                 |
\*---------------------------------------------------------------------------*/
FoamFile
{
    version     2.0;
    format      ascii;
    class       volVectorField;
    location    "1470";
    object      U;
}
// * * * * * * * * * * * * * * * * * * * * * * * * * * * * * * * * * * * * * //

dimensions      [0 1 -1 0 0 0 0];

internalField   nonuniform List<vector> 
1275
(
(0.0887083 -0.0017696 0)
(0.0886738 -0.00178107 0)
(0.0886267 -0.00176291 0)
(0.0885937 -0.00177897 0)
(0.0885421 -0.00175911 0)
(0.0764417 0.00221379 0)
(0.0768982 0.00241235 0)
(0.0773919 0.00260248 0)
(0.077918 0.00278956 0)
(0.0784743 0.00297175 0)
(0.0790572 0.00315146 0)
(0.0796647 0.0033283 0)
(0.0802937 0.00350362 0)
(0.0809424 0.00367747 0)
(0.0816085 0.00385071 0)
(0.08229 0.0040235 0)
(0.0829851 0.00419639 0)
(0.0836921 0.00436953 0)
(0.0844091 0.00454326 0)
(0.0851347 0.00471765 0)
(0.0858672 0.00489287 0)
(0.086605 0.00506888 0)
(0.0873465 0.00524567 0)
(0.0880901 0.00542308 0)
(0.0888342 0.00560094 0)
(0.0895772 0.00577895 0)
(0.0903174 0.00595678 0)
(0.0910531 0.00613398 0)
(0.0917825 0.00631006 0)
(0.0925039 0.00648443 0)
(0.0932155 0.00665642 0)
(0.0939153 0.00682532 0)
(0.0946015 0.00699033 0)
(0.0952722 0.00715058 0)
(0.0959256 0.00730518 0)
(0.0965596 0.00745316 0)
(0.0971726 0.00759353 0)
(0.0977626 0.00772527 0)
(0.0983279 0.00784734 0)
(0.0988669 0.00795872 0)
(0.0993778 0.00805838 0)
(0.0998594 0.00814534 0)
(0.10031 0.00821865 0)
(0.100729 0.00827742 0)
(0.101115 0.00832085 0)
(0.101468 0.00834822 0)
(0.101786 0.00835892 0)
(0.102069 0.00835245 0)
(0.102317 0.00832843 0)
(0.10253 0.00828663 0)
(0.102709 0.00822697 0)
(0.102853 0.00814947 0)
(0.102964 0.00805435 0)
(0.103042 0.00794193 0)
(0.103088 0.0078127 0)
(0.103103 0.00766726 0)
(0.10309 0.00750635 0)
(0.103049 0.00733082 0)
(0.102982 0.00714161 0)
(0.102891 0.00693976 0)
(0.102777 0.00672637 0)
(0.102643 0.00650259 0)
(0.10249 0.00626963 0)
(0.102321 0.00602872 0)
(0.102136 0.00578109 0)
(0.101939 0.00552796 0)
(0.101731 0.00527056 0)
(0.101513 0.00501008 0)
(0.101288 0.00474764 0)
(0.101057 0.00448437 0)
(0.100821 0.00422128 0)
(0.100582 0.00395937 0)
(0.100342 0.00369955 0)
(0.100101 0.00344266 0)
(0.0998606 0.00318946 0)
(0.0996216 0.00294067 0)
(0.0993851 0.00269689 0)
(0.0991516 0.00245868 0)
(0.0989219 0.00222653 0)
(0.0986964 0.00200084 0)
(0.0984755 0.00178197 0)
(0.0982597 0.00157019 0)
(0.0980492 0.00136576 0)
(0.0978441 0.00116883 0)
(0.0976446 0.00097953 0)
(0.0974506 0.000797948 0)
(0.0972622 0.000624117 0)
(0.0970792 0.000458039 0)
(0.0969016 0.000299679 0)
(0.0967293 0.000148974 0)
(0.0965619 5.83337e-06 0)
(0.0963994 -0.000129858 0)
(0.0962414 -0.000258234 0)
(0.0960877 -0.000379446 0)
(0.0959382 -0.000493661 0)
(0.0957924 -0.000601058 0)
(0.0956502 -0.000701826 0)
(0.0955112 -0.000796161 0)
(0.0953752 -0.000884268 0)
(0.0952419 -0.000966354 0)
(0.0951111 -0.00104263 0)
(0.0949826 -0.00111332 0)
(0.094856 -0.00117863 0)
(0.0947311 -0.00123878 0)
(0.0946078 -0.00129401 0)
(0.0944858 -0.0013445 0)
(0.0943649 -0.00139051 0)
(0.0942451 -0.00143221 0)
(0.0941259 -0.0014699 0)
(0.0940075 -0.00150366 0)
(0.0938895 -0.00153393 0)
(0.0937721 -0.00156059 0)
(0.0936546 -0.00158434 0)
(0.0935378 -0.0016047 0)
(0.0934204 -0.00162287 0)
(0.093304 -0.00163766 0)
(0.093186 -0.00165125 0)
(0.0930703 -0.00166109 0)
(0.0929506 -0.00167118 0)
(0.0928369 -0.00167654 0)
(0.0927132 -0.00168435 0)
(0.0926046 -0.00168547 0)
(0.0924714 -0.00169236 0)
(0.0923766 -0.00168925 0)
(0.0922203 -0.00169657 0)
(0.0921601 -0.00168936 0)
(0.0919493 -0.00169739 0)
(0.0918741 -0.0016858 0)
(0.0917768 -0.00169813 0)
(0.0916293 -0.0016799 0)
(0.0915474 -0.0016941 0)
(0.0913722 -0.00167544 0)
(0.0551403 0.00168087 0)
(0.0557495 0.00183728 0)
(0.0563947 0.00199049 0)
(0.0570744 0.00214311 0)
(0.0577858 0.00229416 0)
(0.0585264 0.00244525 0)
(0.0592943 0.00259601 0)
(0.0600874 0.00274747 0)
(0.0609042 0.00289956 0)
(0.0617428 0.00305295 0)
(0.062602 0.00320768 0)
(0.0634802 0.0033642 0)
(0.0643763 0.0035226 0)
(0.0652888 0.00368313 0)
(0.0662166 0.00384585 0)
(0.0671586 0.00401089 0)
(0.0681134 0.00417821 0)
(0.0690799 0.00434781 0)
(0.0700569 0.00451957 0)
(0.0710429 0.00469334 0)
(0.0720368 0.00486887 0)
(0.073037 0.00504587 0)
(0.0740421 0.00522396 0)
(0.0750505 0.0054027 0)
(0.0760606 0.00558155 0)
(0.0770706 0.00575993 0)
(0.0780788 0.00593715 0)
(0.0790833 0.00611245 0)
(0.0800821 0.00628503 0)
(0.0810732 0.006454 0)
(0.0820546 0.00661841 0)
(0.0830241 0.00677726 0)
(0.0839797 0.00692951 0)
(0.0849191 0.0070741 0)
(0.0858403 0.00720992 0)
(0.0867411 0.00733588 0)
(0.0876195 0.00745091 0)
(0.0884735 0.00755392 0)
(0.0893013 0.00764392 0)
(0.090101 0.00771992 0)
(0.090871 0.00778105 0)
(0.0916098 0.0078265 0)
(0.092316 0.00785558 0)
(0.0929885 0.00786771 0)
(0.0936263 0.00786244 0)
(0.0942287 0.00783947 0)
(0.0947951 0.00779861 0)
(0.0953251 0.00773985 0)
(0.0958186 0.00766332 0)
(0.0962757 0.0075693 0)
(0.0966966 0.0074582 0)
(0.0970818 0.00733059 0)
(0.097432 0.00718715 0)
(0.0977478 0.00702868 0)
(0.0980304 0.00685611 0)
(0.0982807 0.00667043 0)
(0.0985001 0.00647272 0)
(0.0986897 0.00626413 0)
(0.0988511 0.00604584 0)
(0.0989856 0.00581907 0)
(0.0990947 0.00558505 0)
(0.09918 0.00534502 0)
(0.099243 0.0051002 0)
(0.0992851 0.00485178 0)
(0.099308 0.00460093 0)
(0.099313 0.00434875 0)
(0.0993016 0.00409632 0)
(0.099275 0.00384462 0)
(0.0992347 0.0035946 0)
(0.0991819 0.00334713 0)
(0.0991176 0.00310299 0)
(0.099043 0.0028629 0)
(0.0989591 0.00262753 0)
(0.0988668 0.00239744 0)
(0.098767 0.00217314 0)
(0.0986603 0.00195507 0)
(0.0985476 0.00174359 0)
(0.0984294 0.00153902 0)
(0.0983064 0.0013416 0)
(0.0981789 0.00115153 0)
(0.0980476 0.000968943 0)
(0.0979126 0.000793936 0)
(0.0977745 0.000626559 0)
(0.0976334 0.00046682 0)
(0.0974897 0.000314695 0)
(0.0973435 0.000170125 0)
(0.097195 3.30255e-05 0)
(0.0970445 -9.67154e-05 0)
(0.096892 -0.00021923 0)
(0.0967377 -0.00033467 0)
(0.0965817 -0.000443201 0)
(0.096424 -0.000545004 0)
(0.0962647 -0.000640271 0)
(0.096104 -0.000729202 0)
(0.0959418 -0.000812005 0)
(0.0957781 -0.000888893 0)
(0.0956132 -0.000960083 0)
(0.0954469 -0.0010258 0)
(0.0952794 -0.00108626 0)
(0.0951107 -0.0011417 0)
(0.0949408 -0.00119233 0)
(0.0947698 -0.0012384 0)
(0.0945976 -0.00128009 0)
(0.0944246 -0.00131771 0)
(0.0942504 -0.00135137 0)
(0.0940755 -0.00138144 0)
(0.0938995 -0.00140794 0)
(0.0937229 -0.0014314 0)
(0.0935453 -0.00145157 0)
(0.0933673 -0.00146937 0)
(0.0931881 -0.00148399 0)
(0.0930092 -0.00149712 0)
(0.0928284 -0.00150685 0)
(0.092649 -0.00151642 0)
(0.0924664 -0.00152171 0)
(0.0922873 -0.00152905 0)
(0.0921023 -0.00152992 0)
(0.0919247 -0.00153684 0)
(0.0917363 -0.00153258 0)
(0.0915616 -0.0015416 0)
(0.091369 -0.00153079 0)
(0.0911973 -0.00154389 0)
(0.0909993 -0.00152905 0)
(0.0908406 -0.00154103 0)
(0.0906197 -0.00152458 0)
(0.0904971 -0.00153692 0)
(0.0902241 -0.00152075 0)
(0.0357289 0.00103892 0)
(0.0363671 0.00115858 0)
(0.0370383 0.00127814 0)
(0.0377417 0.00139891 0)
(0.0384752 0.00152024 0)
(0.0392376 0.00164326 0)
(0.0400277 0.00176756 0)
(0.0408443 0.00189394 0)
(0.0416865 0.00202224 0)
(0.0425534 0.00215299 0)
(0.0434442 0.00228616 0)
(0.0443581 0.00242213 0)
(0.0452944 0.00256091 0)
(0.0462523 0.00270277 0)
(0.0472314 0.00284772 0)
(0.0482307 0.0029959 0)
(0.0492498 0.0031473 0)
(0.0502878 0.00330196 0)
(0.0513439 0.00345979 0)
(0.0524173 0.00362072 0)
(0.0535071 0.00378456 0)
(0.0546123 0.00395112 0)
(0.0557318 0.0041201 0)
(0.0568643 0.00429116 0)
(0.0580087 0.00446386 0)
(0.0591635 0.00463772 0)
(0.0603271 0.00481215 0)
(0.0614979 0.00498653 0)
(0.0626742 0.00516011 0)
(0.0638541 0.00533211 0)
(0.0650355 0.00550165 0)
(0.0662165 0.00566782 0)
(0.0673948 0.00582962 0)
(0.0685682 0.00598603 0)
(0.0697344 0.00613596 0)
(0.0708911 0.00627833 0)
(0.0720359 0.00641203 0)
(0.0731664 0.00653595 0)
(0.0742803 0.00664901 0)
(0.0753753 0.00675017 0)
(0.076449 0.00683842 0)
(0.0774994 0.00691284 0)
(0.0785243 0.00697258 0)
(0.0795219 0.00701692 0)
(0.0804901 0.00704522 0)
(0.0814275 0.00705698 0)
(0.0823325 0.00705183 0)
(0.0832038 0.00702955 0)
(0.0840403 0.00699006 0)
(0.084841 0.00693342 0)
(0.0856052 0.00685987 0)
(0.0863324 0.00676975 0)
(0.0870222 0.00666356 0)
(0.0876745 0.00654194 0)
(0.0882893 0.00640562 0)
(0.0888668 0.00625545 0)
(0.0894074 0.00609239 0)
(0.0899116 0.00591746 0)
(0.0903801 0.00573172 0)
(0.0908136 0.00553633 0)
(0.0912131 0.00533245 0)
(0.0915794 0.00512125 0)
(0.0919137 0.00490393 0)
(0.0922171 0.00468165 0)
(0.0924906 0.00445558 0)
(0.0927356 0.00422683 0)
(0.0929531 0.00399648 0)
(0.0931445 0.00376557 0)
(0.0933108 0.00353506 0)
(0.0934534 0.00330587 0)
(0.0935734 0.00307885 0)
(0.0936719 0.00285476 0)
(0.09375 0.00263431 0)
(0.0938089 0.00241815 0)
(0.0938496 0.00220683 0)
(0.0938731 0.00200086 0)
(0.0938803 0.00180066 0)
(0.0938721 0.0016066 0)
(0.0938495 0.00141899 0)
(0.0938132 0.00123806 0)
(0.093764 0.00106402 0)
(0.0937026 0.000896992 0)
(0.0936298 0.000737082 0)
(0.0935462 0.000584336 0)
(0.0934524 0.000438767 0)
(0.0933491 0.000300351 0)
(0.0932367 0.000169032 0)
(0.0931159 4.47266e-05 0)
(0.092987 -7.26723e-05 0)
(0.0928506 -0.000183294 0)
(0.0927071 -0.000287286 0)
(0.092557 -0.000384811 0)
(0.0924006 -0.000476046 0)
(0.0922383 -0.000561178 0)
(0.0920705 -0.000640402 0)
(0.0918976 -0.000713922 0)
(0.0917199 -0.000781946 0)
(0.0915377 -0.000844691 0)
(0.0913513 -0.000902365 0)
(0.091161 -0.0009552 0)
(0.0909671 -0.0010034 0)
(0.0907699 -0.00104721 0)
(0.0905696 -0.0010868 0)
(0.0903665 -0.00112248 0)
(0.0901609 -0.00115435 0)
(0.0899528 -0.00118279 0)
(0.0897428 -0.00120779 0)
(0.0895307 -0.00122989 0)
(0.089317 -0.00124885 0)
(0.0891016 -0.00126551 0)
(0.0888851 -0.00127922 0)
(0.0886671 -0.00129137 0)
(0.0884484 -0.00130054 0)
(0.0882284 -0.00130913 0)
(0.0880081 -0.00131436 0)
(0.0877869 -0.00132039 0)
(0.087565 -0.00132218 0)
(0.0873437 -0.00132673 0)
(0.0871193 -0.00132533 0)
(0.0869006 -0.00132961 0)
(0.0866705 -0.00132486 0)
(0.0864604 -0.00133051 0)
(0.0862171 -0.00132125 0)
(0.0860262 -0.00133048 0)
(0.0857555 -0.0013177 0)
(0.0856097 -0.00132738 0)
(0.0852737 -0.00131572 0)
(0.0200528 0.00044051 0)
(0.0205964 0.0005273 0)
(0.0211694 0.000615484 0)
(0.0217721 0.000705841 0)
(0.0224031 0.000797933 0)
(0.0230623 0.000892451 0)
(0.0237488 0.000989129 0)
(0.0244623 0.00108849 0)
(0.0252026 0.00119042 0)
(0.0259692 0.00129531 0)
(0.0267619 0.00140314 0)
(0.0275805 0.00151421 0)
(0.0284248 0.00162856 0)
(0.0292947 0.0017464 0)
(0.0301899 0.00186779 0)
(0.0311101 0.00199286 0)
(0.0320553 0.00212165 0)
(0.0330251 0.00225424 0)
(0.0340192 0.0023906 0)
(0.0350373 0.00253073 0)
(0.0360787 0.00267454 0)
(0.0371431 0.0028219 0)
(0.0382298 0.00297264 0)
(0.039338 0.00312652 0)
(0.0404668 0.00328323 0)
(0.0416152 0.0034424 0)
(0.0427822 0.00360359 0)
(0.0439664 0.00376628 0)
(0.0451665 0.00392987 0)
(0.0463809 0.00409371 0)
(0.0476078 0.00425704 0)
(0.0488456 0.00441905 0)
(0.0500922 0.00457887 0)
(0.0513455 0.00473556 0)
(0.0526034 0.00488813 0)
(0.0538636 0.00503554 0)
(0.0551237 0.00517674 0)
(0.0563812 0.00531067 0)
(0.0576336 0.00543623 0)
(0.0588784 0.00555238 0)
(0.0601131 0.00565808 0)
(0.061335 0.00575236 0)
(0.0625417 0.0058343 0)
(0.0637307 0.00590307 0)
(0.0648996 0.00595791 0)
(0.066046 0.0059982 0)
(0.0671679 0.00602341 0)
(0.068263 0.00603317 0)
(0.0693296 0.00602721 0)
(0.0703658 0.00600541 0)
(0.0713699 0.00596782 0)
(0.0723407 0.00591458 0)
(0.0732768 0.005846 0)
(0.0741771 0.00576252 0)
(0.0750409 0.00566469 0)
(0.0758673 0.00555316 0)
(0.076656 0.00542873 0)
(0.0774066 0.00529223 0)
(0.0781189 0.00514459 0)
(0.078793 0.00498682 0)
(0.0794289 0.00481995 0)
(0.0800271 0.00464505 0)
(0.080588 0.0044632 0)
(0.081112 0.00427549 0)
(0.0815999 0.004083 0)
(0.0820524 0.00388681 0)
(0.0824704 0.00368794 0)
(0.0828546 0.0034874 0)
(0.0832061 0.00328612 0)
(0.0835259 0.00308501 0)
(0.083815 0.00288491 0)
(0.0840744 0.0026866 0)
(0.0843052 0.0024908 0)
(0.0845085 0.00229817 0)
(0.0846854 0.00210928 0)
(0.0848369 0.00192466 0)
(0.0849642 0.00174477 0)
(0.0850683 0.00157001 0)
(0.0851501 0.00140071 0)
(0.0852109 0.00123716 0)
(0.0852514 0.00107958 0)
(0.0852728 0.00092814 0)
(0.085276 0.000782977 0)
(0.0852619 0.000644172 0)
(0.0852313 0.000511772 0)
(0.0851852 0.000385785 0)
(0.0851244 0.000266187 0)
(0.0850497 0.000152926 0)
(0.0849619 4.59237e-05 0)
(0.0848618 -5.4921e-05 0)
(0.08475 -0.000149729 0)
(0.0846273 -0.000238637 0)
(0.0844943 -0.000321797 0)
(0.0843517 -0.000399374 0)
(0.0842001 -0.00047154 0)
(0.0840402 -0.000538479 0)
(0.0838724 -0.000600378 0)
(0.0836974 -0.000657433 0)
(0.0835157 -0.000709837 0)
(0.0833277 -0.000757801 0)
(0.0831341 -0.000801509 0)
(0.0829351 -0.000841195 0)
(0.0827313 -0.000877017 0)
(0.0825231 -0.00090925 0)
(0.0823108 -0.000937993 0)
(0.082095 -0.000963607 0)
(0.0818758 -0.000986058 0)
(0.0816537 -0.0010059 0)
(0.081429 -0.00102281 0)
(0.0812019 -0.00103773 0)
(0.0809729 -0.00104979 0)
(0.0807419 -0.0010607 0)
(0.0805094 -0.0010685 0)
(0.0802756 -0.00107638 0)
(0.0800405 -0.00108034 0)
(0.0798049 -0.00108632 0)
(0.0795673 -0.00108663 0)
(0.0793314 -0.00109201 0)
(0.0790907 -0.00108864 0)
(0.078857 -0.00109479 0)
(0.0786104 -0.00108786 0)
(0.0783848 -0.00109541 0)
(0.0781245 -0.00108638 0)
(0.0779208 -0.00109424 0)
(0.0776283 -0.00108482 0)
(0.0774749 -0.00109187 0)
(0.0771119 -0.00108529 0)
(0.0082407 -1.60265e-05 0)
(0.00861875 4.22992e-05 0)
(0.00902277 0.000102698 0)
(0.00945309 0.00016545 0)
(0.00990931 0.000230346 0)
(0.0103917 0.000297812 0)
(0.0109 0.000367653 0)
(0.0114346 0.000440239 0)
(0.0119953 0.000515478 0)
(0.0125826 0.000593663 0)
(0.0131964 0.000674792 0)
(0.0138371 0.000759101 0)
(0.0145048 0.000846641 0)
(0.0151997 0.000937607 0)
(0.0159222 0.00103207 0)
(0.0166723 0.0011302 0)
(0.0174502 0.00123205 0)
(0.0182562 0.00133774 0)
(0.0190903 0.00144732 0)
(0.0199525 0.00156083 0)
(0.0208428 0.00167827 0)
(0.0217611 0.00179962 0)
(0.0227072 0.00192479 0)
(0.0236808 0.00205366 0)
(0.0246815 0.00218604 0)
(0.0257087 0.00232171 0)
(0.0267619 0.00246035 0)
(0.0278401 0.0026016 0)
(0.0289424 0.002745 0)
(0.0300677 0.00289005 0)
(0.0312147 0.00303616 0)
(0.032382 0.00318267 0)
(0.0335681 0.00332885 0)
(0.0347712 0.00347389 0)
(0.0359894 0.00361695 0)
(0.0372206 0.00375713 0)
(0.0384628 0.00389346 0)
(0.0397136 0.00402497 0)
(0.0409707 0.00415068 0)
(0.0422315 0.00426957 0)
(0.0434936 0.00438066 0)
(0.0447541 0.00448299 0)
(0.0460106 0.00457564 0)
(0.0472603 0.00465774 0)
(0.0485006 0.00472853 0)
(0.0497287 0.00478728 0)
(0.0509421 0.00483339 0)
(0.0521383 0.00486638 0)
(0.0533147 0.00488587 0)
(0.054469 0.00489159 0)
(0.055599 0.00488343 0)
(0.0567026 0.00486138 0)
(0.0577777 0.00482558 0)
(0.0588228 0.00477627 0)
(0.059836 0.00471383 0)
(0.060816 0.00463874 0)
(0.0617615 0.00455157 0)
(0.0626714 0.00445301 0)
(0.0635448 0.00434381 0)
(0.064381 0.00422477 0)
(0.0651795 0.00409677 0)
(0.0659399 0.00396074 0)
(0.0666619 0.00381759 0)
(0.0673456 0.00366829 0)
(0.067991 0.0035138 0)
(0.0685984 0.00335507 0)
(0.0691681 0.00319302 0)
(0.0697006 0.00302857 0)
(0.0701966 0.00286258 0)
(0.0706566 0.00269589 0)
(0.0710814 0.00252929 0)
(0.071472 0.0023635 0)
(0.0718291 0.0021992 0)
(0.0721537 0.00203703 0)
(0.0724468 0.00187754 0)
(0.0727095 0.00172124 0)
(0.0729427 0.00156859 0)
(0.0731476 0.00141998 0)
(0.0733252 0.00127575 0)
(0.0734767 0.00113619 0)
(0.0736031 0.00100153 0)
(0.0737054 0.000871965 0)
(0.0737849 0.000747644 0)
(0.0738424 0.000628668 0)
(0.0738792 0.000515104 0)
(0.0738962 0.000406985 0)
(0.0738944 0.000304312 0)
(0.0738748 0.000207057 0)
(0.0738383 0.000115168 0)
(0.073786 2.85725e-05 0)
(0.0737187 -5.28247e-05 0)
(0.0736372 -0.000129133 0)
(0.0735425 -0.000200476 0)
(0.0734354 -0.000266991 0)
(0.0733166 -0.000328823 0)
(0.0731869 -0.000386128 0)
(0.0730471 -0.000439067 0)
(0.0728978 -0.000487807 0)
(0.0727397 -0.000532516 0)
(0.0725736 -0.000573375 0)
(0.0723999 -0.000610547 0)
(0.0722194 -0.000644233 0)
(0.0720325 -0.000674573 0)
(0.0718397 -0.000701805 0)
(0.0716418 -0.000726017 0)
(0.0714389 -0.000747523 0)
(0.0712318 -0.000766299 0)
(0.0710205 -0.00078281 0)
(0.070806 -0.000796813 0)
(0.070588 -0.000809074 0)
(0.0703675 -0.000818921 0)
(0.0701442 -0.000827696 0)
(0.069919 -0.000833938 0)
(0.0696917 -0.000840027 0)
(0.0694626 -0.000843121 0)
(0.0692327 -0.000847383 0)
(0.069 -0.000847675 0)
(0.0687693 -0.000851038 0)
(0.0685321 -0.000848773 0)
(0.068304 -0.000852213 0)
(0.0680589 -0.000847639 0)
(0.0678399 -0.000851992 0)
(0.0675789 -0.000845848 0)
(0.067382 -0.000851032 0)
(0.0670884 -0.000845921 0)
(0.0669406 -0.000849758 0)
(0.0665795 -0.000849028 0)
(-0.000154822 -0.000289435 0)
(3.53351e-05 -0.000255349 0)
(0.0002468 -0.000219378 0)
(0.000480287 -0.000181225 0)
(0.000735835 -0.000141098 0)
(0.00101407 -9.86928e-05 0)
(0.00131524 -5.4146e-05 0)
(0.0016399 -7.19811e-06 0)
(0.00198846 4.21014e-05 0)
(0.00236145 9.39732e-05 0)
(0.00275937 0.000148438 0)
(0.00318276 0.000205691 0)
(0.00363217 0.000265802 0)
(0.00410815 0.000328951 0)
(0.00461124 0.000395235 0)
(0.00514201 0.000464818 0)
(0.00570097 0.000537807 0)
(0.00628865 0.000614345 0)
(0.00690552 0.000694526 0)
(0.00755202 0.000778458 0)
(0.00822854 0.000866204 0)
(0.00893538 0.000957818 0)
(0.00967281 0.00105331 0)
(0.010441 0.00115266 0)
(0.0112399 0.00125579 0)
(0.0120697 0.0013626 0)
(0.01293 0.0014729 0)
(0.0138205 0.00158648 0)
(0.0147409 0.00170303 0)
(0.0156905 0.0018222 0)
(0.0166685 0.00194355 0)
(0.0176741 0.00206659 0)
(0.0187061 0.00219075 0)
(0.0197633 0.00231539 0)
(0.0208442 0.00243983 0)
(0.0219473 0.0025633 0)
(0.0230706 0.002685 0)
(0.0242124 0.0028041 0)
(0.0253705 0.00291972 0)
(0.0265426 0.00303098 0)
(0.0277265 0.00313697 0)
(0.0289195 0.00323682 0)
(0.0301192 0.00332967 0)
(0.031323 0.0034147 0)
(0.0325279 0.00349114 0)
(0.0337315 0.00355829 0)
(0.0349307 0.00361551 0)
(0.036123 0.00366227 0)
(0.0373055 0.00369813 0)
(0.0384756 0.00372275 0)
(0.0396306 0.0037359 0)
(0.040768 0.00373745 0)
(0.0418853 0.0037274 0)
(0.0429803 0.00370586 0)
(0.0440508 0.00367302 0)
(0.0450948 0.00362921 0)
(0.0461103 0.00357483 0)
(0.0470958 0.00351036 0)
(0.0480496 0.00343637 0)
(0.0489706 0.00335351 0)
(0.0498574 0.00326245 0)
(0.0507093 0.00316392 0)
(0.0515253 0.0030587 0)
(0.0523049 0.00294757 0)
(0.0530477 0.00283133 0)
(0.0537534 0.00271077 0)
(0.0544218 0.0025867 0)
(0.0550531 0.00245988 0)
(0.0556474 0.00233106 0)
(0.056205 0.00220097 0)
(0.0567264 0.0020703 0)
(0.0572121 0.00193969 0)
(0.0576626 0.00180975 0)
(0.0580789 0.00168103 0)
(0.0584615 0.00155404 0)
(0.0588114 0.00142925 0)
(0.0591296 0.00130706 0)
(0.0594168 0.00118786 0)
(0.0596743 0.00107195 0)
(0.0599029 0.000959603 0)
(0.0601038 0.000851059 0)
(0.0602779 0.000746502 0)
(0.0604264 0.000646082 0)
(0.0605504 0.000549912 0)
(0.0606508 0.000458073 0)
(0.0607289 0.000370612 0)
(0.0607855 0.00028755 0)
(0.0608218 0.000208882 0)
(0.0608388 0.000134582 0)
(0.0608375 6.45997e-05 0)
(0.0608189 -1.12923e-06 0)
(0.0607838 -6.2686e-05 0)
(0.0607333 -0.000120166 0)
(0.0606683 -0.000173674 0)
(0.0605896 -0.000223327 0)
(0.0604981 -0.000269249 0)
(0.0603946 -0.00031157 0)
(0.0602799 -0.000350427 0)
(0.0601548 -0.000385957 0)
(0.0600199 -0.000418312 0)
(0.0598761 -0.000447621 0)
(0.0597239 -0.000474061 0)
(0.059564 -0.000497735 0)
(0.0593971 -0.000518864 0)
(0.0592238 -0.000537488 0)
(0.0590445 -0.00055392 0)
(0.0588599 -0.000568066 0)
(0.0586703 -0.000580427 0)
(0.0584764 -0.000590635 0)
(0.0582785 -0.000599573 0)
(0.058077 -0.000606331 0)
(0.0578725 -0.000612528 0)
(0.0576649 -0.000616242 0)
(0.0574554 -0.000620444 0)
(0.0572427 -0.000621413 0)
(0.0570299 -0.000624439 0)
(0.0568124 -0.000622867 0)
(0.0565985 -0.000625576 0)
(0.0563753 -0.00062171 0)
(0.0561639 -0.00062479 0)
(0.0559318 -0.000619347 0)
(0.0557292 -0.000622809 0)
(0.0554806 -0.000617733 0)
(0.0552994 -0.00062041 0)
(0.0550189 -0.000618985 0)
(0.0548828 -0.000619259 0)
(0.0545422 -0.000624218 0)
(-0.00545157 -0.000374394 0)
(-0.00543423 -0.000358826 0)
(-0.00540161 -0.000341775 0)
(-0.00535287 -0.000323132 0)
(-0.0052876 -0.000302995 0)
(-0.00520503 -0.00028119 0)
(-0.00510461 -0.000257799 0)
(-0.00498562 -0.000232649 0)
(-0.0048474 -0.000205767 0)
(-0.00468921 -0.00017699 0)
(-0.00451033 -0.000146293 0)
(-0.00431 -0.000113518 0)
(-0.00408743 -7.85949e-05 0)
(-0.00384182 -4.1366e-05 0)
(-0.00357234 -1.72873e-06 0)
(-0.00327819 4.04755e-05 0)
(-0.00295851 8.53682e-05 0)
(-0.00261247 0.000133104 0)
(-0.00223925 0.00018381 0)
(-0.00183803 0.000237625 0)
(-0.00140801 0.000294664 0)
(-0.000948468 0.000355038 0)
(-0.000458678 0.000418828 0)
(6.19947e-05 0.000486099 0)
(0.000614126 0.000556875 0)
(0.0011982 0.000631155 0)
(0.00181459 0.000708886 0)
(0.00246358 0.000789975 0)
(0.00314532 0.000874272 0)
(0.00385979 0.000961576 0)
(0.00460685 0.00105162 0)
(0.0053862 0.00114408 0)
(0.00619733 0.00123858 0)
(0.00703958 0.00133465 0)
(0.0079121 0.00143179 0)
(0.00881384 0.00152944 0)
(0.00974354 0.00162697 0)
(0.0106998 0.00172371 0)
(0.0116809 0.00181898 0)
(0.0126852 0.00191203 0)
(0.0137105 0.00200213 0)
(0.0147548 0.00208853 0)
(0.0158158 0.00217048 0)
(0.016891 0.00224726 0)
(0.0179778 0.00231819 0)
(0.0190737 0.00238261 0)
(0.0201758 0.00243995 0)
(0.0212813 0.00248966 0)
(0.0223876 0.00253132 0)
(0.0234916 0.00256453 0)
(0.0245906 0.00258903 0)
(0.0256818 0.00260462 0)
(0.0267624 0.0026112 0)
(0.0278299 0.00260876 0)
(0.0288816 0.00259738 0)
(0.0299151 0.00257724 0)
(0.0309282 0.00254857 0)
(0.0319186 0.00251171 0)
(0.0328844 0.00246704 0)
(0.0338237 0.00241502 0)
(0.0347349 0.00235616 0)
(0.0356165 0.002291 0)
(0.0364672 0.00222012 0)
(0.0372858 0.00214412 0)
(0.0380716 0.00206363 0)
(0.0388236 0.00197926 0)
(0.0395414 0.00189166 0)
(0.0402245 0.00180143 0)
(0.0408727 0.00170917 0)
(0.0414858 0.00161548 0)
(0.042064 0.00152091 0)
(0.0426073 0.00142599 0)
(0.0431161 0.00133121 0)
(0.0435908 0.00123705 0)
(0.0440318 0.00114391 0)
(0.0444399 0.00105221 0)
(0.0448156 0.000962273 0)
(0.0451597 0.000874422 0)
(0.0454731 0.000788928 0)
(0.0457565 0.000706028 0)
(0.0460109 0.000625922 0)
(0.0462372 0.000548777 0)
(0.0464365 0.000474727 0)
(0.0466096 0.000403877 0)
(0.0467576 0.000336302 0)
(0.0468816 0.000272053 0)
(0.0469825 0.000211154 0)
(0.0470613 0.000153611 0)
(0.0471192 9.94079e-05 0)
(0.0471571 4.85131e-05 0)
(0.0471759 8.78063e-07 0)
(0.0471768 -4.35578e-05 0)
(0.0471607 -8.48681e-05 0)
(0.0471286 -0.000123135 0)
(0.0470813 -0.00015845 0)
(0.0470198 -0.000190913 0)
(0.0469451 -0.000220626 0)
(0.0468579 -0.0002477 0)
(0.0467591 -0.000272244 0)
(0.0466496 -0.000294383 0)
(0.0465302 -0.000314218 0)
(0.0464016 -0.000331893 0)
(0.0462645 -0.00034749 0)
(0.0461197 -0.000361188 0)
(0.0459678 -0.000373017 0)
(0.0458095 -0.000383231 0)
(0.0456454 -0.000391748 0)
(0.0454761 -0.000398979 0)
(0.0453021 -0.000404614 0)
(0.0451241 -0.000409372 0)
(0.0449422 -0.000412512 0)
(0.0447575 -0.000415329 0)
(0.0445693 -0.000416303 0)
(0.0443799 -0.00041774 0)
(0.0441865 -0.000416808 0)
(0.0439944 -0.000417458 0)
(0.0437962 -0.000414842 0)
(0.043604 -0.00041529 0)
(0.0434001 -0.000411299 0)
(0.0432114 -0.000411959 0)
(0.0429987 -0.000407383 0)
(0.0428195 -0.000408087 0)
(0.0425916 -0.000405064 0)
(0.0424321 -0.000404412 0)
(0.0421769 -0.000407407 0)
(0.0420559 -0.000403519 0)
(0.0417524 -0.000416048 0)
(-0.00770746 -0.00030973 0)
(-0.00781385 -0.000305933 0)
(-0.00791183 -0.000301337 0)
(-0.0080006 -0.000295824 0)
(-0.00807968 -0.000289493 0)
(-0.00814832 -0.000282213 0)
(-0.00820592 -0.000274048 0)
(-0.00825177 -0.000264882 0)
(-0.00828517 -0.000254731 0)
(-0.00830537 -0.000243486 0)
(-0.0083116 -0.000231123 0)
(-0.00830305 -0.00021753 0)
(-0.00827888 -0.000202647 0)
(-0.00823822 -0.000186355 0)
(-0.00818012 -0.000168562 0)
(-0.00810364 -0.00014914 0)
(-0.00800778 -0.000127974 0)
(-0.00789151 -0.000104927 0)
(-0.00775375 -7.98699e-05 0)
(-0.00759345 -5.26617e-05 0)
(-0.00740947 -2.31725e-05 0)
(-0.00720072 8.73227e-06 0)
(-0.00696607 4.31707e-05 0)
(-0.00670443 8.02551e-05 0)
(-0.00641472 0.000120074 0)
(-0.00609591 0.000162701 0)
(-0.00574701 0.000208174 0)
(-0.00536713 0.000256508 0)
(-0.00495543 0.000307673 0)
(-0.00451122 0.000361604 0)
(-0.00403391 0.000418185 0)
(-0.00352306 0.000477256 0)
(-0.0029784 0.000538604 0)
(-0.00239981 0.000601964 0)
(-0.00178738 0.000667019 0)
(-0.00114141 0.000733401 0)
(-0.000462389 0.000800695 0)
(0.000248955 0.000868443 0)
(0.00099168 0.000936145 0)
(0.00176461 0.00100327 0)
(0.00256636 0.00106928 0)
(0.00339531 0.00113359 0)
(0.00424965 0.00119564 0)
(0.00512733 0.00125486 0)
(0.00602617 0.00131069 0)
(0.00694377 0.00136262 0)
(0.00787763 0.00141015 0)
(0.00882509 0.00145283 0)
(0.0097834 0.00149027 0)
(0.0107497 0.00152211 0)
(0.0117212 0.00154809 0)
(0.0126949 0.00156798 0)
(0.0136678 0.00158165 0)
(0.0146373 0.00158902 0)
(0.0156002 0.00159009 0)
(0.016554 0.00158491 0)
(0.017496 0.00157361 0)
(0.0184235 0.00155638 0)
(0.0193341 0.00153347 0)
(0.0202256 0.00150515 0)
(0.0210959 0.00147176 0)
(0.0219428 0.00143368 0)
(0.0227648 0.0013913 0)
(0.0235601 0.00134505 0)
(0.0243273 0.00129537 0)
(0.0250652 0.00124269 0)
(0.0257728 0.00118749 0)
(0.0264491 0.0011302 0)
(0.0270936 0.00107127 0)
(0.0277056 0.00101112 0)
(0.0282848 0.000950174 0)
(0.028831 0.000888823 0)
(0.0293442 0.000827437 0)
(0.0298245 0.000766362 0)
(0.030272 0.000705919 0)
(0.0306872 0.000646397 0)
(0.0310704 0.000588062 0)
(0.0314224 0.000531146 0)
(0.0317436 0.000475856 0)
(0.0320348 0.000422369 0)
(0.0322969 0.000370835 0)
(0.0325307 0.000321378 0)
(0.0327371 0.000274096 0)
(0.032917 0.000229065 0)
(0.0330716 0.000186339 0)
(0.0332018 0.000145949 0)
(0.0333086 0.00010791 0)
(0.0333932 7.22208e-05 0)
(0.0334567 3.88622e-05 0)
(0.0335 7.80374e-06 0)
(0.0335244 -2.09978e-05 0)
(0.0335308 -4.75952e-05 0)
(0.0335204 -7.20507e-05 0)
(0.0334942 -9.44335e-05 0)
(0.0334532 -0.000114819 0)
(0.0333985 -0.000133288 0)
(0.0333311 -0.000149923 0)
(0.0332519 -0.000164814 0)
(0.0331618 -0.000178046 0)
(0.0330618 -0.000189717 0)
(0.0329528 -0.000199904 0)
(0.0328355 -0.000208722 0)
(0.0327108 -0.000216222 0)
(0.0325795 -0.000222556 0)
(0.0324422 -0.000227719 0)
(0.0322998 -0.000231936 0)
(0.0321526 -0.000235088 0)
(0.0320016 -0.000237556 0)
(0.031847 -0.000238991 0)
(0.0316899 -0.000240082 0)
(0.0315297 -0.000240047 0)
(0.0313686 -0.000240152 0)
(0.0312045 -0.000238832 0)
(0.0310413 -0.000238367 0)
(0.0308741 -0.000235888 0)
(0.030711 -0.000235291 0)
(0.030541 -0.000231763 0)
(0.0303803 -0.000231419 0)
(0.0302064 -0.000227127 0)
(0.0300513 -0.000227139 0)
(0.029871 -0.000223029 0)
(0.0297258 -0.000222722 0)
(0.0295343 -0.000221392 0)
(0.0294056 -0.000218726 0)
(0.0291949 -0.000225593 0)
(0.0290937 -0.000218376 0)
(0.0288507 -0.000239223 0)
(-0.00690381 -0.00015292 0)
(-0.00705068 -0.00015379 0)
(-0.00719524 -0.000154375 0)
(-0.00733692 -0.000154653 0)
(-0.00747539 -0.000154663 0)
(-0.00761012 -0.000154359 0)
(-0.0077407 -0.000153777 0)
(-0.00786662 -0.00015287 0)
(-0.0079874 -0.000151656 0)
(-0.00810252 -0.000150087 0)
(-0.0082114 -0.000148161 0)
(-0.00831346 -0.000145827 0)
(-0.00840806 -0.000143062 0)
(-0.00849453 -0.000139808 0)
(-0.00857212 -0.000136022 0)
(-0.00864007 -0.000131635 0)
(-0.00869752 -0.000126587 0)
(-0.00874357 -0.000120796 0)
(-0.00877725 -0.000114185 0)
(-0.00879754 -0.000106661 0)
(-0.00880333 -9.81357e-05 0)
(-0.0087935 -8.85086e-05 0)
(-0.00876682 -7.76836e-05 0)
(-0.00872205 -6.55607e-05 0)
(-0.0086579 -5.20463e-05 0)
(-0.00857305 -3.705e-05 0)
(-0.00846616 -2.0493e-05 0)
(-0.00833591 -2.3073e-06 0)
(-0.00818097 1.75569e-05 0)
(-0.00800008 3.91308e-05 0)
(-0.00779203 6.24204e-05 0)
(-0.00755567 8.74055e-05 0)
(-0.00728998 0.000114035 0)
(-0.00699406 0.000142227 0)
(-0.00666717 0.000171862 0)
(-0.00630872 0.000202791 0)
(-0.00591835 0.000234826 0)
(-0.00549588 0.000267747 0)
(-0.00504139 0.000301305 0)
(-0.00455516 0.00033522 0)
(-0.00403777 0.000369193 0)
(-0.00349003 0.000402904 0)
(-0.002913 0.000436022 0)
(-0.00230802 0.000468209 0)
(-0.00167665 0.000499129 0)
(-0.0010207 0.000528454 0)
(-0.000342199 0.000555868 0)
(0.000356625 0.000581078 0)
(0.00107336 0.000603815 0)
(0.00180546 0.000623841 0)
(0.00255022 0.000640953 0)
(0.00330487 0.000654989 0)
(0.00406654 0.000665826 0)
(0.00483236 0.000673381 0)
(0.00559941 0.000677617 0)
(0.00636482 0.000678538 0)
(0.00712575 0.000676188 0)
(0.00787945 0.000670649 0)
(0.00862327 0.000662039 0)
(0.00935467 0.000650509 0)
(0.0100712 0.000636237 0)
(0.0107708 0.000619426 0)
(0.0114512 0.000600298 0)
(0.0121106 0.000579091 0)
(0.0127473 0.000556054 0)
(0.0133599 0.000531443 0)
(0.0139469 0.000505515 0)
(0.0145074 0.000478528 0)
(0.0150404 0.000450734 0)
(0.0155453 0.000422379 0)
(0.0160215 0.000393695 0)
(0.0164688 0.000364906 0)
(0.0168868 0.000336217 0)
(0.0172758 0.000307819 0)
(0.0176358 0.000279885 0)
(0.0179671 0.00025257 0)
(0.0182702 0.000226011 0)
(0.0185457 0.000200327 0)
(0.0187942 0.000175618 0)
(0.0190165 0.000151965 0)
(0.0192135 0.000129434 0)
(0.0193859 0.000108076 0)
(0.0195349 8.79236e-05 0)
(0.0196614 6.8998e-05 0)
(0.0197665 5.13069e-05 0)
(0.0198512 3.4847e-05 0)
(0.0199168 1.96046e-05 0)
(0.0199642 5.55763e-06 0)
(0.0199945 -7.32386e-06 0)
(0.020009 -1.90758e-05 0)
(0.0200086 -2.97397e-05 0)
(0.0199945 -3.93606e-05 0)
(0.0199677 -4.79874e-05 0)
(0.0199292 -5.56706e-05 0)
(0.01988 -6.24627e-05 0)
(0.0198211 -6.84165e-05 0)
(0.0197534 -7.35851e-05 0)
(0.0196777 -7.80222e-05 0)
(0.0195949 -8.17778e-05 0)
(0.0195058 -8.49067e-05 0)
(0.0194111 -8.74516e-05 0)
(0.0193116 -8.94722e-05 0)
(0.0192079 -9.09957e-05 0)
(0.0191006 -9.20962e-05 0)
(0.0189903 -9.27703e-05 0)
(0.0188776 -9.31278e-05 0)
(0.0187629 -9.3104e-05 0)
(0.0186468 -9.28868e-05 0)