/*--------------------------------*- C++ -*----------------------------------*\
| =========                 |                                                 |
| \\      /  F ield         | OpenFOAM: The Open Source CFD Toolbox           |
|  \\    /   O peration     | Version:  4.1                                   |
|   \\  /    A nd           | Web:      www.OpenFOAM.org                      |
|    \\/     M anipulation  |                                                 |
\*---------------------------------------------------------------------------*/
FoamFile
{
    version     2.0;
    format      ascii;
    class       volScalarField;
    location    "259";
    object      p;
}
// * * * * * * * * * * * * * * * * * * * * * * * * * * * * * * * * * * * * * //

dimensions      [1 -1 -2 0 0 0 0];

internalField   nonuniform List<scalar> 
3264
(
0.712521
0.712519
0.712518
0.712518
0.712518
0.712518
0.712519
0.712521
0.712523
0.712526
0.71253
0.712534
0.71254
0.712546
0.712553
0.712561
0.712569
0.712579
0.712591
0.712603
0.712617
0.712633
0.712651
0.712672
0.712695
0.712721
0.712751
0.712784
0.712821
0.712862
0.712908
0.712959
0.713014
0.713074
0.713138
0.713206
0.713279
0.713355
0.713435
0.713516
0.7136
0.713685
0.71377
0.713855
0.713939
0.71402
0.714099
0.714174
0.714244
0.71431
0.71437
0.714425
0.714474
0.714516
0.714553
0.714583
0.714608
0.714628
0.714642
0.714652
0.714658
0.714661
0.714661
0.71466
0.714657
0.714652
0.714648
0.714643
0.714639
0.714635
0.714632
0.714629
0.714628
0.714627
0.714627
0.714628
0.714629
0.714631
0.714633
0.714636
0.714638
0.71464
0.714642
0.714644
0.714646
0.714648
0.714649
0.71465
0.714651
0.714652
0.714653
0.714654
0.714654
0.714655
0.714655
0.714656
0.714657
0.714659
0.714661
0.714663
0.714667
0.714672
0.714677
0.714684
0.714692
0.714701
0.714712
0.714723
0.714736
0.714749
0.714764
0.714779
0.714794
0.71481
0.714825
0.714841
0.714855
0.714869
0.714882
0.714894
0.714905
0.714914
0.714921
0.714928
0.714932
0.714935
0.714937
0.714937
0.714936
0.714933
0.714929
0.714924
0.714919
0.714912
0.714905
0.714897
0.714889
0.71488
0.714871
0.714862
0.714853
0.714844
0.714834
0.714825
0.714816
0.714807
0.714798
0.714789
0.71478
0.714771
0.714763
0.714754
0.714746
0.714737
0.714728
0.71472
0.714711
0.714702
0.714693
0.714684
0.714674
0.714665
0.714656
0.714646
0.714636
0.714626
0.714617
0.714607
0.714597
0.714587
0.714577
0.714567
0.714557
0.714547
0.714537
0.714527
0.714517
0.714507
0.714497
0.714487
0.714478
0.714468
0.714458
0.714448
0.714438
0.714428
0.714419
0.714409
0.714399
0.714389
0.714379
0.714369
0.71436
0.71435
0.71434
0.71433
0.71432
0.714311
0.714301
0.714291
0.712523
0.712521
0.71252
0.71252
0.71252
0.712521
0.712522
0.712523
0.712526
0.712529
0.712532
0.712537
0.712542
0.712548
0.712555
0.712563
0.712572
0.712582
0.712593
0.712606
0.71262
0.712635
0.712653
0.712673
0.712696
0.712721
0.71275
0.712783
0.712819
0.71286
0.712905
0.712954
0.713009
0.713068
0.713131
0.713199
0.713271
0.713347
0.713426
0.713507
0.713591
0.713675
0.71376
0.713845
0.713929
0.71401
0.714088
0.714163
0.714234
0.7143
0.714361
0.714416
0.714464
0.714507
0.714544
0.714575
0.7146
0.71462
0.714635
0.714645
0.714652
0.714656
0.714657
0.714656
0.714653
0.71465
0.714646
0.714642
0.714639
0.714636
0.714634
0.714632
0.714631
0.714631
0.714632
0.714633
0.714634
0.714636
0.714638
0.71464
0.714642
0.714644
0.714646
0.714648
0.714649
0.714651
0.714652
0.714653
0.714654
0.714654
0.714655
0.714655
0.714655
0.714656
0.714656
0.714657
0.714657
0.714659
0.714661
0.714663
0.714666
0.714671
0.714676
0.714682
0.71469
0.714699
0.714709
0.714721
0.714733
0.714746
0.714761
0.714776
0.714791
0.714807
0.714822
0.714837
0.714852
0.714866
0.714879
0.714891
0.714902
0.714912
0.71492
0.714926
0.714931
0.714934
0.714936
0.714936
0.714935
0.714933
0.714929
0.714925
0.714919
0.714912
0.714905
0.714897
0.714889
0.71488
0.714872
0.714862
0.714853
0.714844
0.714834
0.714825
0.714816
0.714807
0.714798
0.714789
0.71478
0.714771
0.714763
0.714754
0.714746
0.714737
0.714728
0.71472
0.714711
0.714702
0.714693
0.714684
0.714674
0.714665
0.714656
0.714646
0.714636
0.714627
0.714617
0.714607
0.714597
0.714587
0.714577
0.714567
0.714557
0.714547
0.714537
0.714527
0.714517
0.714507
0.714497
0.714487
0.714478
0.714468
0.714458
0.714448
0.714438
0.714428
0.714419
0.714409
0.714399
0.714389
0.714379
0.714369
0.71436
0.71435
0.71434
0.71433
0.71432
0.714311
0.714301
0.714291
0.712524
0.712522
0.712521
0.71252
0.71252
0.71252
0.712521
0.712523
0.712525
0.712528
0.712531
0.712536
0.712541
0.712547
0.712554
0.712562
0.712571
0.712581
0.712592
0.712604
0.712618
0.712633
0.71265
0.71267
0.712692
0.712717
0.712745
0.712777
0.712813
0.712853
0.712897
0.712947
0.713001
0.713059
0.713122
0.71319
0.713262
0.713337
0.713416
0.713498
0.713581
0.713665
0.71375
0.713835
0.713918
0.713999
0.714078
0.714152
0.714223
0.714288
0.714349
0.714403
0.714452
0.714495
0.714531
0.714562
0.714587
0.714607
0.714622
0.714632
0.714639
0.714643
0.714644
0.714643
0.714641
0.714638
0.714635
0.714632
0.714629
0.714627
0.714626
0.714625
0.714625
0.714626
0.714628
0.71463
0.714633
0.714636
0.714639
0.714641
0.714644
0.714646
0.714648
0.71465
0.714652
0.714653
0.714654
0.714654
0.714655
0.714656
0.714656
0.714656
0.714656
0.714657
0.714657
0.714657
0.714658
0.714659
0.71466
0.714663
0.714666
0.71467
0.714675
0.714681
0.714689
0.714697
0.714708
0.714719
0.714731
0.714745
0.714759
0.714774
0.714789
0.714805
0.71482
0.714835
0.71485
0.714864
0.714878
0.71489
0.714901
0.71491
0.714918
0.714925
0.71493
0.714933
0.714935
0.714935
0.714934
0.714932
0.714929
0.714924
0.714919
0.714912
0.714905
0.714897
0.714889
0.714881
0.714872
0.714863
0.714853
0.714844
0.714835
0.714825
0.714816
0.714807
0.714798
0.714789
0.71478
0.714772
0.714763
0.714754
0.714746
0.714737
0.714728
0.71472
0.714711
0.714702
0.714693
0.714684
0.714675
0.714665
0.714656
0.714646
0.714636
0.714627
0.714617
0.714607
0.714597
0.714587
0.714577
0.714567
0.714557
0.714547
0.714537
0.714527
0.714517
0.714507
0.714497
0.714487
0.714478
0.714468
0.714458
0.714448
0.714438
0.714428
0.714419
0.714409
0.714399
0.714389
0.714379
0.714369
0.71436
0.71435
0.71434
0.71433
0.71432
0.714311
0.714301
0.714291
0.712518
0.712518
0.712517
0.712518
0.712517
0.712518
0.712519
0.71252
0.712523
0.712526
0.71253
0.712534
0.71254
0.712546
0.712553
0.712561
0.71257
0.712579
0.71259
0.712602
0.712615
0.71263
0.712647
0.712665
0.712687
0.712711
0.712739
0.71277
0.712805
0.712845
0.712888
0.712937
0.71299
0.713049
0.713111
0.713179
0.71325
0.713325
0.713403
0.713484
0.713567
0.71365
0.713734
0.713818
0.7139
0.713981
0.714058
0.714131
0.714201
0.714265
0.714324
0.714377
0.714425
0.714466
0.714501
0.714531
0.714555
0.714574
0.714588
0.714598
0.714605
0.714609
0.71461
0.71461
0.714609
0.714607
0.714605
0.714603
0.714602
0.714601
0.714602
0.714603
0.714605
0.714608
0.714612
0.714617
0.714622
0.714627
0.714632
0.714637
0.714641
0.714646
0.714649
0.714652
0.714655
0.714657
0.714658
0.714659
0.71466
0.71466
0.71466
0.71466
0.71466
0.714659
0.714659
0.714659
0.71466
0.714661
0.714662
0.714664
0.714666
0.71467
0.714675
0.714681
0.714688
0.714697
0.714706
0.714717
0.71473
0.714743
0.714757
0.714771
0.714786
0.714802
0.714817
0.714832
0.714847
0.714861
0.714874
0.714886
0.714897
0.714907
0.714915
0.714921
0.714926
0.71493
0.714932
0.714932
0.714932
0.714929
0.714926
0.714922
0.714917
0.714911
0.714904
0.714897
0.714889
0.71488
0.714872
0.714863
0.714853
0.714844
0.714835
0.714826
0.714817
0.714807
0.714798
0.71479
0.714781
0.714772
0.714763
0.714755
0.714746
0.714737
0.714729
0.71472
0.714711
0.714702
0.714693
0.714684
0.714675
0.714665
0.714656
0.714646
0.714636
0.714626
0.714617
0.714607
0.714597
0.714587
0.714577
0.714567
0.714557
0.714547
0.714537
0.714527
0.714517
0.714507
0.714497
0.714487
0.714478
0.714468
0.714458
0.714448
0.714438
0.714428
0.714419
0.714409
0.714399
0.714389
0.714379
0.714369
0.71436
0.71435
0.71434
0.71433
0.71432
0.714311
0.714301
0.714291
0.712516
0.712516
0.712513
0.712513
0.712512
0.712513
0.712514
0.712516
0.712518
0.712522
0.712526
0.712531
0.712537
0.712543
0.71255
0.712558
0.712567
0.712576
0.712587
0.712599
0.712612
0.712626
0.712643
0.712661
0.712682
0.712706
0.712734
0.712764
0.712799
0.712838
0.712882
0.71293
0.712984
0.713041
0.713104
0.713171
0.713241
0.713316
0.713393
0.713473
0.713554
0.713637
0.713719
0.713801
0.713881
0.713959
0.714034
0.714105
0.714171
0.714232
0.714288
0.714339
0.714383
0.714421
0.714454
0.714481
0.714503
0.714519
0.714532
0.714541
0.714546
0.71455
0.714551
0.714551
0.714551
0.71455
0.71455
0.71455
0.71455
0.714552
0.714555
0.714559
0.714564
0.71457
0.714577
0.714585
0.714594
0.714602
0.714611
0.71462
0.714628
0.714636
0.714643
0.714649
0.714654
0.714658
0.714662
0.714664
0.714666
0.714667
0.714668
0.714668
0.714668
0.714667
0.714667
0.714666
0.714666
0.714667
0.714667
0.714669
0.714671
0.714675
0.714679
0.714685
0.714692
0.7147
0.714709
0.71472
0.714731
0.714744
0.714757
0.714771
0.714786
0.714801
0.714816
0.71483
0.714844
0.714858
0.71487
0.714882
0.714892
0.714901
0.714909
0.714915
0.71492
0.714923
0.714925
0.714926
0.714926
0.714924
0.714921
0.714917
0.714913
0.714907
0.714901
0.714894
0.714887
0.714879
0.71487
0.714862
0.714853
0.714844
0.714836
0.714826
0.714817
0.714808
0.714799
0.714791
0.714782
0.714773
0.714764
0.714755
0.714747
0.714738
0.714729
0.71472
0.714711
0.714702
0.714693
0.714684
0.714675
0.714665
0.714656
0.714646
0.714636
0.714626
0.714616
0.714607
0.714597
0.714587
0.714577
0.714567
0.714557
0.714547
0.714537
0.714527
0.714517
0.714507
0.714497
0.714487
0.714478
0.714468
0.714458
0.714448
0.714438
0.714428
0.714419
0.714409
0.714399
0.714389
0.714379
0.714369
0.71436
0.71435
0.71434
0.71433
0.71432
0.714311
0.714301
0.714291
0.712484
0.712499
0.712498
0.712504
0.712505
0.712508
0.71251
0.712513
0.712516
0.712519
0.712524
0.712529
0.712535
0.712542
0.712549
0.712557
0.712566
0.712575
0.712586
0.712598
0.71261
0.712625
0.712641
0.71266
0.712681
0.712705
0.712732
0.712763
0.712798
0.712837
0.712881
0.712929
0.712982
0.71304
0.713102
0.713168
0.713238
0.713311
0.713387
0.713465
0.713545
0.713625
0.713704
0.713783
0.71386
0.713934
0.714005
0.714071
0.714133
0.714189
0.714241
0.714286
0.714325
0.714359
0.714387
0.71441
0.714428
0.714442
0.714452
0.714459
0.714463
0.714466
0.714467
0.714468
0.714469
0.71447
0.714471
0.714474
0.714477
0.714482
0.714488
0.714495
0.714504
0.714514
0.714525
0.714537
0.714549
0.714563
0.714576
0.71459
0.714603
0.714615
0.714627
0.714638
0.714648
0.714657
0.714664
0.71467
0.714675
0.714678
0.714681
0.714682
0.714683
0.714683
0.714683
0.714683
0.714682
0.714682
0.714682
0.714683
0.714685
0.714687
0.714691
0.714696
0.714702
0.714709
0.714718
0.714727
0.714738
0.714749
0.714762
0.714775
0.714788
0.714802
0.714816
0.714829
0.714842
0.714854
0.714865
0.714876
0.714885
0.714894
0.714901
0.714906
0.714911
0.714914
0.714916
0.714917
0.714916
0.714915
0.714913
0.714909
0.714906
0.714901
0.714895
0.714889
0.714883
0.714876
0.714869
0.714861
0.714853
0.714845
0.714836
0.714827
0.714819
0.71481
0.714801
0.714792
0.714783
0.714774
0.714766
0.714757
0.714748
0.714739
0.71473
0.714721
0.714712
0.714702
0.714693
0.714684
0.714674
0.714665
0.714655
0.714646
0.714636
0.714626
0.714616
0.714606
0.714596
0.714587
0.714577
0.714567
0.714557
0.714547
0.714537
0.714527
0.714517
0.714507
0.714497
0.714487
0.714478
0.714468
0.714458
0.714448
0.714438
0.714428
0.714419
0.714409
0.714399
0.714389
0.714379
0.71437
0.71436
0.71435
0.71434
0.71433
0.71432
0.714311
0.714301
0.714291
0.712483
0.7125
0.712498
0.712501
0.712502
0.712504
0.712507
0.71251
0.712514
0.712518
0.712523
0.712528
0.712535
0.712541
0.712549
0.712557
0.712566
0.712576
0.712587
0.712599
0.712612
0.712627
0.712644
0.712663
0.712685
0.712709
0.712737
0.712769
0.712805
0.712845
0.712889
0.712938
0.712991
0.713049
0.71311
0.713176
0.713245
0.713317
0.713391
0.713467
0.713544
0.71362
0.713696
0.71377
0.713842
0.713911
0.713975
0.714035
0.71409
0.71414
0.714184
0.714223
0.714256
0.714283
0.714305
0.714323
0.714337
0.714347
0.714355
0.71436
0.714363
0.714366
0.714368
0.71437
0.714373
0.714376
0.71438
0.714385
0.714392
0.7144
0.71441
0.714421
0.714433
0.714447
0.714462
0.714479
0.714496
0.714514
0.714532
0.714551
0.714569
0.714588
0.714605
0.714622
0.714637
0.714651
0.714664
0.714675
0.714684
0.714692
0.714698
0.714703
0.714706
0.714708
0.714709
0.71471
0.71471
0.71471
0.71471
0.71471
0.714711
0.714713
0.714715
0.714719
0.714723
0.714729
0.714736
0.714744
0.714753
0.714763
0.714773
0.714784
0.714796
0.714807
0.714819
0.71483
0.714841
0.714851
0.714861
0.71487
0.714877
0.714884
0.71489
0.714895
0.714898
0.714901
0.714903
0.714904
0.714904
0.714903
0.714901
0.714899
0.714896
0.714892
0.714888
0.714883
0.714878
0.714872
0.714866
0.714859
0.714852
0.714845
0.714837
0.714829
0.71482
0.714812
0.714803
0.714794
0.714786
0.714777
0.714768
0.714758
0.714749
0.71474
0.714731
0.714722
0.714712
0.714703
0.714693
0.714684
0.714674
0.714665
0.714655
0.714645
0.714636
0.714626
0.714616
0.714606
0.714596
0.714586
0.714576
0.714566
0.714557
0.714547
0.714537
0.714527
0.714517
0.714507
0.714497
0.714487
0.714478
0.714468
0.714458
0.714448
0.714438
0.714428
0.714419
0.714409
0.714399
0.714389
0.714379
0.71437
0.71436
0.71435
0.71434
0.71433
0.71432
0.714311
0.714301
0.714291
0.712328
0.712467
0.712484
0.712505
0.712508
0.712512
0.712514
0.712516
0.712519
0.712523
0.712527
0.712533
0.712539
0.712545
0.712553
0.712562
0.712571
0.712581
0.712593
0.712606
0.71262
0.712636
0.712654
0.712675
0.712698
0.712724
0.712754
0.712787
0.712824
0.712866
0.712912
0.712961
0.713016
0.713074
0.713135
0.713201
0.713269
0.713339
0.713411
0.713483
0.713556
0.713628
0.713698
0.713766
0.713831
0.713892
0.713949
0.714001
0.714047
0.714088
0.714124
0.714154
0.71418
0.7142
0.714216
0.714229
0.714239
0.714246
0.714252
0.714257
0.714261
0.714265
0.714268
0.714273
0.714278
0.714285
0.714292
0.714301
0.714311
0.714323
0.714336
0.71435
0.714366
0.714384
0.714403
0.714423
0.714444
0.714467
0.714489
0.714513
0.714536
0.714559
0.714582
0.714604
0.714625
0.714645
0.714663
0.714679
0.714694
0.714707
0.714718
0.714727
0.714734
0.714739
0.714743
0.714746
0.714748
0.714749
0.714749
0.71475
0.71475
0.714751
0.714752
0.714754
0.714757
0.714761
0.714766
0.714771
0.714778
0.714785
0.714793
0.714801
0.714809
0.714818
0.714826
0.714835
0.714842
0.71485
0.714857
0.714863
0.714868
0.714873
0.714877
0.714881
0.714883
0.714885
0.714887
0.714888
0.714888
0.714888
0.714887
0.714886
0.714884
0.714882
0.71488
0.714876
0.714872
0.714868
0.714863
0.714857
0.714851
0.714845
0.714838
0.71483
0.714822
0.714814
0.714806
0.714797
0.714788
0.714779
0.71477
0.714761
0.714751
0.714742
0.714732
0.714723
0.714713
0.714703
0.714694
0.714684
0.714674
0.714665
0.714655
0.714645
0.714635
0.714625
0.714615
0.714606
0.714596
0.714586
0.714576
0.714566
0.714556
0.714546
0.714537
0.714527
0.714517
0.714507
0.714497
0.714487
0.714478
0.714468
0.714458
0.714448
0.714438
0.714428
0.714419
0.714409
0.714399
0.714389
0.714379
0.71437
0.71436
0.71435
0.71434
0.71433
0.71432
0.714311
0.714301
0.714291
0.713059
0.713003
0.71294
0.712873
0.7128
0.712722
0.712635
0.712516
0.713065
0.713019
0.712956
0.712887
0.712814
0.712735
0.712644
0.712547
0.71307
0.71303
0.712973
0.712907
0.712838
0.712766
0.712695
0.712625
0.71308
0.713046
0.712993
0.712932
0.712868
0.712803
0.71274
0.712682
0.713093
0.713061
0.713011
0.712955
0.712896
0.712839
0.712785
0.712737
0.713107
0.713074
0.713026
0.712972
0.712918
0.712867
0.712819
0.712777
0.713123
0.713085
0.713036
0.712983
0.712932
0.712884
0.712841
0.712801
0.713131
0.713083
0.713034
0.712984
0.712935
0.71289
0.712847
0.712809
0.712453
0.712473
0.712493
0.712504
0.71251
0.712514
0.712517
0.71252
0.712523
0.712527
0.712532
0.712538
0.712545
0.712552
0.712561
0.712571
0.712581
0.712593
0.712606
0.712621
0.712637
0.712656
0.712676
0.7127
0.712726
0.712755
0.712787
0.712823
0.712863
0.712907
0.712955
0.713007
0.713062
0.713121
0.713183
0.713247
0.713314
0.713381
0.71345
0.713518
0.713585
0.713651
0.713714
0.713774
0.71383
0.713882
0.713929
0.71397
0.714007
0.714039
0.714065
0.714087
0.714105
0.71412
0.714131
0.71414
0.714148
0.714155
0.714161
0.714167
0.714173
0.714179
0.714186
0.714194
0.714202
0.714212
0.714223
0.714235
0.714248
0.714262
0.714278
0.714296
0.714315
0.714335
0.714357
0.71438
0.714404
0.714429
0.714455
0.714482
0.71451
0.714537
0.714564
0.714591
0.714616
0.714641
0.714664
0.714686
0.714706
0.714724
0.714739
0.714753
0.714764
0.714774
0.714781
0.714787
0.714791
0.714794
0.714796
0.714797
0.714797
0.714798
0.714798
0.714799
0.7148
0.714802
0.714804
0.714807
0.71481
0.714814
0.714818
0.714823
0.714828
0.714832
0.714837
0.714842
0.714846
0.71485
0.714853
0.714856
0.714859
0.714862
0.714864
0.714865
0.714867
0.714868
0.71487
0.714871
0.714872
0.714872
0.714873
0.714873
0.714872
0.714872
0.714871
0.714869
0.714867
0.714864
0.71486
0.714856
0.714851
0.714845
0.714839
0.714832
0.714825
0.714817
0.714809
0.7148
0.714791
0.714782
0.714773
0.714763
0.714753
0.714744
0.714734
0.714724
0.714714
0.714704
0.714694
0.714684
0.714674
0.714664
0.714654
0.714645
0.714635
0.714625
0.714615
0.714605
0.714595
0.714586
0.714576
0.714566
0.714556
0.714546
0.714537
0.714527
0.714517
0.714507
0.714497
0.714487
0.714478
0.714468
0.714458
0.714448
0.714438
0.714429
0.714419
0.714409
0.714399
0.714389
0.714379
0.71437
0.71436
0.71435
0.71434
0.71433
0.71432
0.714311
0.714301
0.714291
0.712475
0.712484
0.712498
0.71251
0.712518
0.712523
0.712527
0.712531
0.712535
0.71254
0.712545
0.712552
0.712559
0.712568
0.712578
0.712589
0.712602
0.712616
0.712632
0.712649
0.712669
0.712691
0.712715
0.712742
0.712772
0.712806
0.712842
0.712882
0.712926
0.712973
0.713023
0.713077
0.713134
0.713193
0.713254
0.713317
0.713381
0.713445
0.713508
0.71357
0.71363
0.713688
0.713741
0.713791
0.713837
0.713877
0.713913
0.713945
0.713971
0.713994
0.714012
0.714028
0.71404
0.714051
0.714061
0.71407
0.714078
0.714087
0.714095
0.714104
0.714113
0.714123
0.714133
0.714144
0.714155
0.714167
0.71418
0.714194
0.714209
0.714226
0.714243
0.714262
0.714283
0.714305
0.714328
0.714353
0.714379
0.714406
0.714435
0.714464
0.714494
0.714524
0.714554
0.714584
0.714614
0.714642
0.71467
0.714695
0.714719
0.714741
0.714761
0.714779
0.714795
0.714808
0.714818
0.714827
0.714834
0.714839
0.714843
0.714845
0.714846
0.714847
0.714847
0.714846
0.714846
0.714845
0.714845
0.714845
0.714845
0.714845
0.714846
0.714847
0.714847
0.714848
0.714848
0.714849
0.714849
0.71485
0.71485
0.71485
0.71485
0.71485
0.71485
0.714851
0.714851
0.714852
0.714853
0.714855
0.714856
0.714858
0.714859
0.714861
0.714862
0.714862
0.714863
0.714863
0.714862
0.71486
0.714858
0.714855
0.714851
0.714846
0.714841
0.714834
0.714827
0.71482
0.714812
0.714803
0.714794
0.714785
0.714775
0.714765
0.714756
0.714745
0.714735
0.714725
0.714715
0.714705
0.714694
0.714684
0.714674
0.714664
0.714654
0.714644
0.714634
0.714624
0.714615
0.714605
0.714595
0.714585
0.714575
0.714566
0.714556
0.714546
0.714536
0.714527
0.714517
0.714507
0.714497
0.714487
0.714478
0.714468
0.714458
0.714448
0.714438
0.714429
0.714419
0.714409
0.714399
0.714389
0.714379
0.71437
0.71436
0.71435
0.71434
0.71433
0.71432
0.714311
0.714301
0.714291
0.712572
0.712548
0.712542
0.712542
0.712544
0.712546
0.712548
0.712551
0.712554
0.712559
0.712565
0.712572
0.712581
0.712591
0.712603
0.712617
0.712632
0.712649
0.712669
0.71269
0.712714
0.71274
0.712769
0.712801
0.712836
0.712874
0.712915
0.712959
0.713007
0.713057
0.71311
0.713166
0.713223
0.713282
0.713341
0.713401
0.713461
0.713519
0.713576
0.71363
0.713681
0.713728
0.713771
0.713809
0.713843
0.713873
0.713899
0.713921
0.71394
0.713956
0.71397
0.713983
0.713995
0.714007
0.714018
0.714028
0.714039
0.71405
0.714061
0.714072
0.714084
0.714096
0.714108
0.71412
0.714133
0.714147
0.714161
0.714176
0.714191
0.714208
0.714227
0.714246
0.714267
0.71429
0.714314
0.71434
0.714367
0.714395
0.714425
0.714456
0.714487
0.71452
0.714552
0.714584
0.714616
0.714648
0.714678
0.714707
0.714734
0.714759
0.714782
0.714803
0.714822
0.714838
0.714851
0.714863
0.714872
0.714879
0.714884
0.714887
0.714889
0.71489
0.714889
0.714888
0.714886
0.714884
0.714882
0.714879
0.714876
0.714873
0.71487
0.714867
0.714864
0.714861
0.714858
0.714855
0.714852
0.714849
0.714846
0.714844
0.714842
0.71484
0.714839
0.714838
0.714838
0.714839
0.71484
0.714842
0.714844
0.714846
0.714849
0.714851
0.714853
0.714855
0.714857
0.714858
0.714858
0.714858
0.714857
0.714855
0.714851
0.714847
0.714842
0.714837
0.71483
0.714823
0.714815
0.714806
0.714797
0.714788
0.714778
0.714768
0.714757
0.714747
0.714736
0.714726
0.714715
0.714705
0.714695
0.714684
0.714674
0.714664
0.714654
0.714644
0.714634
0.714624
0.714614
0.714604
0.714595
0.714585
0.714575
0.714566
0.714556
0.714546
0.714536
0.714527
0.714517
0.714507
0.714497
0.714488
0.714478
0.714468
0.714458
0.714448
0.714438
0.714429
0.714419
0.714409
0.714399
0.714389
0.714379
0.71437
0.71436
0.71435
0.71434
0.71433
0.71432
0.714311
0.714301
0.714291
0.712636
0.712608
0.712593
0.712586
0.712582
0.71258
0.71258
0.71258
0.712583
0.712587
0.712592
0.7126
0.712609
0.712621
0.712635
0.71265
0.712668
0.712689
0.712711
0.712737
0.712765
0.712795
0.712829
0.712866
0.712905
0.712948
0.712993
0.713042
0.713093
0.713146
0.7132
0.713256
0.713313
0.71337
0.713426
0.713481
0.713534
0.713585
0.713633
0.713678
0.713718
0.713754
0.713787
0.713816
0.713841
0.713864
0.713885
0.713903
0.713919
0.713933
0.713946
0.713959
0.713972
0.713985
0.713998
0.714011
0.714024
0.714037
0.714049
0.714062
0.714075
0.714087
0.7141
0.714113
0.714126
0.71414
0.714154
0.714169
0.714185
0.714203
0.714221
0.714241
0.714262
0.714285
0.71431
0.714336
0.714364
0.714393
0.714424
0.714455
0.714488
0.714521
0.714555
0.714589
0.714622
0.714655
0.714687
0.714718
0.714747
0.714775
0.7148
0.714823
0.714844
0.714862
0.714878
0.714891
0.714901
0.71491
0.714916
0.71492
0.714922
0.714923
0.714922
0.71492
0.714917
0.714913
0.714909
0.714904
0.714899
0.714893
0.714887
0.714881
0.714875
0.714869
0.714863
0.714858
0.714852
0.714847
0.714842
0.714838
0.714835
0.714832
0.71483
0.714829
0.714829
0.71483
0.714831
0.714833
0.714836
0.714839
0.714842
0.714845
0.714848
0.714851
0.714854
0.714856
0.714857
0.714857
0.714856
0.714855
0.714852
0.714849
0.714844
0.714839
0.714832
0.714825
0.714817
0.714808
0.714799
0.714789
0.714779
0.714769
0.714759
0.714748
0.714737
0.714727
0.714716
0.714705
0.714695
0.714684
0.714674
0.714664
0.714654
0.714644
0.714634
0.714624
0.714614
0.714604
0.714594
0.714585
0.714575
0.714565
0.714556
0.714546
0.714536
0.714527
0.714517
0.714507
0.714497
0.714488
0.714478
0.714468
0.714458
0.714448
0.714438
0.714429
0.714419
0.714409
0.714399
0.714389
0.714379
0.71437
0.71436
0.71435
0.71434
0.71433
0.71432
0.714311
0.714301
0.714291
0.712698
0.712669
0.71265
0.712636
0.712627
0.71262
0.712616
0.712613
0.712613
0.712615
0.71262
0.712628
0.712637
0.71265
0.712665
0.712682
0.712703
0.712726
0.712752
0.71278
0.712812
0.712847
0.712884
0.712925
0.712968
0.713014
0.713063
0.713114
0.713166
0.71322
0.713274
0.713329
0.713383
0.713435
0.713486
0.713534
0.713581
0.713625
0.713665
0.713702
0.713736
0.713765
0.713791
0.713814
0.713834
0.713852
0.713869
0.713886
0.713902
0.713919
0.713935
0.713951
0.713966
0.71398
0.713994
0.714008
0.714021
0.714034
0.714047
0.71406
0.714072
0.714085
0.714098
0.714111
0.714124
0.714138
0.714153
0.714168
0.714185
0.714202
0.714221
0.714241
0.714263
0.714286
0.714311
0.714337
0.714365
0.714395
0.714426
0.714458
0.714492
0.714526
0.71456
0.714595
0.714629
0.714663
0.714696
0.714728
0.714758
0.714787
0.714813
0.714838
0.714859
0.714879
0.714895
0.714909
0.714921
0.71493
0.714936
0.714941
0.714943
0.714943
0.714942
0.71494
0.714936
0.714931
0.714925
0.714919
0.714912
0.714905
0.714897
0.714889
0.714881
0.714873
0.714866
0.714859
0.714852
0.714845
0.71484
0.714835
0.714831
0.714828
0.714826
0.714825
0.714824
0.714825
0.714827
0.714829
0.714832
0.714835
0.714839
0.714842
0.714846
0.714849
0.714852
0.714854
0.714856
0.714857
0.714856
0.714855
0.714853
0.714849
0.714845
0.71484
0.714833
0.714826
0.714818
0.714809
0.7148
0.714791
0.71478
0.71477
0.714759
0.714749
0.714738
0.714727
0.714716
0.714706
0.714695
0.714684
0.714674
0.714664
0.714654
0.714643
0.714633
0.714624
0.714614
0.714604
0.714594
0.714585
0.714575
0.714565
0.714556
0.714546
0.714536
0.714527
0.714517
0.714507
0.714497
0.714488
0.714478
0.714468
0.714458
0.714448
0.714438
0.714429
0.714419
0.714409
0.714399
0.714389
0.714379
0.71437
0.71436
0.71435
0.71434
0.71433
0.71432
0.714311
0.714301
0.714291
0.712741
0.712713
0.71269
0.712673
0.712659
0.712648
0.71264
0.712635
0.712634
0.712635
0.712639
0.712646
0.712656
0.712669
0.712685
0.712704
0.712726
0.712751
0.712779
0.71281
0.712844
0.712881
0.712921
0.712963
0.713009
0.713056
0.713106
0.713157
0.713209
0.713262
0.713315
0.713367
0.713418
0.713466
0.713513
0.713556
0.713597
0.713634
0.713668
0.713698
0.713726
0.713751
0.713775
0.713799
0.713822
0.713844
0.713865
0.713884
0.713902
0.713919
0.713935
0.71395
0.713964
0.713978
0.713992
0.714006
0.714019
0.714032
0.714046
0.714059
0.714072
0.714085
0.714098
0.714111
0.714125
0.714139
0.714154
0.71417
0.714186
0.714204
0.714223
0.714244
0.714265
0.714289
0.714314
0.714341
0.71437
0.7144
0.714431
0.714464
0.714497
0.714532
0.714566
0.714601
0.714636
0.714671
0.714704
0.714736
0.714767
0.714796
0.714823
0.714847
0.714869
0.714889
0.714906
0.71492
0.714932
0.714941
0.714947
0.714951
0.714953
0.714954
0.714952
0.714949
0.714944
0.714939
0.714932
0.714925
0.714917
0.714909
0.7149
0.714891
0.714883
0.714874
0.714866
0.714858
0.714851
0.714844
0.714839
0.714834
0.714829
0.714826
0.714824
0.714823
0.714823
0.714824
0.714825
0.714828
0.714831
0.714834
0.714838
0.714842
0.714845
0.714849
0.714852
0.714854
0.714856
0.714857
0.714856
0.714855
0.714853
0.71485
0.714845
0.71484
0.714834
0.714826
0.714819
0.71481
0.714801
0.714791
0.714781
0.71477
0.71476
0.714749
0.714738
0.714727
0.714716
0.714706
0.714695
0.714684
0.714674
0.714664
0.714654
0.714643
0.714633
0.714624
0.714614
0.714604
0.714594
0.714585
0.714575
0.714565
0.714556
0.714546
0.714536
0.714527
0.714517
0.714507
0.714497
0.714488
0.714478
0.714468
0.714458
0.714448
0.714438
0.714429
0.714419
0.714409
0.714399
0.714389
0.714379
0.71437
0.71436
0.71435
0.71434
0.71433
0.71432
0.714311
0.714301
0.714291
0.712767
0.712738
0.712714
0.712693
0.712676
0.712663
0.712653
0.712646
0.712644
0.712644
0.712648
0.712655
0.712666
0.71268
0.712696
0.712716
0.712739
0.712765
0.712794
0.712826
0.712861
0.712899
0.712939
0.712982
0.713027
0.713075
0.713124
0.713174
0.713224
0.713275
0.713324
0.713372
0.713418
0.713462
0.713504
0.713545
0.713584
0.713622
0.713658
0.713692
0.713723
0.713751
0.713777
0.713801
0.713823
0.713844
0.713863
0.713881
0.713899
0.713916
0.713932
0.713948
0.713963
0.713977
0.713992
0.714005
0.714019
0.714032
0.714045
0.714058
0.714071
0.714085
0.714098
0.714111
0.714125
0.71414
0.714155
0.714171
0.714188
0.714206
0.714225
0.714246
0.714268
0.714292
0.714317
0.714344
0.714373
0.714403
0.714435
0.714468
0.714501
0.714536
0.714571
0.714606
0.714641
0.714675
0.714708
0.714741
0.714771
0.7148
0.714827
0.714852
0.714874
0.714893
0.71491
0.714924
0.714936
0.714944
0.714951
0.714955
0.714957
0.714957
0.714955
0.714951
0.714946
0.71494
0.714934
0.714926
0.714918
0.714909
0.7149
0.714892
0.714883
0.714874
0.714866
0.714858
0.714851
0.714844
0.714838
0.714833
0.714829
0.714826
0.714824
0.714823
0.714823
0.714824
0.714826
0.714828
0.714831
0.714834
0.714838
0.714842
0.714845
0.714849
0.714852
0.714854
0.714856
0.714856
0.714856
0.714855
0.714853
0.714849
0.714845
0.71484
0.714833
0.714826
0.714818
0.71481
0.7148
0.714791
0.714781
0.71477
0.71476
0.714749
0.714738
0.714727
0.714716
0.714706
0.714695
0.714684
0.714674
0.714664
0.714654
0.714643
0.714633
0.714624
0.714614
0.714604
0.714594
0.714585
0.714575
0.714565
0.714556
0.714546
0.714536
0.714527
0.714517
0.714507
0.714497
0.714488
0.714478
0.714468
0.714458
0.714448
0.714438
0.714429
0.714419
0.714409
0.714399
0.714389
0.714379
0.71437
0.71436
0.71435
0.71434
0.71433
0.71432
0.714311
0.714301
0.714291
0.712774
0.712743
0.712716
0.712693
0.712675
0.71266
0.712649
0.712642
0.712639
0.71264
0.712644
0.712651
0.712662
0.712676
0.712692
0.712712
0.712735
0.712761
0.712789
0.712821
0.712855
0.712892
0.712932
0.712974
0.713018
0.713064
0.713112
0.713161
0.713211
0.713261
0.713311
0.71336
0.713408
0.713454
0.713498
0.713541
0.713581
0.713619
0.713655
0.713687
0.713717
0.713745
0.713771
0.713795
0.713818
0.71384
0.713861
0.71388
0.713898
0.713915
0.713931
0.713947
0.713962
0.713977
0.713991
0.714005
0.714018
0.714032
0.714045
0.714058
0.714071
0.714084
0.714097
0.714111
0.714125
0.71414
0.714155
0.714171
0.714189
0.714207
0.714227
0.714248
0.71427
0.714295
0.71432
0.714348
0.714377
0.714407
0.714439
0.714472
0.714506
0.714541
0.714576
0.714611
0.714646
0.71468
0.714714
0.714746
0.714777
0.714805
0.714832
0.714856
0.714878
0.714897
0.714914
0.714928
0.714939
0.714947
0.714953
0.714957
0.714958
0.714957
0.714955
0.714951
0.714946
0.71494
0.714933
0.714925
0.714917
0.714908
0.714899
0.71489
0.714881
0.714873
0.714865
0.714857
0.71485
0.714844
0.714838
0.714833
0.71483
0.714827
0.714825
0.714824
0.714824
0.714825
0.714827
0.714829
0.714832
0.714836
0.714839
0.714843
0.714847
0.71485
0.714853
0.714855
0.714856
0.714857
0.714857
0.714855
0.714853
0.71485
0.714845
0.71484
0.714833
0.714826
0.714818
0.714809
0.7148
0.714791
0.71478
0.71477
0.714759
0.714749
0.714738
0.714727
0.714716
0.714706
0.714695
0.714684
0.714674
0.714664
0.714654
0.714644
0.714634
0.714624
0.714614
0.714604
0.714594
0.714585
0.714575
0.714565
0.714556
0.714546
0.714536
0.714527
0.714517
0.714507
0.714497
0.714488
0.714478
0.714468
0.714458
0.714448
0.714438
0.714429
0.714419
0.714409
0.714399
0.714389
0.714379
0.71437
0.71436
0.71435
0.71434
0.71433
0.71432
0.714311
0.714301
0.714291
)
;

boundaryField
{
    inlet
    {
        type            zeroGradient;
    }
    outlet
    {
        type            fixedValue;