/*--------------------------------*- C++ -*----------------------------------*\
| =========                 |                                                 |
| \\      /  F ield         | OpenFOAM: The Open Source CFD Toolbox           |
|  \\    /   O peration     | Version:  4.1                                   |
|   \\  /    A nd           | Web:      www.OpenFOAM.org                      |
|    \\/     M anipulation  |                                                 |
\*---------------------------------------------------------------------------*/
FoamFile
{
    version     2.0;
    format      ascii;
    class       volVectorField;
    location    "2610";
    object      U;
}
// * * * * * * * * * * * * * * * * * * * * * * * * * * * * * * * * * * * * * //

dimensions      [0 1 -1 0 0 0 0];

internalField   nonuniform List<vector> 
1275
(
(-8.44357e-07 2.91268e-05 0)
(3.18581e-06 4.00245e-05 0)
(-6.30448e-05 4.7803e-05 0)
(-0.000126307 3.88205e-05 0)
(-0.000214995 3.7475e-05 0)
(-0.000301725 2.54876e-05 0)
(-0.000392014 2.29378e-05 0)
(-0.000489254 1.42091e-05 0)
(-0.000581581 1.25237e-05 0)
(-0.000684511 7.362e-06 0)
(-0.000779605 6.68483e-06 0)
(-0.000884822 4.13309e-06 0)
(-0.000982194 4.23222e-06 0)
(-0.00108767 3.30832e-06 0)
(-0.00118651 3.87018e-06 0)
(-0.00129124 3.83216e-06 0)
(-0.00139076 4.59017e-06 0)
(-0.00149425 4.96083e-06 0)
(-0.00159381 5.73943e-06 0)
(-0.00169585 6.24655e-06 0)
(-0.00179493 6.95194e-06 0)
(-0.00189541 7.45675e-06 0)
(-0.00199366 8.0514e-06 0)
(-0.00209253 8.49281e-06 0)
(-0.00218971 8.97213e-06 0)
(-0.00228696 9.3302e-06 0)
(-0.00238295 9.70657e-06 0)
(-0.00247863 9.98073e-06 0)
(-0.00257337 1.02742e-05 0)
(-0.00266754 1.04711e-05 0)
(-0.00276108 1.0705e-05 0)
(-0.00285388 1.08319e-05 0)
(-0.00294631 1.10314e-05 0)
(-0.00303791 1.10927e-05 0)
(-0.00312938 1.12845e-05 0)
(-0.00322005 1.12807e-05 0)
(-0.00331076 1.14922e-05 0)
(-0.00340083 1.14212e-05 0)
(-0.00349104 1.1677e-05 0)
(-0.00358094 1.15392e-05 0)
(-0.00367096 1.18527e-05 0)
(-0.00376117 1.16604e-05 0)
(-0.00385146 1.2023e-05 0)
(-0.0039425 1.18109e-05 0)
(-0.00403371 1.21884e-05 0)
(-0.00412616 1.2016e-05 0)
(-0.00421912 1.23699e-05 0)
(-0.00431378 1.23037e-05 0)
(-0.00440948 1.26236e-05 0)
(-0.00450734 1.26799e-05 0)
(-0.00460692 1.29882e-05 0)
(-0.00470923 1.31587e-05 0)
(-0.00481407 1.34897e-05 0)
(-0.00492237 1.37681e-05 0)
(-0.00503418 1.41578e-05 0)
(-0.00515039 1.45512e-05 0)
(-0.00527128 1.504e-05 0)
(-0.00539776 1.55773e-05 0)
(-0.00553036 1.6223e-05 0)
(-0.00567006 1.69699e-05 0)
(-0.0058176 1.78728e-05 0)
(-0.00597411 1.89605e-05 0)
(-0.00614059 2.03057e-05 0)
(-0.00631831 2.19808e-05 0)
(-0.00650851 2.40987e-05 0)
(-0.00671265 2.67895e-05 0)
(-0.00693218 3.02235e-05 0)
(-0.00716867 3.45957e-05 0)
(-0.00742364 4.01323e-05 0)
(-0.00769862 4.707e-05 0)
(-0.0079949 5.56437e-05 0)
(-0.00831351 6.60507e-05 0)
(-0.00865498 7.84181e-05 0)
(-0.00901915 9.27537e-05 0)
(-0.0094049 0.000108904 0)
(-0.00980993 0.000126511 0)
(-0.0102305 0.000144991 0)
(-0.0106612 0.000163533 0)
(-0.0110949 0.00018113 0)
(-0.0115226 0.000196635 0)
(-0.0119339 0.000208853 0)
(-0.0123167 0.000216639 0)
(-0.0126581 0.000219006 0)
(-0.0129446 0.000215206 0)
(-0.0131629 0.000204803 0)
(-0.0133001 0.000187702 0)
(-0.0133448 0.000164146 0)
(-0.0132869 0.000134696 0)
(-0.0131187 0.000100175 0)
(-0.0128345 6.16094e-05 0)
(-0.0124315 2.0163e-05 0)
(-0.0119091 -2.29306e-05 0)
(-0.0112696 -6.64265e-05 0)
(-0.0105174 -0.000109121 0)
(-0.00965927 -0.000149894 0)
(-0.00870406 -0.000187742 0)
(-0.00766222 -0.000221803 0)
(-0.00654562 -0.000251375 0)
(-0.00536721 -0.000275921 0)
(-0.00414067 -0.000295076 0)
(-0.00288008 -0.000308639 0)
(-0.0015996 -0.000316573 0)
(-0.000313189 -0.000318987 0)
(0.000965692 -0.000316124 0)
(0.00222431 -0.000308341 0)
(0.00345085 -0.000296095 0)
(0.00463461 -0.000279914 0)
(0.0057661 -0.000260387 0)
(0.00683717 -0.000238129 0)
(0.00784098 -0.000213785 0)
(0.00877216 -0.000187974 0)
(0.00962657 -0.000161323 0)
(0.0104015 -0.000134392 0)
(0.0110954 -0.000107736 0)
(0.011708 -8.18048e-05 0)
(0.0122399 -5.70438e-05 0)
(0.0126927 -3.37714e-05 0)
(0.0130688 -1.2293e-05 0)
(0.0133714 7.18857e-06 0)
(0.0136041 2.45427e-05 0)
(0.0137709 3.96333e-05 0)
(0.0138766 5.25161e-05 0)
(-1.8493e-05 -3.40785e-05 0)
(-0.000105528 1.92875e-05 0)
(-0.000322411 8.16659e-05 0)
(-0.000541057 0.000110144 0)
(-0.000795957 0.000140016 0)
(-0.00105154 0.000149213 0)
(-0.00130763 0.000167826 0)
(-0.00157616 0.000174072 0)
(-0.00183368 0.000186382 0)
(-0.00210719 0.000190364 0)
(-0.00236662 0.000197228 0)
(-0.00263988 0.000198919 0)
(-0.00289965 0.000201954 0)
(-0.00316939 0.000201993 0)
(-0.00342754 0.000202698 0)
(-0.00369192 0.000201722 0)
(-0.00394677 0.000201114 0)
(-0.00420489 0.000199575 0)
(-0.00445523 0.000198268 0)
(-0.00470668 0.000196451 0)
(-0.00495176 0.000194801 0)
(-0.00519647 0.000192877 0)
(-0.00543588 0.000191088 0)
(-0.00567394 0.00018916 0)
(-0.00590756 0.000187354 0)
(-0.00613921 0.000185487 0)
(-0.00636714 0.000183743 0)
(-0.00659271 0.000181981 0)
(-0.0068152 0.000180362 0)
(-0.00703514 0.000178738 0)
(-0.00725258 0.000177298 0)
(-0.00746742 0.000175843 0)
(-0.00768033 0.000174641 0)
(-0.00789069 0.000173382 0)
(-0.00809971 0.000172482 0)
(-0.00830636 0.000171454 0)
(-0.00851219 0.000170918 0)
(-0.00871604 0.000170176 0)
(-0.0089195 0.000170053 0)
(-0.00912163 0.000169688 0)
(-0.00932367 0.000170001 0)
(-0.0095253 0.000170161 0)
(-0.00972708 0.00017092 0)
(-0.00992956 0.00017179 0)
(-0.0101325 0.000173076 0)
(-0.0103374 0.000174801 0)
(-0.0105433 0.000176869 0)
(-0.0107523 0.000179521 0)
(-0.0109634 0.000182587 0)
(-0.0111786 0.000186316 0)
(-0.0113972 0.00019061 0)
(-0.0116211 0.000195657 0)
(-0.01185 0.000201454 0)
(-0.0120855 0.000208143 0)
(-0.0123277 0.00021579 0)
(-0.0125782 0.000224518 0)
(-0.0128373 0.000234444 0)
(-0.0131063 0.000245693 0)
(-0.0133861 0.000258412 0)
(-0.0136778 0.000272739 0)
(-0.0139823 0.000288835 0)
(-0.0143005 0.000306844 0)
(-0.0146332 0.00032692 0)
(-0.0149811 0.000349183 0)
(-0.0153446 0.000373737 0)
(-0.0157238 0.000400621 0)
(-0.0161182 0.000429807 0)
(-0.0165269 0.000461152 0)
(-0.0169482 0.000494371 0)
(-0.0173795 0.000528981 0)
(-0.0178175 0.000564264 0)
(-0.0182573 0.000599216 0)
(-0.018693 0.00063251 0)
(-0.0191175 0.000662477 0)
(-0.0195222 0.000687115 0)
(-0.0198973 0.000704125 0)
(-0.0202318 0.000710999 0)
(-0.0205137 0.000705141 0)
(-0.0207303 0.000684029 0)
(-0.0208689 0.000645392 0)
(-0.0209163 0.000587401 0)
(-0.02086 0.000508828 0)
(-0.0206883 0.000409181 0)
(-0.0203908 0.000288778 0)
(-0.0199583 0.000148761 0)
(-0.0193838 -8.9399e-06 0)
(-0.0186621 -0.000181704 0)
(-0.0177903 -0.000366349 0)
(-0.0167677 -0.000559279 0)
(-0.015596 -0.000756646 0)
(-0.014279 -0.000954506 0)
(-0.0128229 -0.00114895 0)
(-0.0112357 -0.00133626 0)
(-0.00952735 -0.00151294 0)
(-0.00770954 -0.0016759 0)
(-0.00579525 -0.00182242 0)
(-0.00379865 -0.00195025 0)
(-0.00173478 -0.00205765 0)
(0.000380689 -0.00214332 0)
(0.00253179 -0.00220652 0)
(0.0047025 -0.00224696 0)
(0.00687699 -0.0022648 0)
(0.0090399 -0.00226064 0)
(0.0111765 -0.00223546 0)
(0.0132731 -0.00219058 0)
(0.0153168 -0.00212756 0)
(0.0172959 -0.00204823 0)
(0.0192002 -0.00195453 0)
(0.0210205 -0.00184854 0)
(0.0227492 -0.00173237 0)
(0.0243798 -0.00160813 0)
(0.0259073 -0.00147787 0)
(0.0273279 -0.0013436 0)
(0.0286389 -0.00120714 0)
(0.029839 -0.00107029 0)
(0.0309277 -0.000934506 0)
(0.0319054 -0.000801328 0)
(0.0327733 -0.000671772 0)
(0.0335336 -0.000547138 0)
(0.0341889 -0.000427949 0)
(0.0347422 -0.000315262 0)
(0.0351975 -0.000209267 0)
(-3.72501e-05 0.000161322 0)
(-0.000229645 0.000349973 0)
(-0.000592249 0.00049277 0)
(-0.00096449 0.000514379 0)
(-0.00137849 0.000555371 0)
(-0.00179343 0.000536091 0)
(-0.00220622 0.000552144 0)
(-0.00262791 0.000537401 0)
(-0.00303207 0.000545695 0)
(-0.0034464 0.000536715 0)
(-0.0038392 0.000539807 0)
(-0.00423961 0.000533508 0)
(-0.0046196 0.000533137 0)
(-0.00500381 0.00052779 0)
(-0.0053704 0.000525251 0)
(-0.00573815 0.000520054 0)
(-0.00609116 0.000516159 0)
(-0.006443 0.000510812 0)
(-0.00678257 0.000506074 0)
(-0.0071193 0.00050053 0)
(-0.00744574 0.000495296 0)
(-0.00776826 0.000489625 0)
(-0.00808202 0.000484151 0)
(-0.00839123 0.000478466 0)
(-0.00869289 0.000472956 0)
(-0.00898967 0.00046738 0)
(-0.00927991 0.000462006 0)
(-0.00956515 0.000456658 0)
(-0.00984474 0.000451577 0)
(-0.0101193 0.000446567 0)
(-0.0103891 0.000441932 0)
(-0.010654 0.000437357 0)
(-0.0109149 0.000433331 0)
(-0.011171 0.000429278 0)
(-0.0114239 0.00042604 0)
(-0.0116724 0.000422584 0)
(-0.0119183 0.000420329 0)
(-0.0121603 0.000417557 0)
(-0.0124001 0.000416478 0)
(-0.0126368 0.000414521 0)
(-0.0128717 0.000414775 0)
(-0.0131044 0.000413866 0)
(-0.0133355 0.000415541 0)
(-0.0135655 0.000416059 0)
(-0.0137941 0.000419218 0)
(-0.0140225 0.000421633 0)
(-0.0142503 0.000426474 0)
(-0.0144786 0.000431216 0)
(-0.0147069 0.000438005 0)
(-0.0149364 0.000445348 0)
(-0.0151667 0.000454509 0)
(-0.0153987 0.00046474 0)
(-0.0156322 0.000476756 0)
(-0.0158678 0.000490233 0)
(-0.0161053 0.000505587 0)
(-0.0163451 0.000522701 0)
(-0.016587 0.000541827 0)
(-0.0168311 0.000562924 0)
(-0.0170769 0.000586124 0)
(-0.017324 0.000611372 0)
(-0.0175715 0.000638669 0)
(-0.0178185 0.000667858 0)
(-0.0180635 0.000698755 0)
(-0.0183046 0.000731005 0)
(-0.0185396 0.000764149 0)
(-0.0187655 0.000797526 0)
(-0.0189788 0.000830297 0)
(-0.0191752 0.000861372 0)
(-0.0193498 0.000889429 0)
(-0.0194969 0.000912857 0)
(-0.0196098 0.00092978 0)
(-0.0196815 0.000938037 0)
(-0.0197038 0.000935225 0)
(-0.0196683 0.000918727 0)
(-0.019566 0.000885797 0)
(-0.0193877 0.000833641 0)
(-0.0191243 0.00075956 0)
(-0.0187665 0.000661082 0)
(-0.018306 0.000536139 0)
(-0.0177346 0.000383224 0)
(-0.0170456 0.000201555 0)
(-0.0162329 -8.80709e-06 0)
(-0.0152919 -0.000246864 0)
(-0.0142194 -0.000510659 0)
(-0.0130136 -0.0007973 0)
(-0.0116742 -0.00110304 0)
(-0.0102025 -0.00142342 0)
(-0.00860135 -0.00175341 0)
(-0.00687501 -0.00208761 0)
(-0.0050293 -0.00242041 0)
(-0.00307146 -0.00274622 0)
(-0.00101004 -0.00305957 0)
(0.00114516 -0.00335533 0)
(0.00338321 -0.00362876 0)
(0.00569222 -0.00387568 0)
(0.00805944 -0.00409251 0)
(0.0104715 -0.00427633 0)
(0.0129146 -0.00442496 0)
(0.0153746 -0.00453691 0)
(0.0178375 -0.00461143 0)
(0.0202893 -0.00464849 0)
(0.0227165 -0.00464871 0)
(0.0251061 -0.00461333 0)
(0.0274462 -0.00454413 0)
(0.0297253 -0.00444337 0)
(0.0319333 -0.0043137 0)
(0.0340611 -0.00415807 0)
(0.0361008 -0.00397965 0)
(0.0380458 -0.00378171 0)
(0.0398907 -0.00356759 0)
(0.0416311 -0.00334058 0)
(0.0432639 -0.00310389 0)
(0.0447872 -0.00286056 0)
(0.0461997 -0.00261345 0)
(0.0475014 -0.00236519 0)
(0.0486928 -0.00211811 0)
(0.0497752 -0.00187439 0)
(0.0507503 -0.00163571 0)
(0.0516207 -0.00140387 0)
(0.0523891 -0.0011798 0)
(0.0530582 -0.000965023 0)
(0.053632 -0.000759801 0)
(-9.11907e-05 0.000217382 0)
(-0.000438671 0.000561012 0)
(-0.000997942 0.000805946 0)
(-0.0015362 0.000885553 0)
(-0.00208242 0.000964322 0)
(-0.00262221 0.000970014 0)
(-0.00312729 0.00100224 0)
(-0.00364233 0.000996508 0)
(-0.00411665 0.0010074 0)
(-0.00460154 0.000996551 0)
(-0.00504955 0.000994067 0)
(-0.00550348 0.000979884 0)
(-0.00592665 0.000969976 0)
(-0.00635084 0.000954108 0)
(-0.00674994 0.000940571 0)
(-0.00714634 0.000924111 0)
(-0.00752221 0.000909056 0)
(-0.00789292 0.000892644 0)
(-0.00824661 0.000877194 0)
(-0.00859368 0.000861201 0)
(-0.00892639 0.000845953 0)
(-0.0092517 0.000830601 0)
(-0.0095647 0.000815888 0)
(-0.00986995 0.00080132 0)
(-0.0101645 0.000787344 0)
(-0.0104513 0.000773661 0)
(-0.0107286 0.00076056 0)
(-0.0109982 0.000747838 0)
(-0.0112596 0.000735729 0)
(-0.0115133 0.000724034 0)
(-0.0117598 0.000713031 0)
(-0.0119987 0.000702421 0)
(-0.0122313 0.000692654 0)
(-0.0124564 0.000683178 0)
(-0.0126761 0.000674798 0)
(-0.0128884 0.000666506 0)
(-0.0130959 0.000659673 0)
(-0.0132961 0.000652639 0)
(-0.0134922 0.00064749 0)
(-0.0136811 0.000641865 0)
(-0.013866 0.000638444 0)
(-0.0140443 0.000634538 0)
(-0.0142183 0.000632763 0)
(-0.0143865 0.000631042 0)
(-0.0145495 0.000630893 0)
(-0.0147075 0.000631681 0)
(-0.0148596 0.000633689 0)
(-0.0150069 0.000636851 0)
(-0.0151478 0.000641237 0)
(-0.0152834 0.000646831 0)
(-0.015412 0.000653734 0)
(-0.0155343 0.000661872 0)
(-0.0156488 0.000671358 0)
(-0.0157555 0.000682072 0)
(-0.0158528 0.000694083 0)
(-0.0159403 0.000707221 0)
(-0.0160162 0.000721466 0)
(-0.0160795 0.000736573 0)
(-0.016128 0.000752383 0)
(-0.0161601 0.000768532 0)
(-0.0161732 0.000784666 0)
(-0.0161647 0.000800232 0)
(-0.0161316 0.000814618 0)
(-0.0160705 0.000827001 0)
(-0.0159775 0.000836439 0)
(-0.0158484 0.000841757 0)
(-0.0156785 0.000841609 0)
(-0.0154627 0.000834402 0)
(-0.0151957 0.000818337 0)
(-0.0148715 0.000791369 0)
(-0.0144842 0.000751251 0)
(-0.0140274 0.000695529 0)
(-0.0134947 0.000621611 0)
(-0.0128798 0.000526805 0)
(-0.0121765 0.000408427 0)
(-0.011379 0.000263898 0)
(-0.0104817 9.08904e-05 0)
(-0.00947986 -0.00011253 0)
(-0.00836945 -0.000347733 0)
(-0.00714727 -0.000615376 0)
(-0.00581112 -0.000915262 0)
(-0.00435982 -0.00124624 0)
(-0.00279326 -0.00160615 0)
(-0.00111242 -0.00199182 0)
(0.000680659 -0.00239912 0)
(0.00258287 -0.00282306 0)
(0.00459005 -0.00325794 0)
(0.00669706 -0.00369753 0)
(0.00889772 -0.00413525 0)
(0.0111849 -0.00456437 0)
(0.0135505 -0.00497819 0)
(0.0159854 -0.00537024 0)
(0.0184797 -0.00573441 0)
(0.0210227 -0.00606513 0)
(0.023603 -0.00635747 0)
(0.0262085 -0.00660726 0)
(0.0288267 -0.00681115 0)
(0.0314449 -0.00696669 0)
(0.0340503 -0.00707232 0)
(0.0366301 -0.00712743 0)
(0.039172 -0.00713233 0)
(0.0416643 -0.00708816 0)
(0.0440956 -0.00699687 0)
(0.0464558 -0.00686114 0)
(0.0487356 -0.00668421 0)
(0.0509269 -0.00646986 0)
(0.0530226 -0.0062222 0)
(0.0550169 -0.00594561 0)
(0.0569051 -0.00564459 0)
(0.058684 -0.00532365 0)
(0.0603512 -0.00498723 0)
(0.0619054 -0.00463959 0)
(0.0633465 -0.00428478 0)
(0.0646749 -0.00392647 0)
(0.0658922 -0.00356818 0)
(0.0670001 -0.00321273 0)
(0.0680016 -0.00286311 0)
(0.0688993 -0.00252114 0)
(0.0696969 -0.00218937 0)
(0.0703978 -0.00186854 0)
(0.0710057 -0.00156091 0)
(0.071525 -0.00126627 0)
(-0.000113853 0.000712513 0)
(-0.000562077 0.00127252 0)
(-0.00123711 0.00161385 0)
(-0.00188486 0.00160586 0)
(-0.00252658 0.0016579 0)
(-0.00314676 0.00158154 0)
(-0.0037134 0.00158131 0)
(-0.00427067 0.00152367 0)
(-0.00476955 0.00150854 0)
(-0.0052616 0.00146493 0)
(-0.0057031 0.00144217 0)
(-0.00613733 0.00140561 0)
(-0.00653087 0.00137926 0)
(-0.00691604 0.00134643 0)
(-0.00726895 0.00131883 0)
(-0.00761249 0.00128829 0)
(-0.00793025 0.00126067 0)
(-0.00823801 0.00123185 0)
(-0.00852476 0.00120487 0)
(-0.00880124 0.00117755 0)
(-0.00906022 0.00115156 0)
(-0.00930891 0.00112569 0)
(-0.0095427 0.00110088 0)
(-0.00976634 0.00107645 0)
(-0.00997705 0.00105295 0)
(-0.0101778 0.00102998 0)
(-0.0103672 0.00100787 0)
(-0.0105468 0.000986354 0)
(-0.0107161 0.000965695 0)
(-0.0108759 0.000945646 0)
(-0.0110264 0.00092651 0)
(-0.0111673 0.000907907 0)
(-0.0112999 0.000890385 0)
(-0.0114226 0.00087318 0)
(-0.0115377 0.000857396 0)
(-0.0116427 0.000841501 0)
(-0.0117405 0.000827615 0)
(-0.011828 0.000812904 0)
(-0.0119084 0.000801083 0)
(-0.0119782 0.000787438 0)
(-0.0120404 0.000777758 0)
(-0.0120923 0.000765196 0)
(-0.0121353 0.000757471 0)
(-0.0121681 0.000746309 0)
(-0.0121907 0.000740015 0)
(-0.0122023 0.000730783 0)
(-0.012203 0.000725566 0)
(-0.0121914 0.000718565 0)
(-0.0121673 0.000714052 0)
(-0.0121295 0.000708793 0)
(-0.012077 0.000704913 0)
(-0.0120088 0.000700756 0)
(-0.0119233 0.00069724 0)
(-0.0118195 0.000693451 0)
(-0.0116952 0.000689678 0)
(-0.0115491 0.000685287 0)
(-0.0113788 0.000680202 0)
(-0.0111822 0.000673828 0)
(-0.0109567 0.000665819 0)
(-0.0106996 0.000655483 0)
(-0.0104079 0.000642207 0)
(-0.0100784 0.000625101 0)
(-0.0097075 0.000603253 0)
(-0.00929146 0.000575495 0)
(-0.0088262 0.000540566 0)
(-0.00830753 0.000496957 0)
(-0.00773094 0.00044302 0)
(-0.00709183 0.000376871 0)
(-0.00638542 0.000296477 0)
(-0.00560693 0.000199611 0)
(-0.00475153 8.39286e-05 0)
(-0.00381453 -5.30233e-05 0)
(-0.00279142 -0.000213714 0)
(-0.00167798 -0.000400575 0)
(-0.000470399 -0.000615884 0)
(0.000834599 -0.000861664 0)
(0.00223968 -0.00113954 0)
(0.0037468 -0.00145064 0)
(0.00535711 -0.00179541 0)
(0.00707093 -0.00217353 0)
(0.00888769 -0.0025838 0)
(0.010806 -0.00302408 0)
(0.0128234 -0.00349122 0)
(0.0149369 -0.00398114 0)
(0.0171423 -0.0044888 0)
(0.019435 -0.00500837 0)
(0.0218091 -0.00553333 0)
(0.0242583 -0.00605662 0)
(0.0267752 -0.00657085 0)
(0.0293517 -0.00706846 0)
(0.0319789 -0.00754195 0)
(0.0346472 -0.00798404 0)
(0.0373461 -0.00838789 0)
(0.0400645 -0.00874725 0)
(0.042791 -0.0090566 0)
(0.0455135 -0.00931135 0)
(0.0482198 -0.00950788 0)
(0.0508979 -0.00964366 0)
(0.0535357 -0.00971726 0)
(0.0561216 -0.00972839 0)
(0.0586447 -0.00967788 0)
(0.0610946 -0.00956757 0)
(0.063462 -0.00940028 0)
(0.0657387 -0.00917965 0)
(0.0679175 -0.00891003 0)
(0.0699926 -0.00859634 0)
(0.0719592 -0.00824387 0)
(0.0738139 -0.00785822 0)
(0.0755544 -0.00744502 0)
(0.0771795 -0.00700994 0)
(0.0786891 -0.00655844 0)
(0.0800838 -0.00609578 0)
(0.0813654 -0.00562681 0)
(0.0825359 -0.00515606 0)
(0.0835984 -0.00468756 0)
(0.0845561 -0.00422485 0)
(0.0854127 -0.0037711 0)
(0.086172 -0.00332874 0)
(0.0868383 -0.00290029 0)
(0.0874157 -0.0024868 0)
(0.0879082 -0.00209066 0)
(0.0883209 -0.00171124 0)
(-0.000258953 0.000856065 0)
(-0.000902214 0.00165479 0)
(-0.00172303 0.00210426 0)
(-0.00244212 0.00215382 0)
(-0.00303519 0.00221559 0)
(-0.0036141 0.0021452 0)
(-0.00406676 0.00212479 0)
(-0.00452946 0.00204806 0)
(-0.00489617 0.00200173 0)
(-0.00526887 0.00192972 0)
(-0.00557239 0.00187504 0)
(-0.00587472 0.00180941 0)
(-0.00612698 0.00175415 0)
(-0.00637303 0.00169477 0)
(-0.00658186 0.00164198 0)
(-0.00678168 0.00158812 0)
(-0.00695293 0.00153876 0)
(-0.00711384 0.00148966 0)
(-0.00725208 0.00144383 0)
(-0.00737952 0.00139882 0)
(-0.00748841 0.00135633 0)
(-0.0075865 0.00131488 0)
(-0.00766896 0.00127545 0)
(-0.0077408 0.00123714 0)
(-0.00779913 0.00120049 0)
(-0.00784704 0.00116496 0)
(-0.007883 0.00113083 0)
(-0.00790866 0.00109777 0)
(-0.00792354 0.00106594 0)
(-0.00792806 0.0010351 0)
(-0.00792272 0.00100537 0)
(-0.00790669 0.000976476 0)
(-0.00788159 0.000948701 0)
(-0.00784515 0.000921495 0)
(-0.00780033 0.000895562 0)
(-0.00774314 0.000869742 0)
(-0.0076782 0.000845563 0)
(-0.00759954 0.000820804 0)
(-0.00751352 0.000798253 0)
(-0.00741234 0.000774276 0)
(-0.00730353 0.00075301 0)
(-0.00717859 0.000729789 0)
(-0.00704438 0.00070897 0)
(-0.0068941 0.000686903 0)
(-0.00673123 0.000665372 0)
(-0.00655278 0.000644483 0)
(-0.00635787 0.000623134 0)
(-0.00614698 0.000601627 0)
(-0.0059168 0.0005797 0)
(-0.00566812 0.000556923 0)
(-0.00539766 0.000533476 0)
(-0.00510535 0.000508632 0)
(-0.00478827 0.000482543 0)
(-0.00444546 0.000454443 0)
(-0.00407414 0.000424278 0)
(-0.00367263 0.000391281 0)
(-0.00323807 0.000355154 0)
(-0.00276819 0.000315081 0)
(-0.00225991 0.00027051 0)
(-0.00171044 0.000220509 0)
(-0.00111642 0.000164263 0)
(-0.000474591 0.000100655 0)
(0.000218702 2.85852e-05 0)
(0.000967083 -5.33027e-05 0)
(0.00177447 -0.000146413 0)
(0.00264474 -0.000252374 0)
(0.00358195 -0.000372896 0)
(0.00459009 -0.00050988 0)
(0.00567314 -0.000665303 0)
(0.00683496 -0.000841277 0)
(0.00807926 -0.00103994 0)
(0.00940944 -0.00126347 0)
(0.0108286 -0.00151397 0)
(0.0123394 -0.00179344 0)
(0.013944 -0.00210362 0)
(0.0156439 -0.00244595 0)
(0.01744 -0.00282142 0)
(0.0193324 -0.00323043 0)
(0.0213205 -0.00367272 0)
(0.0234027 -0.00414721 0)
(0.0255768 -0.00465194 0)
(0.0278396 -0.00518399 0)
(0.0301869 -0.00573945 0)
(0.0326138 -0.00631345 0)
(0.0351145 -0.00690017 0)
(0.0376825 -0.007493 0)
(0.0403102 -0.0080846 0)
(0.0429894 -0.0086671 0)
(0.0457108 -0.0092323 0)
(0.0484648 -0.00977185 0)
(0.0512407 -0.0102775 0)
(0.0540274 -0.0107412 0)
(0.0568133 -0.0111556 0)
(0.0595863 -0.0115139 0)
(0.0623344 -0.0118104 0)
(0.0650453 -0.0120401 0)
(0.0677071 -0.0121997 0)
(0.0703085 -0.0122867 0)
(0.0728386 -0.0123002 0)
(0.0752874 -0.0122406 0)
(0.0776461 -0.0121095 0)
(0.0799067 -0.0119097 0)
(0.0820629 -0.0116453 0)
(0.0841092 -0.011321 0)
(0.0860418 -0.0109424 0)
(0.087858 -0.0105158 0)
(0.0895565 -0.0100478 0)
(0.0911369 -0.00954499 0)
(0.0926002 -0.00901432 0)
(0.0939481 -0.00846238 0)
(0.0951831 -0.00789555 0)
(0.0963085 -0.00731982 0)
(0.0973282 -0.00674075 0)
(0.0982461 -0.00616326 0)
(0.099067 -0.00559196 0)
(0.0997953 -0.0050304 0)
(0.100436 -0.00448236 0)
(0.100993 -0.00394978 0)
(0.101473 -0.00343603 0)
(0.101878 -0.00294108 0)
(0.102214 -0.00246853 0)
(0.102484 -0.00201615 0)
(-0.000256456 0.00192742 0)
(-0.00087374 0.00276495 0)
(-0.00162806 0.00320545 0)
(-0.00227693 0.00292762 0)
(-0.00277132 0.00286005 0)
(-0.00321489 0.0026116 0)
(-0.00351236 0.00251012 0)
(-0.00378636 0.00234653 0)
(-0.00395509 0.00225164 0)
(-0.00411023 0.00213302 0)
(-0.00419286 0.00204688 0)
(-0.00426519 0.00195229 0)
(-0.00428704 0.00187447 0)
(-0.00429957 0.00179437 0)
(-0.00427599 0.00172391 0)
(-0.00424341 0.0016536 0)
(-0.00418414 0.00158945 0)
(-0.00411605 0.0015264 0)
(-0.00402756 0.00146764 0)
(-0.00393043 0.0014103 0)
(-0.00381715 0.00135614 0)
(-0.0036954 0.00130347 0)
(-0.00356038 0.00125327 0)
(-0.00341703 0.00120451 0)
(-0.00326234 0.00115771 0)
(-0.00309936 0.00111224 0)
(-0.00292635 0.00106834 0)
(-0.00274489 0.00102565 0)
(-0.00255428 0.000984229 0)
(-0.00235484 0.00094384 0)
(-0.00214683 0.000904516 0)
(-0.00192929 0.000865968 0)
(-0.0017036 0.000828409 0)
(-0.00146729 0.0007912 0)
(-0.00122318 0.000755143 0)
(-0.000966905 0.000718676 0)
(-0.000703099 0.000683953 0)
(-0.000425234 0.000647473 0)
(-0.000139789 0.000614018 0)
(0.000161602 0.000576598 0)
(0.000471538 0.000544337 0)
(0.000798568 0.000505088 0)
(0.0011368 0.000473464 0)
(0.00149232 0.000432161 0)
(0.00186257 0.000399188 0)
(0.00225233 0.000356592 0)
(0.00265768 0.00031998 0)
(0.00308525 0.000276871 0)
(0.00353271 0.000235182 0)
(0.00400418 0.000189178 0)
(0.00449988 0.000141997 0)
(0.00502246 9.09579e-05 0)
(0.00557356 3.71068e-05 0)
(0.0061554 -2.10792e-05 0)
(0.00677037 -8.34722e-05 0)
(0.00742076 -0.000151206 0)
(0.00810936 -0.000224632 0)
(0.00883878 -0.000304809 0)
(0.00961209 -0.000392411 0)
(0.0104322 -0.000488568 0)
(0.0113025 -0.000594231 0)
(0.0122262 -0.000710678 0)
(0.0132068 -0.000839126 0)
(0.0142477 -0.000981047 0)
(0.0153527 -0.00113792 0)
(0.0165251 -0.00131142 0)
(0.0177686 -0.00150325 0)
(0.0190866 -0.00171528 0)
(0.0204825 -0.00194937 0)
(0.0219592 -0.00220747 0)
(0.0235197 -0.00249146 0)
(0.0251663 -0.00280321 0)
(0.0269011 -0.0031444 0)
(0.0287254 -0.00351652 0)
(0.03064 -0.00392074 0)
(0.0326452 -0.0043578 0)
(0.0347401 -0.00482793 0)
(0.0369234 -0.00533073 0)
(0.0391924 -0.00586502 0)
(0.0415438 -0.00642884 0)
(0.0439733 -0.00701926 0)
(0.0464754 -0.00763242 0)
(0.0490438 -0.00826346 0)
(0.051671 -0.00890656 0)
(0.0543489 -0.00955502 0)
(0.057068 -0.0102013 0)
(0.0598185 -0.0108372 0)
(0.0625894 -0.0114541 0)
(0.0653693 -0.0120431 0)
(0.068146 -0.012595 0)
(0.0709073 -0.0131011 0)
(0.0736404 -0.0135531 0)
(0.0763327 -0.0139432 0)
(0.0789718 -0.0142647 0)
(0.0815458 -0.0145119 0)
(0.0840432 -0.0146805 0)
(0.0864535 -0.0147676 0)
(0.0887675 -0.0147716 0)
(0.0909768 -0.0146927 0)
(0.0930746 -0.0145326 0)
(0.0950556 -0.014294 0)
(0.0969158 -0.0139813 0)
(0.0986528 -0.0135999 0)
(0.100266 -0.0131559 0)
(0.101755 -0.0126563 0)
(0.103122 -0.0121087 0)
(0.104371 -0.0115206 0)
(0.105504 -0.0108999 0)
(0.106526 -0.0102542 0)
(0.107443 -0.009591 0)
(0.10826 -0.00891716 0)
(0.108984 -0.0082392 0)
(0.10962 -0.00756289 0)
(0.110174 -0.0068935 0)
(0.110653 -0.00623543 0)
(0.111062 -0.0055926 0)
(0.111407 -0.00496813 0)
(0.111693 -0.00436445 0)
(0.111925 -0.00378387 0)
(0.112107 -0.00322695 0)
(0.112243 -0.00269632 0)
(0.112338 -0.00218948 0)
(-0.000748416 0.00189719 0)
(-0.00160458 0.00296408 0)
(-0.00198141 0.00346113 0)
(-0.00225077 0.00326213 0)
(-0.00212255 0.00313889 0)
(-0.00209987 0.00287213 0)
(-0.00185603 0.00269745 0)
(-0.00168842 0.00248832 0)
(-0.00139905 0.0023332 0)
(-0.00115039 0.00217047 0)
(-0.000832152 0.00203923 0)
(-0.000534059 0.00190858 0)
(-0.000193903 0.00179725 0)
(0.000136801 0.00168898 0)
(0.000494356 0.00159323 0)
(0.000847977 0.00150103 0)
(0.00121957 0.00141737 0)
(0.00159016 0.00133707 0)
(0.00197331 0.00126285 0)
(0.00235711 0.0011916 0)
(0.00275011 0.00112483 0)
(0.0031448 0.00106059 0)
(0.00354663 0.000999717 0)
(0.00395091 0.000940987 0)
(0.00436112 0.000884777 0)
(0.00477452 0.000830358 0)
(0.00519319 0.000777803 0)
(0.00561587 0.000726716 0)
(0.00604356 0.000676954 0)
(0.0064763 0.000628348 0)
(0.00691396 0.000580618 0)
(0.00735809 0.00053371 0)
(0.00780707 0.000487331 0)
(0.0082645 0.000441339 0)
(0.0087265 0.000395699 0)
(0.00919975 0.000349778 0)
(0.00967683 0.000304333 0)
(0.010169 0.000257516 0)
(0.0106637 0.000211756 0)
(0.0111784 0.000162992 0)
(0.0116942 0.00011617 0)
(0.0122346 6.47567e-05 0)
(0.0127772 1.49889e-05 0)
(0.0133451 -3.83528e-05 0)
(0.0139233 -9.51453e-05 0)
(0.0145195 -0.000150193 0)
(0.015138 -0.000209995 0)
(0.0157748 -0.00027321 0)
(0.0164365 -0.000339262 0)
(0.0171211 -0.00041018 0)
(0.0178332 -0.000484763 0)
(0.0185731 -0.00056502 0)
(0.0193442 -0.000650353 0)
(0.0201479 -0.000742354 0)
(0.0209874 -0.000841024 0)
(0.0218647 -0.000947695 0)
(0.0227829 -0.00106281 0)
(0.0237445 -0.00118761 0)
(0.0247528 -0.00132286 0)
(0.0258104 -0.00146985 0)
(0.0269208 -0.00162961 0)
(0.0280869 -0.00180351 0)
(0.029312 -0.00199282 0)
(0.0305993 -0.00219903 0)
(0.0319518 -0.0024236 0)
(0.0333728 -0.00266815 0)
(0.034865 -0.00293425 0)
(0.0364313 -0.00322358 0)
(0.0380739 -0.00353776 0)
(0.0397951 -0.00387839 0)
(0.0415966 -0.00424697 0)
(0.0434793 -0.00464484 0)
(0.0454439 -0.00507313 0)
(0.0474901 -0.00553265 0)
(0.0496171 -0.00602383 0)
(0.051823 -0.0065466 0)
(0.0541049 -0.0071003 0)
(0.0564591 -0.00768358 0)
(0.0588808 -0.00829427 0)
(0.0613638 -0.00892938 0)
(0.0639012 -0.00958494 0)
(0.0664847 -0.010256 0)
(0.0691051 -0.0109368 0)
(0.0717521 -0.0116204 0)
(0.0744146 -0.0122991 0)
(0.0770805 -0.0129646 0)
(0.0797374 -0.013608 0)
(0.082372 -0.0142199 0)
(0.0849711 -0.014791 0)
(0.0875213 -0.015312 0)
(0.0900093 -0.015774 0)
(0.0924222 -0.0161689 0)
(0.0947479 -0.0164894 0)
(0.0969751 -0.0167295 0)
(0.0990938 -0.0168844 0)
(0.101095 -0.0169508 0)
(0.102972 -0.0169271 0)
(0.104718 -0.0168133 0)
(0.106331 -0.0166109 0)
(0.107807 -0.0163231 0)
(0.109148 -0.0159544 0)
(0.110354 -0.0155108 0)
(0.111428 -0.0149991 0)
(0.112375 -0.014427 0)
(0.1132 -0.0138028 0)
(0.113911 -0.0131352 0)
(0.114516 -0.0124328 0)
(0.115021 -0.0117041 0)
(0.115437 -0.0109574 0)
(0.115771 -0.0102003 0)
(0.116032 -0.00944001 0)
(0.116229 -0.00868286 0)
(0.116369 -0.00793459 0)
(0.116461 -0.00719996 0)
(0.116511 -0.00648333 0)
(0.116525 -0.00578765 0)
(0.116509 -0.00511633 0)
(0.116469 -0.00447017 0)
(0.116409 -0.00385261 0)
(0.116331 -0.00326134 0)
(0.116241 -0.00270178 0)
(0.116139 -0.00216667 0)
(-0.00030131 0.00443743 0)
(-0.000216546 0.00403789 0)
(0.000303145 0.003959 0)
(0.000878573 0.00306907 0)
(0.00165752 0.00275347 0)
(0.00237851 0.00233231 0)
(0.00319828 0.00211131 0)
(0.00395927 0.0018738 0)
(0.00477187 0.00171257 0)
(0.00553795 0.00155106 0)
(0.00633076 0.0014245 0)
(0.00708866 0.00130105 0)
(0.00785941 0.00119647 0)
(0.00860408 0.00109553 0)
(0.00935368 0.00100609 0)
(0.0100835 0.000920082 0)
(0.0108139 0.000841688 0)
(0.0115289 0.000766303 0)
(0.0122421 0.00069624 0)
(0.0129434 0.000628723 0)
(0.0136417 0.000565031 0)
(0.0143308 0.000503437 0)
(0.0150165 0.000444602 0)
(0.0156952 0.000387447 0)
(0.0163709 0.000332233 0)
(0.0170415 0.000278311 0)
(0.0177097 0.00022566 0)
(0.0183747 0.00017394 0)
(0.0190382 0.000122909 0)
(0.0197003 7.24562e-05 0)
(0.020362 2.21769e-05 0)
(0.0210245 -2.79097e-05 0)
(0.0216873 -7.82485e-05 0)
(0.0223537 -0.00012891 0)
(0.023021 -0.000180047 0)
(0.0236952 -0.000232378 0)
(0.0243704 -0.000284904 0)
(0.025057 -0.000340342 0)
(0.0257436 -0.000394513 0)
(0.0264479 -0.000455161 0)
(0.0271499 -0.000510605 0)
(0.0278772 -0.000579563 0)
(0.0285997 -0.000635271 0)
(0.0293546 -0.000715796 0)
(0.0301058 -0.000773375 0)
(0.0308888 -0.000859609 0)
(0.0316822 -0.000934357 0)
(0.0325004 -0.00102228 0)
(0.0333385 -0.00111073 0)
(0.0342016 -0.00120791 0)
(0.0350906 -0.0013099 0)
(0.036008 -0.0014202 0)
(0.0369561 -0.0015377 0)
(0.0379371 -0.0016644 0)
(0.0389537 -0.00180027 0)
(0.0400082 -0.00194683 0)
(0.0411034 -0.00210456 0)
(0.0422418 -0.00227482 0)
(0.0434262 -0.00245844 0)
(0.0446593 -0.00265676 0)
(0.0459438 -0.00287084 0)
(0.0472823 -0.00310207 0)
(0.0486776 -0.00335167 0)
(0.0501321 -0.00362109 0)
(0.0516481 -0.00391165 0)
(0.0532277 -0.00422482 0)
(0.0548729 -0.00456194 0)
(0.0565851 -0.00492439 0)
(0.0583653 -0.00531342 0)
(0.060214 -0.00573017 0)
(0.0621313 -0.0061756 0)
(0.0641164 -0.00665043 0)
(0.0661678 -0.00715503 0)
(0.068283 -0.00768939 0)
(0.0704587 -0.00825302 0)
(0.0726906 -0.00884485 0)
(0.0749732 -0.00946312 0)
(0.0772999 -0.0101053 0)
(0.079663 -0.0107682 0)
(0.0820537 -0.0114475 0)
(0.0844619 -0.0121381 0)
(0.0868767 -0.0128341 0)
(0.0892861 -0.0135284 0)
(0.0916774 -0.0142133 0)
(0.0940371 -0.0148806 0)
(0.0963515 -0.0155212 0)
(0.0986065 -0.0161258 0)
(0.100788 -0.0166849 0)
(0.102883 -0.0171894 0)
(0.104877 -0.0176303 0)
(0.10676 -0.0179993 0)
(0.108518 -0.0182891 0)
(0.110145 -0.0184936 0)
(0.11163 -0.0186082 0)
(0.112968 -0.0186295 0)
(0.114156 -0.0185562 0)
(0.11519 -0.0183886 0)
(0.116072 -0.0181286 0)
(0.116803 -0.01778 0)
(0.117388 -0.0173478 0)
(0.117832 -0.0168385 0)
(0.118144 -0.0162597 0)
(0.118332 -0.0156198 0)
(0.118407 -0.0149276 0)
(0.11838 -0.0141924 0)
(0.118263 -0.0134235 0)
(0.118067 -0.0126299 0)
(0.117806 -0.0118203 0)
(0.117492 -0.011003 0)
(0.117134 -0.0101855 0)
(0.116746 -0.00937436 0)
(0.116335 -0.00857557 0)
(0.115913 -0.00779404 0)
(0.115486 -0.00703402 0)
(0.115062 -0.00629869 0)
(0.114647 -0.00559071 0)
(0.114245 -0.0049118 0)
(0.113861 -0.00426315 0)
(0.113499 -0.00364561 0)
(0.113159 -0.00305862 0)