/*--------------------------------*- C++ -*----------------------------------*\
| =========                 |                                                 |
| \\      /  F ield         | OpenFOAM: The Open Source CFD Toolbox           |
|  \\    /   O peration     | Version:  4.1                                   |
|   \\  /    A nd           | Web:      www.OpenFOAM.org                      |
|    \\/     M anipulation  |                                                 |
\*---------------------------------------------------------------------------*/
FoamFile
{
    version     2.0;
    format      ascii;
    class       volVectorField;
    location    "0.0045";
    object      U;
}
// * * * * * * * * * * * * * * * * * * * * * * * * * * * * * * * * * * * * * //

dimensions      [0 1 -1 0 0 0 0];

internalField   nonuniform List<vector> 
441
(
(-0.000128062 0.000126541 0)
(-0.000506184 0.000221095 0)
(-0.000904348 0.000258252 0)
(-0.0012889 0.000257659 0)
(-0.00164241 0.000238171 0)
(-0.00195552 0.00020871 0)
(-0.00222131 0.000173173 0)
(-0.00243424 0.00013347 0)
(-0.00258991 9.08352e-05 0)
(-0.00268514 4.62767e-05 0)
(-0.00271796 7.23817e-07 0)
(-0.00268764 -4.49179e-05 0)
(-0.00259469 -8.97358e-05 0)
(-0.00244084 -0.000132778 0)
(-0.00222912 -0.000173002 0)
(-0.00196378 -0.000209123 0)
(-0.00165034 -0.000239165 0)
(-0.00129573 -0.000259146 0)
(-0.000909438 -0.000260024 0)
(-0.000509123 -0.000222772 0)
(-0.000128801 -0.000127544 0)
(-0.000235151 0.000505893 0)
(-0.000970788 0.000926736 0)
(-0.00174173 0.00105394 0)
(-0.00248112 0.00103719 0)
(-0.00315671 0.000952713 0)
(-0.00375269 0.00083253 0)
(-0.0042573 0.000689897 0)
(-0.00466083 0.0005314 0)
(-0.00495545 0.000361537 0)
(-0.00513545 0.000184157 0)
(-0.00519729 2.88454e-06 0)
(-0.00513968 -0.000178726 0)
(-0.00496353 -0.000357092 0)
(-0.00467201 -0.000528507 0)
(-0.00427054 -0.000688988 0)
(-0.00376674 -0.000833851 0)
(-0.00317022 -0.000956266 0)
(-0.00249277 -0.00104267 0)
(-0.00175039 -0.00106059 0)
(-0.000975728 -0.000933148 0)
(-0.000236263 -0.000509584 0)
(-0.000297343 0.00093091 0)
(-0.00119664 0.0017133 0)
(-0.0021364 0.00193867 0)
(-0.00303706 0.00190145 0)
(-0.00385901 0.00174301 0)
(-0.00458305 0.0015212 0)
(-0.00519517 0.00125951 0)
(-0.00568401 0.000969575 0)
(-0.00604056 0.000659371 0)
(-0.00625826 0.000335767 0)
(-0.00633309 5.22609e-06 0)
(-0.00626356 -0.000325925 0)
(-0.00605068 -0.000651312 0)
(-0.00569803 -0.000964328 0)
(-0.0052118 -0.00125787 0)
(-0.00460073 -0.00152362 0)
(-0.00387605 -0.0017495 0)
(-0.00305178 -0.00191148 0)
(-0.00214737 -0.00195086 0)
(-0.00120292 -0.00172506 0)
(-0.000298784 -0.000937626 0)
(-0.000337104 0.00138802 0)
(-0.0013401 0.00255323 0)
(-0.00238501 0.00288282 0)
(-0.00338534 0.00282296 0)
(-0.00429689 0.00258452 0)
(-0.00509835 0.00225333 0)
(-0.00577458 0.00186412 0)
(-0.00631367 0.00143405 0)
(-0.00670636 0.000974804 0)
(-0.00694602 0.000496353 0)
(-0.00702865 7.95925e-06 0)
(-0.00695272 -0.000481359 0)
(-0.00671917 -0.000962516 0)
(-0.00633147 -0.00142604 0)
(-0.00579576 -0.00186161 0)
(-0.00512094 -0.00225705 0)
(-0.00431872 -0.00259452 0)
(-0.00340427 -0.00283842 0)
(-0.00239916 -0.00290164 0)
(-0.00134824 -0.00257139 0)
(-0.000339003 -0.00139837 0)
(-0.00037356 0.00188082 0)
(-0.00147745 0.0034536 0)
(-0.00262438 0.00389347 0)
(-0.00372021 0.00380772 0)
(-0.00471627 0.00348185 0)
(-0.00558949 0.00303213 0)
(-0.00632411 0.00250574 0)
(-0.00690823 0.00192597 0)
(-0.00733292 0.00130848 0)
(-0.007592 0.000666302 0)
(-0.00768178 1.13576e-05 0)
(-0.00760079 -0.000644892 0)
(-0.00734975 -0.00129089 0)
(-0.00693167 -0.00191445 0)
(-0.0063521 -0.00250207 0)
(-0.00561947 -0.00303738 0)
(-0.00474537 -0.00349617 0)
(-0.00374555 -0.00382997 0)
(-0.00264341 -0.00392066 0)
(-0.00148844 -0.00347988 0)
(-0.000376159 -0.0018958 0)
(-0.000415836 0.00242099 0)
(-0.00164116 0.00443678 0)
(-0.0029109 0.00499461 0)
(-0.00412038 0.00487763 0)
(-0.00521553 0.00445347 0)
(-0.00617152 0.00387234 0)
(-0.00697235 0.00319555 0)
(-0.00760673 0.00245331 0)
(-0.00806672 0.00166554 0)
(-0.00834714 0.000848269 0)
(-0.00844495 1.5745e-05 0)
(-0.00835888 -0.000818555 0)
(-0.00808926 -0.00164105 0)
(-0.00763821 -0.00243714 0)
(-0.0070101 -0.0031902 0)
(-0.00621215 -0.00387942 0)
(-0.00525519 -0.00447329 0)
(-0.0041551 -0.0049087 0)
(-0.00293709 -0.00503277 0)
(-0.00165636 -0.00447378 0)
(-0.000419472 -0.00244212 0)
(-0.000468507 0.00302341 0)
(-0.00184692 0.00552984 0)
(-0.00327086 0.00621497 0)
(-0.00462139 0.00605847 0)
(-0.00583755 0.00552055 0)
(-0.00689276 0.00479029 0)
(-0.00777143 0.00394548 0)
(-0.00846382 0.00302428 0)
(-0.00896396 0.00205115 0)
(-0.00926846 0.00104488 0)
(-0.00937551 2.15015e-05 0)
(-0.00928421 -0.00100424 0)
(-0.00899427 -0.00201747 0)
(-0.00850634 -0.00300178 0)
(-0.00782269 -0.00393764 0)
(-0.00694828 -0.00479948 0)
(-0.00589211 -0.00554741 0)
(-0.00466947 -0.00610113 0)
(-0.00330735 -0.00626779 0)
(-0.00186822 -0.00558133 0)
(-0.000473646 -0.00305291 0)
(-0.000534917 0.00370578 0)
(-0.00210669 0.00676374 0)
(-0.00372373 0.00758665 0)
(-0.00524827 0.00737803 0)
(-0.00661069 0.00670483 0)
(-0.00778293 0.00580173 0)
(-0.00875101 0.00476616 0)
(-0.00950833 0.0036456 0)
(-0.0100525 0.00246922 0)
(-0.010383 0.00125811 0)
(-0.0105004 2.90932e-05 0)
(-0.0104041 -0.00120301 0)
(-0.0100931 -0.00242323 0)
(-0.00956567 -0.00361437 0)
(-0.00882061 -0.00475454 0)
(-0.00785894 -0.00581321 0)
(-0.00668603 -0.00674068 0)
(-0.00531522 -0.00743607 0)
(-0.00377495 -0.00765931 0)
(-0.00213676 -0.00683508 0)
(-0.00054223 -0.00374686 0)
(-0.000618833 0.00448962 0)
(-0.00243444 0.00817497 0)
(-0.00429196 0.00914618 0)
(-0.00602877 0.00886631 0)
(-0.00756467 0.00802794 0)
(-0.00887101 0.0069206 0)
(-0.00993768 0.00566558 0)
(-0.0107639 0.00432125 0)
(-0.0113531 0.00292153 0)
(-0.0117099 0.0014888 0)
(-0.0118379 3.90964e-05 0)
(-0.0117379 -0.00141454 0)
(-0.0114072 -0.00285899 0)
(-0.0108408 -0.00427789 0)
(-0.0100319 -0.00564811 0)
(-0.00897498 -0.00693422 0)
(-0.00766889 -0.00807509 0)
(-0.00612245 -0.00894471 0)
(-0.00436433 -0.00924585 0)
(-0.00247727 -0.00827379 0)
(-0.000629318 -0.0045469 0)
(-0.00072543 0.0054021 0)
(-0.00284971 0.00980823 0)
(-0.00500632 0.0109363 0)
(-0.00699974 0.0105558 0)
(-0.00873715 0.00951054 0)
(-0.0101917 0.00815744 0)
(-0.0113611 0.00664724 0)
(-0.0122546 0.00505087 0)
(-0.0128852 0.0034065 0)
(-0.0132654 0.00173603 0)
(-0.0134036 5.22132e-05 0)
(-0.0133021 -0.00163651 0)
(-0.0129568 -0.00332171 0)
(-0.0123571 -0.00499053 0)
(-0.0114881 -0.0066206 0)
(-0.0103337 -0.0081723 0)
(-0.00888159 -0.00957144 0)
(-0.00713148 -0.010661 0)
(-0.00510945 -0.0110729 0)
(-0.00291138 -0.00994552 0)
(-0.000740625 -0.00548238 0)
(-0.000862257 0.00647903 0)
(-0.00338117 0.0117205 0)
(-0.00591104 0.0130083 0)
(-0.00821219 0.0124814 0)
(-0.0101779 0.0111702 0)
(-0.011788 0.00951648 0)
(-0.0130552 0.0077072 0)
(-0.0140052 0.00582724 0)
(-0.0146663 0.00391746 0)
(-0.0150621 0.00199622 0)
(-0.0152083 6.92726e-05 0)
(-0.0151097 -0.0018636 0)
(-0.0147596 -0.0038028 0)
(-0.0141404 -0.00574299 0)
(-0.013225 -0.007666 0)
(-0.0119813 -0.00953008 0)
(-0.0103783 -0.0112469 0)
(-0.00839864 -0.0126212 0)
(-0.00605963 -0.0131955 0)
(-0.00347126 -0.0119122 0)
(-0.000884599 -0.00659253 0)
(-0.0010403 0.00776973 0)
(-0.00407117 0.0139874 0)
(-0.00706967 0.0154248 0)
(-0.00973598 0.0146789 0)
(-0.0119505 0.0130176 0)
(-0.0137103 0.0109906 0)
(-0.0150546 0.00882937 0)
(-0.0160362 0.00663256 0)
(-0.0167053 0.00444012 0)
(-0.0171021 0.00226188 0)
(-0.0172517 9.12053e-05 0)
(-0.0171625 -0.0020863 0)
(-0.016825 -0.00428555 0)
(-0.0162119 -0.00651448 0)
(-0.0152795 -0.00876485 0)
(-0.013972 -0.0109973 0)
(-0.0122288 -0.0131103 0)
(-0.0100016 -0.0148624 0)
(-0.0072865 -0.0156811 0)
(-0.00420511 -0.0142572 0)
(-0.00107376 -0.00793218 0)
(-0.00127432 0.00934542 0)
(-0.00497888 0.0167138 0)
(-0.00856737 0.0182635 0)
(-0.0116573 0.0171818 0)
(-0.014124 0.0150487 0)
(-0.0160022 0.0125534 0)
(-0.0173773 0.00997859 0)
(-0.0183433 0.00743335 0)
(-0.0189822 0.00494935 0)
(-0.0193552 0.00252004 0)
(-0.0195002 0.000118969 0)
(-0.0194299 -0.00228945 0)
(-0.0191317 -0.00474181 0)
(-0.0185666 -0.00726732 0)
(-0.0176699 -0.00987656 0)
(-0.0163526 -0.0125416 0)
(-0.0145088 -0.015153 0)
(-0.0120372 -0.0174175 0)
(-0.00888754 -0.0186137 0)
(-0.0051817 -0.0170972 0)
(-0.0013254 -0.00958185 0)
(-0.00157822 0.0113131 0)
(-0.00616854 0.0200507 0)
(-0.0104869 0.0216204 0)
(-0.0140388 0.0200124 0)
(-0.0167189 0.0172317 0)
(-0.0186367 0.0141458 0)
(-0.0199541 0.0110906 0)
(-0.0208251 0.0081739 0)
(-0.0213728 0.00540539 0)
(-0.0216845 0.00275044 0)
(-0.0218117 0.000153364 0)
(-0.0217726 -0.00245074 0)
(-0.0215515 -0.0051284 0)
(-0.0210977 -0.00794015 0)
(-0.0203221 -0.0109285 0)
(-0.0190935 -0.0140931 0)
(-0.0172417 -0.0173325 0)
(-0.014578 -0.020303 0)
(-0.010961 -0.0220948 0)
(-0.00647924 -0.020601 0)
(-0.00165727 -0.0116644 0)
(-0.00194004 0.0138343 0)
(-0.00763032 0.0242139 0)
(-0.0127748 0.0256022 0)
(-0.0167382 0.0231577 0)
(-0.0194923 0.01948 0)
(-0.0212826 0.0156556 0)
(-0.0223866 0.0120586 0)
(-0.023037 0.00876851 0)
(-0.0234036 0.00574991 0)
(-0.0235993 0.0029238 0)
(-0.0236885 0.000194549 0)
(-0.023694 -0.00253992 0)
(-0.0235988 -0.005384 0)
(-0.0233434 -0.00844064 0)
(-0.0228163 -0.0118019 0)
(-0.0218415 -0.0155218 0)
(-0.0201671 -0.0195406 0)
(-0.0174754 -0.0234886 0)
(-0.0134606 -0.0262307 0)
(-0.00810147 -0.025008 0)
(-0.00206172 -0.0143676 0)
(-0.00222999 0.0171322 0)
(-0.00897466 0.0294713 0)
(-0.0147537 0.0302713 0)
(-0.0187953 0.026503 0)
(-0.0212556 0.0215994 0)
(-0.0225904 0.0168831 0)
(-0.0232228 0.0127149 0)
(-0.0234655 0.00909328 0)
(-0.0235263 0.00590278 0)
(-0.0235325 0.00300035 0)
(-0.0235533 0.000240786 0)
(-0.0236136 -0.00251999 0)
(-0.0236983 -0.00542888 0)
(-0.0237478 -0.00864043 0)
(-0.0236422 -0.0123162 0)
(-0.0231755 -0.0166032 0)
(-0.0220195 -0.0215456 0)
(-0.0197019 -0.0268176 0)
(-0.0156688 -0.0310602 0)
(-0.00964937 -0.0306055 0)
(-0.00240918 -0.017955 0)
(-0.00191883 0.0214056 0)
(-0.00851309 0.0359568 0)
(-0.0137395 0.0354226 0)
(-0.0167901 0.0296549 0)
(-0.0181224 0.0231794 0)
(-0.0184088 0.0174874 0)
(-0.0181732 0.0128092 0)
(-0.0177547 0.00898015 0)
(-0.0173534 0.00576148 0)
(-0.01708 0.00292929 0)
(-0.0169902 0.000285658 0)
(-0.0171042 -0.0023527 0)
(-0.0174131 -0.0051716 0)
(-0.0178739 -0.00837828 0)
(-0.0183919 -0.0122183 0)
(-0.0187832 -0.016974 0)
(-0.0187144 -0.0228848 0)
(-0.0176271 -0.029814 0)
(-0.0147274 -0.0362926 0)
(-0.00934505 -0.0375003 0)
(-0.00215461 -0.0226731 0)
(0.000679498 0.026466 0)
(-0.00102057 0.0430135 0)
(-0.00197677 0.03999 0)
(-0.00148633 0.0315726 0)
(-0.000118607 0.0234188 0)
(0.00155343 0.0169245 0)
(0.00316491 0.0119984 0)
(0.00452284 0.00822298 0)
(0.00553829 0.00520859 0)
(0.00617562 0.00265154 0)
(0.00642279 0.000313681 0)
(0.00627601 -0.00201091 0)
(0.00573393 -0.00452919 0)
(0.00479915 -0.00748449 0)
(0.00348808 -0.0111975 0)
(0.00185466 -0.0161038 0)
(4.19299e-05 -0.0227228 0)
(-0.00162172 -0.0313195 0)
(-0.00249537 -0.0406603 0)
(-0.00172336 -0.0448537 0)
(0.000440493 -0.0283434 0)
(0.0106589 0.0303941 0)
(0.0266975 0.0471554 0)
(0.0381195 0.0407006 0)
(0.04648 0.0299642 0)
(0.0526292 0.0209462 0)
(0.0571739 0.0144409 0)
(0.0605248 0.00988753 0)
(0.0629459 0.00661919 0)
(0.0646079 0.00413998 0)
(0.0656192 0.00211262 0)
(0.0660421 0.000298195 0)
(0.065901 -0.00149692 0)
(0.0651832 -0.00346471 0)
(0.063833 -0.00584062 0)
(0.0617345 -0.00896298 0)
(0.0586759 -0.0133524 0)
(0.0542918 -0.0197678 0)
(0.0479975 -0.0289975 0)
(0.0390376 -0.0406162 0)
(0.0267352 -0.0487434 0)
(0.0105662 -0.0329471 0)
(0.0448712 0.0283791 0)
(0.103603 0.0408174 0)
(0.137765 0.0319784 0)
(0.156902 0.0217859 0)
(0.168194 0.014366 0)
(0.175201 0.00948124 0)
(0.179758 0.00629334 0)
(0.182785 0.00412826 0)
(0.18476 0.0025548 0)
(0.185941 0.00130725 0)
(0.186457 0.000211302 0)
(0.186358 -0.000866729 0)
(0.185626 -0.00205679 0)
(0.184159 -0.00352143 0)
(0.181723 -0.00550685 0)
(0.177825 -0.00842511 0)
(0.171439 -0.012968 0)
(0.160444 -0.0201332 0)
(0.140766 -0.0306321 0)
(0.104873 -0.0411011 0)
(0.0451035 -0.0311596 0)
(0.181093 0.00342621 0)
(0.28931 0.00422657 0)
(0.336203 0.0057372 0)
(0.356211 0.00491317 0)
(0.36618 0.00355277 0)
(0.371626 0.0024376 0)
(0.374878 0.00164198 0)
(0.37692 0.00108254 0)
(0.378209 0.000671872 0)
(0.378969 0.000346657 0)
(0.379308 6.24783e-05 0)
(0.379266 -0.000215174 0)
(0.37883 -0.000518529 0)
(0.377924 -0.000883859 0)
(0.376358 -0.00135626 0)
(0.373701 -0.00198806 0)
(0.368942 -0.00280847 0)
(0.359548 -0.00370804 0)
(0.339344 -0.00410083 0)
(0.290403 -0.00321385 0)
(0.179535 -0.00605077 0)
)
;

boundaryField
{
    movingWall
    {
        type            fixedValue;
        value           uniform (0.5 0 0);
    }
    fixedWalls
    {
        type            noSlip;
    }
    frontAndBack
    {
        type            empty;
    }
}


// ************************************************************************* //
