/*--------------------------------*- C++ -*----------------------------------*\
| =========                 |                                                 |
| \\      /  F ield         | OpenFOAM: The Open Source CFD Toolbox           |
|  \\    /   O peration     | Version:  4.1                                   |
|   \\  /    A nd           | Web:      www.OpenFOAM.org                      |
|    \\/     M anipulation  |                                                 |
\*---------------------------------------------------------------------------*/
FoamFile
{
    version     2.0;
    format      ascii;
    class       volVectorField;
    location    "0.0234";
    object      U;
}
// * * * * * * * * * * * * * * * * * * * * * * * * * * * * * * * * * * * * * //

dimensions      [0 1 -1 0 0 0 0];

internalField   nonuniform List<vector> 
441
(
(-0.000105353 8.84572e-05 0)
(-0.000510693 0.000287351 0)
(-0.00110604 0.000477055 0)
(-0.00183587 0.000601029 0)
(-0.00262826 0.000651815 0)
(-0.00341331 0.000637156 0)
(-0.00413161 0.000569443 0)
(-0.00473666 0.000461535 0)
(-0.00519437 0.000325101 0)
(-0.00548156 0.000170242 0)
(-0.00558438 5.82461e-06 0)
(-0.00549733 -0.000159841 0)
(-0.00522311 -0.000318179 0)
(-0.00477335 -0.000459579 0)
(-0.00417011 -0.000572837 0)
(-0.00344772 -0.000645047 0)
(-0.00265427 -0.000662265 0)
(-0.00185178 -0.000611491 0)
(-0.00111299 -0.000485117 0)
(-0.000512029 -0.000291597 0)
(-0.000105066 -8.91362e-05 0)
(-0.000344899 0.000471832 0)
(-0.00152212 0.00135904 0)
(-0.00312794 0.00209204 0)
(-0.0050229 0.00255202 0)
(-0.00703923 0.00272418 0)
(-0.00901483 0.00263986 0)
(-0.0108109 0.0023472 0)
(-0.0123177 0.0018964 0)
(-0.0134547 0.00133327 0)
(-0.0141665 0.00069754 0)
(-0.0144204 2.41238e-05 0)
(-0.0142035 -0.000654259 0)
(-0.0135222 -0.00130385 0)
(-0.0124046 -0.00188678 0)
(-0.0109031 -0.00235896 0)
(-0.0090988 -0.00266968 0)
(-0.00710468 -0.00276446 0)
(-0.00506522 -0.00259274 0)
(-0.00314886 -0.00212369 0)
(-0.00152843 -0.00137599 0)
(-0.000345259 -0.000475019 0)
(-0.000595388 0.00108054 0)
(-0.00248537 0.00293398 0)
(-0.00495592 0.00435701 0)
(-0.0077995 0.00521517 0)
(-0.0107812 0.00550829 0)
(-0.013677 0.00530438 0)
(-0.0162953 0.00469801 0)
(-0.0184844 0.00378635 0)
(-0.0201326 0.00265782 0)
(-0.0211636 0.00138915 0)
(-0.0215318 4.76702e-05 0)
(-0.0212191 -0.00130353 0)
(-0.0202346 -0.00259935 0)
(-0.0186165 -0.00376677 0)
(-0.0164372 -0.00472063 0)
(-0.0138084 -0.00536298 0)
(-0.0108863 -0.00558818 0)
(-0.00787031 -0.00529675 0)
(-0.00499371 -0.00442132 0)
(-0.00249909 -0.00296932 0)
(-0.000597297 -0.00108786 0)
(-0.000825069 0.00190144 0)
(-0.00336313 0.00498253 0)
(-0.00660276 0.00723176 0)
(-0.0102709 0.00853875 0)
(-0.014073 0.00894295 0)
(-0.0177357 0.00856556 0)
(-0.0210282 0.00755963 0)
(-0.0237705 0.00607867 0)
(-0.0258305 0.00426105 0)
(-0.0271188 0.00222611 0)
(-0.027582 7.80872e-05 0)
(-0.0271984 -0.00208566 0)
(-0.0259774 -0.00416461 0)
(-0.0239625 -0.00604555 0)
(-0.021237 -0.00759573 0)
(-0.0179325 -0.00866147 0)
(-0.0142345 -0.00907533 0)
(-0.0103838 -0.00867567 0)
(-0.00666681 -0.00734156 0)
(-0.0033892 -0.00504448 0)
(-0.000829731 -0.00191526 0)
(-0.00104052 0.002923 0)
(-0.00419247 0.00748564 0)
(-0.00815908 0.0106972 0)
(-0.0125994 0.0125004 0)
(-0.0171587 0.0130001 0)
(-0.0215171 0.0123906 0)
(-0.0254116 0.0108982 0)
(-0.0286413 0.00874341 0)
(-0.0310618 0.00612162 0)
(-0.0325767 0.00319922 0)
(-0.0331284 0.000119882 0)
(-0.0326926 -0.00298299 0)
(-0.031277 -0.00597149 0)
(-0.028925 -0.00868895 0)
(-0.0257244 -0.0109495 0)
(-0.0218174 -0.0125349 0)
(-0.0174114 -0.0132034 0)
(-0.0127827 -0.0127146 0)
(-0.00826866 -0.0108727 0)
(-0.00424099 -0.00758786 0)
(-0.00105038 -0.00294776 0)
(-0.00125759 0.00414613 0)
(-0.00503454 0.0104502 0)
(-0.00974083 0.0147652 0)
(-0.0149609 0.0171112 0)
(-0.0202743 0.0176849 0)
(-0.0253144 0.0167772 0)
(-0.0297889 0.014706 0)
(-0.0334816 0.0117714 0)
(-0.0362423 0.00823315 0)
(-0.037973 0.00430814 0)
(-0.0386155 0.00018028 0)
(-0.0381434 -0.00398156 0)
(-0.0365603 -0.00800234 0)
(-0.0339049 -0.0116804 0)
(-0.0302618 -0.0147717 0)
(-0.025777 -0.0169838 0)
(-0.0206731 -0.0179852 0)
(-0.0152594 -0.0174355 0)
(-0.00992732 -0.0150383 0)
(-0.00512228 -0.0106155 0)
(-0.00127678 -0.00419007 0)
(-0.00149293 0.00558807 0)
(-0.00595226 0.013915 0)
(-0.0114607 0.0194832 0)
(-0.0175154 0.0224155 0)
(-0.023622 0.0230312 0)
(-0.0293645 0.0217466 0)
(-0.0344243 0.0189938 0)
(-0.0385763 0.0151669 0)
(-0.0416714 0.0105986 0)
(-0.0436166 0.00555835 0)
(-0.0443569 0.000269014 0)
(-0.0438647 -0.00506829 0)
(-0.042137 -0.0102444 0)
(-0.0392016 -0.0150131 0)
(-0.0351318 -0.019068 0)
(-0.0300684 -0.0220318 0)
(-0.0242421 -0.0234641 0)
(-0.0179927 -0.0228973 0)
(-0.0117694 -0.0199023 0)
(-0.00610397 -0.01418 0)
(-0.00152759 -0.00566543 0)
(-0.00176083 0.00728205 0)
(-0.00699945 0.0179492 0)
(-0.013411 0.0249297 0)
(-0.0203857 0.0284825 0)
(-0.0273448 0.02909 0)
(-0.0338213 0.0273299 0)
(-0.0394754 0.0237763 0)
(-0.0440821 0.0189355 0)
(-0.0475036 0.0132209 0)
(-0.04966 0.00695596 0)
(-0.0505053 0.000397885 0)
(-0.0500121 -0.0062266 0)
(-0.0481678 -0.0126807 0)
(-0.044982 -0.0186773 0)
(-0.0405064 -0.0238453 0)
(-0.0348636 -0.0277103 0)
(-0.0282817 -0.0297005 0)
(-0.0211244 -0.029187 0)
(-0.0139026 -0.0255643 0)
(-0.00724903 -0.018369 0)
(-0.0018195 -0.0074157 0)
(-0.00207112 0.0092751 0)
(-0.0082128 0.0226452 0)
(-0.0156481 0.0312018 0)
(-0.0236348 0.0353901 0)
(-0.0314976 0.0359093 0)
(-0.0387203 0.0335467 0)
(-0.0449524 0.0290528 0)
(-0.0499835 0.0230668 0)
(-0.0537011 0.016091 0)
(-0.0560506 0.00850071 0)
(-0.0570024 0.000579697 0)
(-0.0565321 -0.00743118 0)
(-0.0546143 -0.015279 0)
(-0.0512321 -0.0226436 0)
(-0.0464012 -0.0290898 0)
(-0.0402086 -0.0340354 0)
(-0.0328613 -0.0367505 0)
(-0.0247344 -0.0364007 0)
(-0.0163984 -0.032147 0)
(-0.0086039 -0.0232989 0)
(-0.00216497 -0.00949944 0)
(-0.00242657 0.0116241 0)
(-0.00960167 0.0281067 0)
(-0.0181729 0.038396 0)
(-0.027234 0.0431979 0)
(-0.036004 0.0435048 0)
(-0.0439263 0.0403756 0)
(-0.0506588 0.03478 0)
(-0.0560272 0.0275127 0)
(-0.059965 0.0191709 0)
(-0.0624584 0.0101764 0)
(-0.0635047 0.000826093 0)
(-0.0630867 -0.0086423 0)
(-0.0611639 -0.0179775 0)
(-0.0576829 -0.026841 0)
(-0.0526062 -0.0347394 0)
(-0.0459612 -0.0409751 0)
(-0.0379062 -0.044631 0)
(-0.0288027 -0.0446139 0)
(-0.0192694 -0.0397734 0)
(-0.010187 -0.0291014 0)
(-0.00256938 -0.0119882 0)
(-0.00281874 0.0143896 0)
(-0.0111324 0.0344295 0)
(-0.0208993 0.0465766 0)
(-0.0310155 0.051909 0)
(-0.0405934 0.0518178 0)
(-0.0490576 0.0477142 0)
(-0.0561059 0.0408369 0)
(-0.0616316 0.0321587 0)
(-0.0656404 0.0223738 0)
(-0.0681792 0.0119388 0)
(-0.0692848 0.00114378 0)
(-0.068953 -0.0098007 0)
(-0.0671274 -0.0206704 0)
(-0.063709 -0.0311313 0)
(-0.0585879 -0.0406473 0)
(-0.051702 -0.0484042 0)
(-0.0431215 -0.0532713 0)
(-0.0331524 -0.0538342 0)
(-0.0224314 -0.0485295 0)
(-0.0119701 -0.0359017 0)
(-0.00302637 -0.01496 0)
(-0.00322132 0.0176261 0)
(-0.0127036 0.0416728 0)
(-0.0236075 0.0557298 0)
(-0.0346029 0.0614134 0)
(-0.0447119 0.0606579 0)
(-0.0533834 0.0553269 0)
(-0.0604026 0.046982 0)
(-0.0657725 0.0367916 0)
(-0.0696021 0.0255409 0)
(-0.0720199 0.0137012 0)
(-0.0731154 0.00152892 0)
(-0.0729051 -0.0108239 0)
(-0.0713184 -0.0231931 0)
(-0.0682048 -0.0352821 0)
(-0.0633654 -0.0465395 0)
(-0.0566154 -0.0560477 0)
(-0.0478864 -0.0624457 0)
(-0.0373655 -0.0639328 0)
(-0.0256474 -0.0584069 0)
(-0.0138491 -0.0437823 0)
(-0.00351022 -0.0184877 0)
(-0.00357952 0.0213675 0)
(-0.0141071 0.0498146 0)
(-0.0258736 0.0656963 0)
(-0.0373114 0.0714109 0)
(-0.0474032 0.0696293 0)
(-0.0556952 0.0627833 0)
(-0.0621271 0.0528062 0)
(-0.0668605 0.0410663 0)
(-0.0701378 0.0284194 0)
(-0.0721868 0.0153213 0)
(-0.0731601 0.00196015 0)
(-0.073102 -0.0116062 0)
(-0.0719337 -0.0253128 0)
(-0.0694556 -0.0389426 0)
(-0.0653713 -0.0519727 0)
(-0.0593463 -0.0634163 0)
(-0.0511174 -0.0716887 0)
(-0.0406663 -0.0745509 0)
(-0.0284441 -0.0692181 0)
(-0.0155989 -0.0527278 0)
(-0.00396383 -0.0226218 0)
(-0.00379232 0.0256039 0)
(-0.0149658 0.0586877 0)
(-0.0269619 0.076077 0)
(-0.0380088 0.0813117 0)
(-0.0471561 0.0780448 0)
(-0.0541596 0.0693947 0)
(-0.0591957 0.0576925 0)
(-0.0626305 0.0444825 0)
(-0.0648592 0.0306501 0)
(-0.0662126 0.0165925 0)
(-0.0669072 0.0023917 0)
(-0.0670195 -0.012025 0)
(-0.0664736 -0.0267305 0)
(-0.065036 -0.0416356 0)
(-0.0623245 -0.0563047 0)
(-0.0578479 -0.0697472 0)
(-0.0511027 -0.0802026 0)
(-0.0417644 -0.0849812 0)
(-0.0299887 -0.0804783 0)
(-0.0168019 -0.0625409 0)
(-0.00427931 -0.0273613 0)
(-0.00368009 0.0302474 0)
(-0.0146229 0.0678846 0)
(-0.0256508 0.0861056 0)
(-0.0349106 0.0901157 0)
(-0.0417089 0.0848399 0)
(-0.046159 0.0741689 0)
(-0.0487529 0.060802 0)
(-0.050082 0.0463897 0)
(-0.0506824 0.0317772 0)
(-0.0509658 0.0172508 0)
(-0.0511947 0.00275001 0)
(-0.051475 -0.0119551 0)
(-0.0517489 -0.0271044 0)
(-0.0517826 -0.0427799 0)
(-0.0511516 -0.0587028 0)
(-0.0492431 -0.073977 0)
(-0.04531 -0.0867781 0)
(-0.0386383 -0.0940361 0)
(-0.0288973 -0.0912507 0)
(-0.0167263 -0.0727222 0)
(-0.0042634 -0.0326111 0)
(-0.00291698 0.0350735 0)
(-0.0119196 0.0766142 0)
(-0.0199177 0.0944787 0)
(-0.0252603 0.096288 0)
(-0.0277934 0.0885194 0)
(-0.0281338 0.0758178 0)
(-0.0271144 0.0611192 0)
(-0.0255088 0.0460441 0)
(-0.0239258 0.0312997 0)
(-0.0227938 0.0170062 0)
(-0.0223778 0.00293868 0)
(-0.022797 -0.0112947 0)
(-0.0240293 -0.0261047 0)
(-0.025892 -0.0417669 0)
(-0.0280029 -0.0582226 0)
(-0.0297309 -0.0747931 0)
(-0.030172 -0.0897781 0)
(-0.0282263 -0.0999363 0)
(-0.0229093 -0.0999586 0)
(-0.0140926 -0.0822931 0)
(-0.00356801 -0.0381109 0)
(-0.00086364 0.0396011 0)
(-0.00470026 0.0834564 0)
(-0.00632723 0.099134 0)
(-0.00479859 0.0976647 0)
(-0.000791271 0.0871961 0)
(0.00455719 0.0728799 0)
(0.0101962 0.0576031 0)
(0.0153331 0.0427509 0)
(0.0194338 0.0287815 0)
(0.0221646 0.015611 0)
(0.0233295 0.00285817 0)
(0.0228258 -0.00999845 0)
(0.0206279 -0.0235037 0)
(0.0168056 -0.0381074 0)
(0.0115796 -0.053997 0)
(0.00541525 -0.0708262 0)
(-0.000857688 -0.0872648 0)
(-0.00596287 -0.100288 0)
(-0.00829075 -0.104181 0)
(-0.00657205 -0.0895197 0)
(-0.00152208 -0.0432987 0)
(0.0039173 0.0428547 0)
(0.0113869 0.0859735 0)
(0.0212108 0.0970361 0)
(0.033117 0.0915242 0)
(0.0456995 0.0788571 0)
(0.0576976 0.0640532 0)
(0.0682522 0.0495001 0)
(0.076871 0.036116 0)
(0.0833151 0.0240315 0)
(0.0874851 0.0129685 0)
(0.0893346 0.002445 0)
(0.0888158 -0.00811176 0)
(0.0858559 -0.0192948 0)
(0.0803651 -0.0316489 0)
(0.0722834 -0.0455621 0)
(0.0616798 -0.0610616 0)
(0.0489211 -0.0774107 0)
(0.0349088 -0.0923287 0)
(0.0213088 -0.100557 0)
(0.0103887 -0.0915244 0)
(0.00335611 -0.0470453 0)
(0.0155652 0.0425197 0)
(0.045954 0.0796904 0)
(0.0738603 0.0839664 0)
(0.0987861 0.0750233 0)
(0.120226 0.0620337 0)
(0.138014 0.0488293 0)
(0.152235 0.036839 0)
(0.163105 0.0263929 0)
(0.170884 0.017328 0)
(0.175805 0.00926358 0)
(0.178015 0.00172737 0)
(0.177547 -0.00578838 0)
(0.174301 -0.013801 0)
(0.168034 -0.0228153 0)
(0.158366 -0.0332802 0)
(0.144814 -0.0454857 0)
(0.12687 -0.0593168 0)
(0.104184 -0.0736509 0)
(0.0769579 -0.0849015 0)
(0.0464973 -0.0834251 0)
(0.0152652 -0.0468141 0)
(0.0494252 0.0346341 0)
(0.122062 0.0586215 0)
(0.172342 0.0562501 0)
(0.207514 0.047178 0)
(0.233224 0.0373991 0)
(0.252304 0.0285744 0)
(0.266429 0.0210888 0)
(0.276661 0.0148551 0)
(0.283719 0.00961774 0)
(0.288083 0.00506518 0)
(0.290035 0.000872641 0)
(0.28967 -0.00328466 0)
(0.286898 -0.00773003 0)
(0.281419 -0.0127856 0)
(0.272683 -0.0187667 0)
(0.259808 -0.0259588 0)
(0.241417 -0.0345531 0)
(0.21533 -0.0444396 0)
(0.178152 -0.0545101 0)
(0.124287 -0.0593779 0)
(0.0495229 -0.0382133 0)
(0.182853 0.00463863 0)
(0.29668 0.00816677 0)
(0.350473 0.0115855 0)
(0.377613 0.0112434 0)
(0.394054 0.00937615 0)
(0.404871 0.0072872 0)
(0.412302 0.00539677 0)
(0.417421 0.00379041 0)
(0.42083 0.00243402 0)
(0.422882 0.00125544 0)
(0.423773 0.000172447 0)
(0.423578 -0.000897651 0)
(0.422255 -0.00203415 0)
(0.419639 -0.00330831 0)
(0.41539 -0.0047715 0)
(0.408887 -0.0064249 0)
(0.398933 -0.00814406 0)
(0.382942 -0.009513 0)
(0.355041 -0.00949158 0)
(0.298243 -0.00693047 0)
(0.181129 -0.00727598 0)
)
;

boundaryField
{
    movingWall
    {
        type            fixedValue;
        value           uniform (0.5 0 0);
    }
    fixedWalls
    {
        type            noSlip;
    }
    frontAndBack
    {
        type            empty;
    }
}


// ************************************************************************* //
