/*--------------------------------*- C++ -*----------------------------------*\
| =========                 |                                                 |
| \\      /  F ield         | OpenFOAM: The Open Source CFD Toolbox           |
|  \\    /   O peration     | Version:  4.1                                   |
|   \\  /    A nd           | Web:      www.OpenFOAM.org                      |
|    \\/     M anipulation  |                                                 |
\*---------------------------------------------------------------------------*/
FoamFile
{
    version     2.0;
    format      ascii;
    class       volScalarField;
    location    "5130";
    object      p;
}
// * * * * * * * * * * * * * * * * * * * * * * * * * * * * * * * * * * * * * //

dimensions      [1 -1 -2 0 0 0 0];

internalField   nonuniform List<scalar> 
1275
(
0.712253
0.712205
0.712199
0.712156
0.712143
0.7121
0.712084
0.712033
0.712018
0.711949
0.712266
0.712214
0.712208
0.712163
0.712152
0.712108
0.712096
0.71205
0.712041
0.711995
0.712283
0.712229
0.712224
0.712177
0.712167
0.712124
0.712112
0.712069
0.712057
0.712018
0.712303
0.712247
0.712243
0.712195
0.712188
0.712145
0.712135
0.712096
0.712088
0.712055
0.712322
0.712266
0.712262
0.712215
0.712208
0.712167
0.712157
0.712121
0.712111
0.712081
0.712338
0.712283
0.712279
0.712233
0.712226
0.712187
0.712178
0.712144
0.712134
0.712106
0.712346
0.712294
0.712289
0.712246
0.712238
0.712201
0.71219
0.712159
0.712147
0.71212
0.712349
0.7123
0.712295
0.712254
0.712245
0.71221
0.712198
0.712168
0.712155
0.712129
0.712342
0.7123
0.712294
0.712255
0.712245
0.712211
0.712199
0.712169
0.712156
0.71213
0.712073
0.712078
0.712084
0.71209
0.712097
0.712103
0.71211
0.712117
0.712124
0.712132
0.71214
0.712148
0.712157
0.712165
0.712175
0.712184
0.712194
0.712205
0.712216
0.712227
0.71224
0.712252
0.712265
0.712279
0.712294
0.712309
0.712325
0.712343
0.712361
0.71238
0.7124
0.712421
0.712443
0.712467
0.712492
0.712518
0.712546
0.712575
0.712606
0.712637
0.71267
0.712704
0.712739
0.712775
0.712811
0.712847
0.712883
0.712919
0.712955
0.712989
0.713022
0.713053
0.713082
0.71311
0.713135
0.713158
0.713178
0.713196
0.713211
0.713225
0.713236
0.713245
0.713253
0.713259
0.713264
0.713268
0.713271
0.713273
0.713275
0.713277
0.713278
0.71328
0.713281
0.713283
0.713284
0.713286
0.713288
0.71329
0.711926
0.711977
0.71197
0.711992
0.711987
0.711995
0.711991
0.711995
0.711993
0.711994
0.711992
0.711993
0.711992
0.711993
0.711992
0.711993
0.711993
0.711993
0.711994
0.711995
0.711995
0.711997
0.711998
0.711999
0.712001
0.712003
0.712005
0.712007
0.712009
0.712012
0.712014
0.712017
0.71202
0.712024
0.712027
0.712031
0.712035
0.712039
0.712043
0.712048
0.712052
0.712057
0.712062
0.712068
0.712072
0.71208
0.712085
0.712092
0.712098
0.712105
0.712112
0.71212
0.712128
0.712136
0.712145
0.712153
0.712163
0.712173
0.712183
0.712193
0.712204
0.712216
0.712228
0.712241
0.712254
0.712268
0.712282
0.712297
0.712313
0.71233
0.712348
0.712366
0.712385
0.712405
0.712426
0.712449
0.712472
0.712496
0.712521
0.712547
0.712574
0.712603
0.712632
0.712662
0.712693
0.712724
0.712756
0.712788
0.712821
0.712853
0.712885
0.712916
0.712946
0.712975
0.713003
0.713029
0.713054
0.713076
0.713097
0.713116
0.713132
0.713147
0.71316
0.713171
0.713181
0.713189
0.713196
0.713203
0.713208
0.713212
0.713216
0.71322
0.713223
0.713226
0.713229
0.713232
0.713235
0.713239
0.713242
0.713246
0.713249
0.713253
0.713257
0.711999
0.712003
0.711997
0.712002
0.711996
0.711999
0.711994
0.711995
0.711992
0.711993
0.711991
0.711992
0.711991
0.711991
0.711991
0.711992
0.711992
0.711993
0.711993
0.711995
0.711996
0.711997
0.711999
0.712
0.712002
0.712004
0.712006
0.712009
0.712011
0.712014
0.712017
0.712021
0.712024
0.712028
0.712031
0.712035
0.71204
0.712044
0.712049
0.712054
0.712059
0.712065
0.71207
0.712076
0.712083
0.712089
0.712096
0.712104
0.712111
0.712119
0.712127
0.712136
0.712145
0.712154
0.712164
0.712175
0.712185
0.712197
0.712208
0.712221
0.712234
0.712247
0.712261
0.712276
0.712291
0.712307
0.712324
0.712341
0.712359
0.712378
0.712398
0.712419
0.71244
0.712462
0.712485
0.712509
0.712533
0.712559
0.712585
0.712612
0.712639
0.712667
0.712695
0.712724
0.712753
0.712782
0.712811
0.71284
0.712868
0.712896
0.712922
0.712948
0.712972
0.712995
0.713017
0.713037
0.713056
0.713073
0.713088
0.713102
0.713115
0.713126
0.713135
0.713144
0.713151
0.713158
0.713164
0.71317
0.713175
0.71318
0.713184
0.713189
0.713193
0.713198
0.713202
0.713207
0.713211
0.713216
0.713221
0.713225
0.71323
0.713235
0.713241
0.712008
0.712008
0.712002
0.712007
0.712002
0.712005
0.712001
0.712002
0.711999
0.711999
0.711997
0.711997
0.711995
0.711995
0.711994
0.711995
0.711994
0.711995
0.711995
0.711996
0.711997
0.711999
0.712
0.712002
0.712004
0.712006
0.712009
0.712011
0.712014
0.712017
0.712021
0.712024
0.712028
0.712032
0.712037
0.712041
0.712046
0.712051
0.712056
0.712062
0.712068
0.712074
0.712081
0.712088
0.712095
0.712102
0.71211
0.712119
0.712127
0.712136
0.712146
0.712156
0.712166
0.712177
0.712188
0.7122
0.712212
0.712225
0.712239
0.712253
0.712268
0.712283
0.712299
0.712316
0.712333
0.712352
0.71237
0.71239
0.71241
0.712431
0.712453
0.712475
0.712498
0.712522
0.712546
0.712571
0.712596
0.712622
0.712648
0.712674
0.712701
0.712728
0.712755
0.712781
0.712808
0.712833
0.712859
0.712884
0.712907
0.71293
0.712952
0.712973
0.712993
0.713011
0.713028
0.713044
0.713058
0.713071
0.713083
0.713093
0.713103
0.713112
0.71312
0.713128
0.713135
0.713141
0.713148
0.713154
0.713159
0.713165
0.71317
0.713175
0.713181
0.713186
0.713191
0.713196
0.713201
0.713207
0.713212
0.713217
0.713223
0.713228
0.713234
0.712053
0.712039
0.712034
0.712028
0.712022
0.712018
0.712013
0.71201
0.712005
0.712003
0.712
0.711999
0.711997
0.711996
0.711995
0.711995
0.711995
0.711995
0.711996
0.711997
0.711998
0.712
0.712001
0.712003
0.712006
0.712008
0.712011
0.712014
0.712018
0.712021
0.712025
0.712029
0.712033
0.712038
0.712043
0.712048
0.712053
0.712059
0.712065
0.712071
0.712078
0.712085
0.712093
0.7121
0.712108
0.712117
0.712126
0.712135
0.712145
0.712155
0.712166
0.712177
0.712189
0.712201
0.712214
0.712228
0.712242
0.712256
0.712271
0.712287
0.712304
0.712321
0.712339
0.712357
0.712377
0.712396
0.712417
0.712438
0.71246
0.712482
0.712505
0.712529
0.712553
0.712577
0.712602
0.712627
0.712652
0.712678
0.712703
0.712728
0.712754
0.712779
0.712803
0.712827
0.712851
0.712874
0.712896
0.712917
0.712937
0.712956
0.712974
0.712991
0.713006
0.713021
0.713035
0.713047
0.713059
0.71307
0.71308
0.71309
0.713098
0.713107
0.713114
0.713122
0.713128
0.713135
0.713141
0.713147
0.713153
0.713159
0.713165
0.713171
0.713176
0.713182
0.713188
0.713193
0.713199
0.713204
0.71321
0.713215
0.713221
0.713227
0.713232
0.712072
0.712055
0.712048
0.712038
0.712032
0.712026
0.71202
0.712015
0.712011
0.712007
0.712004
0.712002
0.711999
0.711998
0.711997
0.711996
0.711996
0.711996
0.711996
0.711997
0.711999
0.712
0.712002
0.712004
0.712007
0.71201
0.712013
0.712016
0.71202
0.712024
0.712028
0.712033
0.712037
0.712043
0.712048
0.712054
0.71206
0.712066
0.712073
0.71208
0.712087
0.712095
0.712103
0.712111
0.71212
0.71213
0.712139
0.71215
0.71216
0.712172
0.712184
0.712196
0.712209
0.712222
0.712236
0.712251
0.712266
0.712282
0.712299
0.712316
0.712334
0.712352
0.712371
0.712391
0.712412
0.712433
0.712454
0.712476
0.712499
0.712522
0.712546
0.71257
0.712594
0.712618
0.712643
0.712668
0.712692
0.712717
0.712741
0.712765
0.712789
0.712812
0.712834
0.712856
0.712877
0.712897
0.712916
0.712934
0.712952
0.712968
0.712984
0.712999
0.713013
0.713025
0.713038
0.713049
0.713059
0.713069
0.713078
0.713087
0.713095
0.713103
0.713111
0.713118
0.713125
0.713132
0.713139
0.713145
0.713152
0.713158
0.713164
0.71317
0.713176
0.713181
0.713187
0.713192
0.713198
0.713204
0.713209
0.713215
0.71322
0.713226
0.713232
0.712098
0.712078
0.71207
0.712056
0.712048
0.712037
0.712031
0.712023
0.712017
0.712012
0.712008
0.712004
0.712001
0.711999
0.711997
0.711996
0.711996
0.711996
0.711997
0.711998
0.711999
0.712001
0.712003
0.712005
0.712008
0.712011
0.712015
0.712018
0.712022
0.712027
0.712031
0.712036
0.712041
0.712047
0.712053
0.712059
0.712065
0.712072
0.712079
0.712087
0.712094
0.712103
0.712111
0.712121
0.71213
0.71214
0.712151
0.712162
0.712173
0.712185
0.712198
0.712211
0.712224
0.712239
0.712254
0.712269
0.712285
0.712302
0.712319
0.712338
0.712356
0.712375
0.712395
0.712416
0.712437
0.712459
0.712481
0.712503
0.712526
0.712549
0.712573
0.712597
0.712621
0.712645
0.712669
0.712693
0.712716
0.71274
0.712763
0.712785
0.712807
0.712829
0.71285
0.71287
0.712889
0.712908
0.712925
0.712942
0.712958
0.712973
0.712987
0.713
0.713013
0.713025
0.713036
0.713047
0.713057
0.713067
0.713077
0.713086
0.713094
0.713103
0.713111
0.713118
0.713125
0.713132
0.713139
0.713145
0.713151
0.713157
0.713163
0.713169
0.713175
0.713181
0.713187
0.713192
0.713198
0.713204
0.713209
0.713215
0.713221
0.713226
0.713232
0.712109
0.712088
0.712078
0.712062
0.712053
0.712041
0.712034
0.712025
0.712019
0.712012
0.712008
0.712004
0.712001
0.711998
0.711997
0.711995
0.711995
0.711995
0.711996
0.711997
0.711998
0.712
0.712002
0.712005
0.712008
0.712011
0.712015
0.712019
0.712023
0.712027
0.712032
0.712037
0.712043
0.712048
0.712054
0.712061
0.712068
0.712075
0.712082
0.71209
0.712098
0.712107
0.712116
0.712125
0.712135
0.712145
0.712156
0.712167
0.712179
0.712192
0.712205
0.712218
0.712232
0.712247
0.712262
0.712278
0.712294
0.712311
0.712329
0.712348
0.712366
0.712386
0.712406
0.712427
0.712448
0.712469
0.712492
0.712514
0.712537
0.71256
0.712583
0.712607
0.71263
0.712654
0.712677
0.712701
0.712724
0.712746
0.712769
0.71279
0.712812
0.712832
0.712852
0.712871
0.71289
0.712907
0.712924
0.71294
0.712956
0.712971
0.712985
0.712998
0.713011
0.713024
0.713035
0.713046
0.713057
0.713067
0.713076
0.713085
0.713093
0.713101
0.713109
0.713117
0.713124
0.713131
0.713138
0.713144
0.713151
0.713157
0.713163
0.713169
0.713175
0.713181
0.713186
0.713192
0.713198
0.713203
0.713209
0.713215
0.71322
0.713226
0.713232
0.712117
0.712096
0.712085
0.712068
0.712058
0.712045
0.712037
0.712027
0.712021
0.712014
0.712009
0.712004
0.712001
0.711998
0.711997
0.711996
0.711995
0.711995
0.711996
0.711997
0.711998
0.712
0.712002
0.712005
0.712008
0.712012
0.712015
0.712019
0.712023
0.712028
0.712033
0.712038
0.712044
0.712049
0.712056
0.712062
0.712069
0.712076
0.712084
0.712092
0.7121
0.712109
0.712118
0.712127
0.712137
0.712148
0.712159
0.71217
0.712182
0.712195
0.712208
0.712221
0.712236
0.71225
0.712266
0.712282
0.712298
0.712315
0.712333
0.712352
0.712371
0.71239
0.71241
0.712431
0.712452
0.712473
0.712495
0.712518
0.71254
0.712563
0.712586
0.71261
0.712633
0.712656
0.712679
0.712702
0.712724
0.712747
0.712769
0.71279
0.712811
0.712831
0.712851
0.71287
0.712889
0.712907
0.712924
0.71294
0.712956
0.71297
0.712985
0.712998
0.713011
0.713023
0.713034
0.713045
0.713055
0.713065
0.713075
0.713084
0.713093
0.713101
0.713109
0.713116
0.713124
0.713131
0.713138
0.713144
0.71315
0.713157
0.713163
0.713169
0.713175
0.713181
0.713186
0.713192
0.713198
0.713203
0.713209
0.713215
0.71322
0.713226
0.713232
0.712117
0.712096
0.712084
0.712067
0.712057
0.712044
0.712035
0.712025
0.712019
0.712012
0.712007
0.712002
0.711999
0.711996
0.711995
0.711993
0.711993
0.711993
0.711994
0.711995
0.711996
0.711998
0.712001
0.712003
0.712006
0.71201
0.712013
0.712018
0.712022
0.712026
0.712031
0.712037
0.712042
0.712048
0.712054
0.712061
0.712068
0.712075
0.712082
0.71209
0.712098
0.712107
0.712116
0.712126
0.712136
0.712146
0.712157
0.712169
0.71218
0.712193
0.712206
0.71222
0.712234
0.712248
0.712264
0.712279
0.712296
0.712313
0.712331
0.712349
0.712368
0.712387
0.712407
0.712428
0.712449
0.71247
0.712492
0.712514
0.712537
0.712559
0.712582
0.712606
0.712629
0.712652
0.712675
0.712698
0.712721
0.712743
0.712765
0.712787
0.712808
0.712828
0.712848
0.712867
0.712886
0.712904
0.712921
0.712937
0.712953
0.712968
0.712982
0.712996
0.713009
0.713021
0.713033
0.713044
0.713055
0.713065
0.713074
0.713083
0.713092
0.7131
0.713108
0.713116
0.713123
0.71313
0.713137
0.713144
0.71315
0.713156
0.713163
0.713169
0.713174
0.71318
0.713186
0.713192
0.713197
0.713203
0.713209
0.713214
0.71322
0.713226
0.713232
)
;

boundaryField
{
    inlet
    {
        type            zeroGradient;
    }
    outlet
    {
        type            fixedValue;
        value           nonuniform 0();
    }
    walls
    {
        type            zeroGradient;
    }
    symwall
    {
        type            empty;
    }
    procBoundary2to0
    {
        type            processor;
        value           nonuniform List<scalar> 
133
(
0.71207
0.712075
0.71208
0.712086
0.712092
0.712098
0.712104
0.712111
0.712118
0.712125
0.712132
0.712139
0.712147
0.712155
0.712164
0.712172
0.712181
0.712191
0.712201
0.712211
0.712222
0.712233
0.712245
0.712257
0.71227
0.712283
0.712298
0.712313
0.712329
0.712346
0.712364
0.712384
0.712404
0.712426
0.71245
0.712475
0.712501
0.712529
0.712559
0.712591
0.712624
0.712659
0.712696
0.712734
0.712773
0.712813
0.712853
0.712894
0.712935
0.712976
0.713015
0.713053
0.71309
0.713124
0.713157
0.713186
0.713213
0.713238
0.713259
0.713277
0.713293
0.713306
0.713317
0.713326
0.713333
0.713337
0.713341
0.713343
0.713344
0.713345
0.713345
0.713344
0.713343
0.713343
0.713342
0.713341
0.713341
0.712244
0.712202
0.712195
0.712154
0.712141
0.712098
0.712083
0.712032
0.712022
0.711949
0.711966
0.711993
0.711987
0.711992
0.711987
0.711989
0.711986
0.711988
0.711986
0.711987
0.711987
0.711988
0.711987
0.711988
0.711988
0.711989
0.71199
0.711991
0.711991
0.711993
0.711994
0.711995
0.711996
0.711998
0.711999
0.712001
0.712003
0.712005
0.712008
0.71201
0.712013
0.712015
0.712018
0.712021
0.712025
0.712028
0.712032
0.712036
0.71204
0.712044
0.712048
0.712053
0.712057
0.712062
0.712068
0.712068
)
;
    }
    procBoundary2to1
    {
        type            processor;
        value           uniform 0.713341;
    }
    procBoundary2to3
    {
        type            processor;
        value           nonuniform List<scalar> 10(0.713293 0.713262 0.713246 0.71324 0.713238 0.713238 0.713238 0.713238 0.713238 0.713238);
    }
}


// ************************************************************************* //
