/*--------------------------------*- C++ -*----------------------------------*\
| =========                 |                                                 |
| \\      /  F ield         | OpenFOAM: The Open Source CFD Toolbox           |
|  \\    /   O peration     | Version:  4.1                                   |
|   \\  /    A nd           | Web:      www.OpenFOAM.org                      |
|    \\/     M anipulation  |                                                 |
\*---------------------------------------------------------------------------*/
FoamFile
{
    version     2.0;
    format      ascii;
    class       volVectorField;
    location    "293";
    object      U;
}
// * * * * * * * * * * * * * * * * * * * * * * * * * * * * * * * * * * * * * //

dimensions      [0 1 -1 0 0 0 0];

internalField   nonuniform List<vector> 
3264
(
(-2.61859e-06 -2.91756e-07 0)
(-0.000131098 3.03267e-05 0)
(-0.000384384 4.82082e-05 0)
(-0.000668429 5.03516e-05 0)
(-0.000967352 5.1856e-05 0)
(-0.00127076 5.0949e-05 0)
(-0.0015733 5.19031e-05 0)
(-0.0018767 5.21918e-05 0)
(-0.00217678 5.29783e-05 0)
(-0.00247498 5.33611e-05 0)
(-0.00276957 5.38075e-05 0)
(-0.00306185 5.41422e-05 0)
(-0.0033521 5.46148e-05 0)
(-0.00364195 5.52889e-05 0)
(-0.00393281 5.6352e-05 0)
(-0.00422671 5.79388e-05 0)
(-0.00452562 6.02127e-05 0)
(-0.00483167 6.3312e-05 0)
(-0.00514682 6.73635e-05 0)
(-0.00547283 7.24582e-05 0)
(-0.005811 7.86429e-05 0)
(-0.0061621 8.59018e-05 0)
(-0.00652609 9.41416e-05 0)
(-0.00690204 0.000103178 0)
(-0.00728799 0.00011273 0)
(-0.00768081 0.000122417 0)
(-0.00807621 0.000131774 0)
(-0.00846872 0.000140268 0)
(-0.00885181 0.000147331 0)
(-0.00921798 0.000152395 0)
(-0.00955903 0.000154929 0)
(-0.00986627 0.000154472 0)
(-0.0101308 0.000150668 0)
(-0.0103437 0.000143279 0)
(-0.0104966 0.0001322 0)
(-0.0105815 0.000117459 0)
(-0.0105915 9.92093e-05 0)
(-0.0105205 7.77207e-05 0)
(-0.0103636 5.33619e-05 0)
(-0.0101174 2.65849e-05 0)
(-0.00977954 -2.09301e-06 0)
(-0.00934931 -3.21057e-05 0)
(-0.00882731 -6.28534e-05 0)
(-0.00821557 -9.37178e-05 0)
(-0.0075175 -0.000124074 0)
(-0.00673784 -0.000153305 0)
(-0.00588259 -0.00018081 0)
(-0.00495898 -0.000206017 0)
(-0.0039753 -0.000228397 0)
(-0.0029409 -0.000247468 0)
(-0.00186596 -0.000262815 0)
(-0.000761447 -0.000274094 0)
(0.000361081 -0.000281048 0)
(0.00148965 -0.000283516 0)
(0.00261203 -0.000281443 0)
(0.00371597 -0.000274884 0)
(0.00478941 -0.000264011 0)
(0.00582067 -0.00024911 0)
(0.00679871 -0.00023058 0)
(0.00771336 -0.000208923 0)
(0.00855549 -0.000184728 0)
(0.00931723 -0.000158656 0)
(0.00999209 -0.000131417 0)
(0.0105752 -0.000103746 0)
(0.0110631 -7.63771e-05 0)
(0.0114543 -5.00162e-05 0)
(0.0117486 -2.53176e-05 0)
(0.0119479 -2.85852e-06 0)
(0.0120551 1.68822e-05 0)
(0.012075 3.35436e-05 0)
(0.0120133 4.68984e-05 0)
(0.0118771 5.68664e-05 0)
(0.0116742 6.35218e-05 0)
(0.0114132 6.70942e-05 0)
(0.0111031 6.796e-05 0)
(0.0107529 6.66201e-05 0)
(0.010372 6.3663e-05 0)
(0.0099692 5.97104e-05 0)
(0.00955291 5.53508e-05 0)
(0.00913101 5.10681e-05 0)
(0.00871059 4.71818e-05 0)
(0.00829793 4.38135e-05 0)
(0.00789836 4.08962e-05 0)
(0.00751622 3.82269e-05 0)
(0.00715482 3.55516e-05 0)
(0.00681641 3.26559e-05 0)
(0.0065023 2.9433e-05 0)
(0.00621297 2.59118e-05 0)
(0.00594828 2.2242e-05 0)
(0.00570764 1.86477e-05 0)
(0.00549016 1.53694e-05 0)
(0.00529472 1.26072e-05 0)
(0.00511999 1.04827e-05 0)
(0.00496447 9.02256e-06 0)
(0.00482652 8.1696e-06 0)
(0.0047044 7.81265e-06 0)
(0.00459637 7.82472e-06 0)
(0.00450078 8.09518e-06 0)
(0.00441605 8.54678e-06 0)
(0.00434084 9.13559e-06 0)
(0.004274 9.83829e-06 0)
(0.0042147 1.06348e-05 0)
(0.00416241 1.14929e-05 0)
(0.00411699 1.23594e-05 0)
(0.00407862 1.31579e-05 0)
(0.00404788 1.37927e-05 0)
(0.00402565 1.4157e-05 0)
(0.00401313 1.41413e-05 0)
(0.00401172 1.36438e-05 0)
(0.00402298 1.25782e-05 0)
(0.00404855 1.08807e-05 0)
(0.00409008 8.51483e-06 0)
(0.00414909 5.47455e-06 0)
(0.00422695 1.78503e-06 0)
(0.00432474 -2.49779e-06 0)
(0.00444324 -7.28944e-06 0)
(0.00458282 -1.24803e-05 0)
(0.00474344 -1.79403e-05 0)
(0.00492457 -2.3524e-05 0)
(0.00512522 -2.90766e-05 0)
(0.00534392 -3.44404e-05 0)
(0.00557873 -3.94613e-05 0)
(0.00582731 -4.39946e-05 0)
(0.00608691 -4.79119e-05 0)
(0.00635449 -5.11056e-05 0)
(0.00662677 -5.34938e-05 0)
(0.00690032 -5.50236e-05 0)
(0.00717164 -5.56728e-05 0)
(0.00743731 -5.54501e-05 0)
(0.00769403 -5.4394e-05 0)
(0.00793878 -5.25697e-05 0)
(0.00816886 -5.00645e-05 0)
(0.00838199 -4.6983e-05 0)
(0.0085764 -4.34407e-05 0)
(0.0087508 -3.95582e-05 0)
(0.00890447 -3.54558e-05 0)
(0.00903721 -3.12488e-05 0)
(0.00914934 -2.70436e-05 0)
(0.00924164 -2.29355e-05 0)
(0.00931529 -1.90068e-05 0)
(0.00937178 -1.53262e-05 0)
(0.00941286 -1.19488e-05 0)
(0.00944047 -8.91585e-06 0)
(0.0094566 -6.25581e-06 0)
(0.00946329 -3.98464e-06 0)
(0.00946253 -2.10689e-06 0)
(0.00945622 -6.16844e-07 0)
(0.00944612 5.00187e-07 0)
(0.00943384 1.26645e-06 0)
(0.00942079 1.71027e-06 0)
(0.00940821 1.86462e-06 0)
(0.0093971 1.76584e-06 0)
(0.00938828 1.45242e-06 0)
(0.00938237 9.64047e-07 0)
(0.00937977 3.40639e-07 0)
(0.00938074 -3.78412e-07 0)
(0.00938533 -1.15502e-06 0)
(0.00939348 -1.95313e-06 0)
(0.00940498 -2.73938e-06 0)
(0.00941951 -3.48379e-06 0)
(0.00943667 -4.16031e-06 0)
(0.00945599 -4.74729e-06 0)
(0.00947696 -5.22785e-06 0)
(0.00949904 -5.59006e-06 0)
(0.00952171 -5.82699e-06 0)
(0.00954445 -5.93659e-06 0)
(0.00956676 -5.9214e-06 0)
(0.00958822 -5.78812e-06 0)
(0.00960844 -5.5471e-06 0)
(0.00962711 -5.21165e-06 0)
(0.00964398 -4.79738e-06 0)
(0.00965888 -4.32142e-06 0)
(0.00967172 -3.80173e-06 0)
(0.00968245 -3.25632e-06 0)
(0.0096911 -2.70259e-06 0)
(0.00969777 -2.15678e-06 0)
(0.00970258 -1.63336e-06 0)
(0.00970569 -1.14475e-06 0)
(0.00970731 -7.00945e-07 0)
(0.00970764 -3.0939e-07 0)
(0.00970691 2.50621e-08 0)
(0.00970533 3.00083e-07 0)
(0.00970312 5.15697e-07 0)
(0.00970047 6.74028e-07 0)
(0.00969757 7.78971e-07 0)
(0.00969458 8.35833e-07 0)
(0.00969161 8.50942e-07 0)
(0.00968879 8.31262e-07 0)
(0.00968618 7.84015e-07 0)
(0.00968385 7.16362e-07 0)
(0.00968182 6.35047e-07 0)
(0.00968012 5.46341e-07 0)
(0.00967874 4.55278e-07 0)
(0.00967766 3.67112e-07 0)
(0.00967685 2.82815e-07 0)
(0.0096763 2.09543e-07 0)
(0.00967593 1.37436e-07 0)
(0.00967582 7.87671e-08 0)
(0.00967567 2.61924e-08 0)
(0.00967601 -1.09613e-07 0)
(-8.26823e-05 0.000133943 0)
(-0.000577568 0.000373629 0)
(-0.00129984 0.000511955 0)
(-0.00206974 0.000556553 0)
(-0.00284701 0.000578549 0)
(-0.00361571 0.00058152 0)
(-0.00436298 0.000583216 0)
(-0.00509275 0.000579113 0)
(-0.00579899 0.000573992 0)
(-0.00648548 0.000567226 0)
(-0.0071513 0.000561005 0)
(-0.00779991 0.000555926 0)
(-0.00843312 0.000553105 0)
(-0.00905424 0.000553118 0)
(-0.00966588 0.000556495 0)
(-0.0102708 0.000563476 0)
(-0.010871 0.000574095 0)
(-0.011468 0.000588106 0)
(-0.012062 0.00060498 0)
(-0.0126524 0.000623879 0)
(-0.0132368 0.000643658 0)
(-0.0138117 0.000662879 0)
(-0.0143717 0.000679845 0)
(-0.01491 0.000692661 0)
(-0.0154185 0.000699317 0)
(-0.0158877 0.000697786 0)
(-0.016307 0.000686126 0)
(-0.0166654 0.000662594 0)
(-0.0169514 0.000625736 0)
(-0.0171536 0.000574472 0)
(-0.017261 0.000508147 0)
(-0.0172632 0.000426562 0)
(-0.0171508 0.000329972 0)
(-0.0169157 0.000219063 0)
(-0.0165509 9.49159e-05 0)
(-0.0160509 -4.10469e-05 0)
(-0.0154121 -0.00018712 0)
(-0.014632 -0.000341375 0)
(-0.01371 -0.000501709 0)
(-0.0126469 -0.000665904 0)
(-0.0114453 -0.000831665 0)
(-0.010109 -0.000996664 0)
(-0.00864362 -0.00115857 0)
(-0.0070559 -0.00131507 0)
(-0.00535407 -0.00146392 0)
(-0.00354764 -0.00160294 0)
(-0.00164732 -0.00173005 0)
(0.000335045 -0.00184329 0)
(0.00238655 -0.00194087 0)
(0.00449335 -0.00202115 0)
(0.00664074 -0.0020827 0)
(0.00881331 -0.00212433 0)
(0.0109951 -0.00214512 0)
(0.0131696 -0.00214445 0)
(0.0153204 -0.00212204 0)
(0.0174306 -0.00207794 0)
(0.0194839 -0.00201259 0)
(0.0214641 -0.00192682 0)
(0.0233558 -0.00182183 0)
(0.0251444 -0.00169918 0)
(0.0268163 -0.00156077 0)
(0.0283593 -0.00140881 0)
(0.0297622 -0.00124575 0)
(0.0310158 -0.00107421 0)
(0.0321123 -0.000896961 0)
(0.0330456 -0.000716812 0)
(0.0338114 -0.000536578 0)
(0.0344069 -0.00035901 0)
(0.0348313 -0.000186742 0)
(0.0350854 -2.22475e-05 0)
(0.0351717 0.000132203 0)
(0.0350942 0.000274572 0)
(0.0348589 0.000403091 0)
(0.0344729 0.000516286 0)
(0.0339455 0.000613002 0)
(0.0332873 0.000692441 0)
(0.0325106 0.00075418 0)
(0.0316293 0.000798207 0)
(0.030659 0.000824945 0)
(0.0296164 0.000835272 0)
(0.0285194 0.000830532 0)
(0.0273863 0.000812523 0)
(0.0262357 0.000783446 0)
(0.0250854 0.000745792 0)
(0.0239522 0.000702162 0)
(0.0228511 0.000655035 0)
(0.0217948 0.000606515 0)
(0.0207936 0.000558162 0)
(0.0198551 0.000510946 0)
(0.0189845 0.000465352 0)
(0.0181845 0.000421582 0)
(0.0174556 0.000379764 0)
(0.0167968 0.000340086 0)
(0.0162055 0.000302824 0)
(0.0156785 0.000268288 0)
(0.0152118 0.000236744 0)
(0.0148014 0.000208338 0)
(0.0144431 0.000183052 0)
(0.0141331 0.000160692 0)
(0.0138677 0.000140887 0)
(0.0136437 0.000123123 0)
(0.0134585 0.000106771 0)
(0.0133101 9.11362e-05 0)
(0.0131972 7.55008e-05 0)
(0.0131191 5.91699e-05 0)
(0.0130757 4.15075e-05 0)
(0.0130678 2.19666e-05 0)
(0.0130961 1.12517e-07 0)
(0.0131619 -2.43593e-05 0)
(0.0132667 -5.16117e-05 0)
(0.0134119 -8.16581e-05 0)
(0.0135988 -0.000114361 0)
(0.0138282 -0.000149437 0)
(0.0141009 -0.000186461 0)
(0.014417 -0.000224888 0)
(0.0147759 -0.000264061 0)
(0.0151766 -0.000303241 0)
(0.0156172 -0.000341627 0)
(0.0160954 -0.000378379 0)
(0.0166079 -0.000412649 0)
(0.0171508 -0.000443609 0)
(0.0177197 -0.000470473 0)
(0.0183095 -0.000492528 0)
(0.0189145 -0.000509162 0)
(0.0195288 -0.000519882 0)
(0.0201461 -0.000524344 0)
(0.0207598 -0.000522366 0)
(0.0213634 -0.000513943 0)
(0.0219504 -0.000499256 0)
(0.0225146 -0.000478671 0)
(0.0230503 -0.000452732 0)
(0.0235523 -0.000422144 0)
(0.0240161 -0.000387745 0)
(0.024438 -0.000350479 0)
(0.0248154 -0.000311348 0)
(0.0251467 -0.000271377 0)
(0.0254313 -0.000231561 0)
(0.0256697 -0.000192833 0)
(0.0258634 -0.00015602 0)
(0.0260148 -0.00012182 0)
(0.0261271 -9.07827e-05 0)
(0.0262042 -6.33029e-05 0)
(0.0262505 -3.96205e-05 0)
(0.0262706 -1.98322e-05 0)
(0.0262693 -3.90701e-06 0)
(0.0262512 8.29424e-06 0)
(0.026221 1.69979e-05 0)
(0.0261829 2.2497e-05 0)
(0.0261407 2.51322e-05 0)
(0.0260978 2.52751e-05 0)
(0.0260571 2.33143e-05 0)
(0.0260209 1.96428e-05 0)
(0.0259911 1.46486e-05 0)
(0.0259689 8.70618e-06 0)
(0.0259552 2.16937e-06 0)
(0.0259504 -4.6344e-06 0)
(0.0259544 -1.14092e-05 0)
(0.025967 -1.78946e-05 0)
(0.0259874 -2.38689e-05 0)
(0.0260148 -2.91512e-05 0)
(0.0260483 -3.36026e-05 0)
(0.0260865 -3.71262e-05 0)
(0.0261283 -3.96663e-05 0)
(0.0261724 -4.12059e-05 0)
(0.0262177 -4.17642e-05 0)
(0.0262628 -4.13921e-05 0)
(0.0263069 -4.01679e-05 0)
(0.0263489 -3.8192e-05 0)
(0.0263881 -3.55813e-05 0)
(0.0264239 -3.24638e-05 0)
(0.0264557 -2.89724e-05 0)
(0.0264834 -2.52404e-05 0)
(0.0265067 -2.13962e-05 0)
(0.0265257 -1.75592e-05 0)
(0.0265405 -1.38363e-05 0)
(0.0265514 -1.03194e-05 0)
(0.0265587 -7.08338e-06 0)
(0.0265627 -4.18542e-06 0)
(0.0265641 -1.66455e-06 0)
(0.0265631 4.57607e-07 0)
(0.0265603 2.17568e-06 0)
(0.0265561 3.49879e-06 0)
(0.0265509 4.4484e-06 0)
(0.0265452 5.05597e-06 0)
(0.0265392 5.36042e-06 0)
(0.0265333 5.40561e-06 0)
(0.0265276 5.23798e-06 0)
(0.0265223 4.90431e-06 0)
(0.0265176 4.44985e-06 0)
(0.0265135 3.91675e-06 0)
(0.02651 3.34278e-06 0)
(0.0265072 2.76065e-06 0)
(0.026505 2.1967e-06 0)
(0.0265034 1.67345e-06 0)
(0.0265023 1.20019e-06 0)
(0.0265016 7.99954e-07 0)
(0.0265013 4.41015e-07 0)
(0.0265012 1.78116e-07 0)
(0.0265013 -5.96776e-08 0)
(0.0265018 -3.94731e-07 0)
(-0.000178585 0.000640035 0)
(-0.0010399 0.00124349 0)
(-0.00216138 0.00152233 0)
(-0.00329808 0.00156701 0)
(-0.00438955 0.00156729 0)
(-0.00542609 0.0015303 0)
(-0.00639222 0.00149452 0)
(-0.00729966 0.00145215 0)
(-0.00814563 0.00141168 0)
(-0.0089391 0.00137206 0)
(-0.00968225 0.00133632 0)
(-0.0103809 0.00130507 0)
(-0.0110382 0.00127939 0)
(-0.0116575 0.00125948 0)
(-0.0122411 0.00124527 0)
(-0.0127901 0.00123614 0)
(-0.0133049 0.00123102 0)
(-0.0137844 0.00122834 0)
(-0.0142264 0.00122611 0)
(-0.0146272 0.00122188 0)
(-0.014982 0.00121291 0)
(-0.0152849 0.00119621 0)
(-0.0155286 0.0011687 0)
(-0.0157054 0.00112734 0)
(-0.0158066 0.00106926 0)
(-0.0158235 0.000991931 0)
(-0.015747 0.00089327 0)
(-0.0155685 0.000771732 0)
(-0.0152799 0.000626383 0)
(-0.0148735 0.000456923 0)
(-0.0143429 0.000263696 0)
(-0.0136823 4.76531e-05 0)
(-0.0128874 -0.000189694 0)
(-0.0119549 -0.000446337 0)
(-0.0108827 -0.000719845 0)
(-0.00967005 -0.00100744 0)
(-0.00831729 -0.00130606 0)
(-0.00682606 -0.00161243 0)
(-0.00519918 -0.00192315 0)
(-0.00344064 -0.00223468 0)
(-0.00155559 -0.00254345 0)
(0.000449715 -0.00284585 0)
(0.00256788 -0.00313829 0)
(0.00479043 -0.00341724 0)
(0.00710785 -0.00367921 0)
(0.00950959 -0.00392084 0)
(0.0119841 -0.0041389 0)
(0.014519 -0.00433032 0)
(0.0171009 -0.00449226 0)
(0.0197157 -0.00462212 0)
(0.0223487 -0.00471759 0)
(0.0249843 -0.00477675 0)
(0.0276069 -0.00479807 0)
(0.0302002 -0.00478051 0)
(0.0327482 -0.00472356 0)
(0.0352348 -0.00462726 0)
(0.0376442 -0.00449227 0)
(0.0399613 -0.00431987 0)
(0.0421718 -0.00411196 0)
(0.044262 -0.00387099 0)
(0.04622 -0.0036 0)
(0.0480346 -0.00330245 0)
(0.0496963 -0.0029822 0)
(0.051197 -0.00264336 0)
(0.0525301 -0.00229025 0)
(0.0536903 -0.00192722 0)
(0.0546738 -0.00155861 0)
(0.0554779 -0.00118863 0)
(0.0561011 -0.000821353 0)
(0.0565432 -0.000460614 0)
(0.0568044 -0.000110019 0)
(0.0568862 0.000227065 0)
(0.0567907 0.000547503 0)
(0.0565207 0.000848368 0)
(0.05608 0.00112692 0)
(0.0554732 0.00138058 0)
(0.0547058 0.00160694 0)
(0.0537848 0.00180372 0)
(0.0527182 0.00196886 0)
(0.0515161 0.00210059 0)
(0.0501902 0.00219753 0)
(0.0487544 0.0022589 0)
(0.0472249 0.00228469 0)
(0.0456202 0.00227586 0)
(0.0439608 0.0022345 0)
(0.0422691 0.00216383 0)
(0.0405684 0.00206809 0)
(0.0388824 0.00195233 0)
(0.0372338 0.00182201 0)
(0.0356435 0.00168266 0)
(0.0341295 0.00153942 0)
(0.0327063 0.00139672 0)
(0.0313845 0.00125807 0)
(0.0301709 0.00112589 0)
(0.0290687 0.00100162 0)
(0.0280781 0.000885872 0)
(0.027197 0.000778659 0)
(0.0264214 0.000679613 0)
(0.0257464 0.000588121 0)
(0.0251665 0.000503397 0)
(0.0246759 0.000424491 0)
(0.0242695 0.000350293 0)
(0.0239424 0.00027956 0)
(0.0236903 0.000210963 0)
(0.0235097 0.000143166 0)
(0.0233977 7.49054e-05 0)
(0.0233519 5.07242e-06 0)
(0.0233707 -6.7221e-05 0)
(0.0234526 -0.000142594 0)
(0.0235965 -0.000221366 0)
(0.0238014 -0.00030355 0)
(0.0240662 -0.000388851 0)
(0.0243899 -0.000476687 0)
(0.024771 -0.000566217 0)
(0.0252077 -0.000656376 0)
(0.0256977 -0.000745914 0)
(0.0262384 -0.000833436 0)
(0.0268265 -0.000917454 0)
(0.027458 -0.000996424 0)
(0.0281286 -0.0010688 0)
(0.0288333 -0.00113306 0)
(0.0295664 -0.00118778 0)
(0.030322 -0.00123166 0)
(0.0310935 -0.00126357 0)
(0.0318742 -0.00128259 0)
(0.0326569 -0.00128805 0)
(0.0334343 -0.00127957 0)
(0.034199 -0.0012571 0)
(0.0349439 -0.00122091 0)
(0.0356618 -0.00117165 0)
(0.0363462 -0.00111028 0)
(0.0369909 -0.00103814 0)
(0.0375905 -0.000956853 0)
(0.0381403 -0.000868304 0)
(0.0386367 -0.000774578 0)
(0.039077 -0.000677886 0)
(0.0394597 -0.000580477 0)
(0.0397845 -0.000484556 0)
(0.0400523 -0.000392196 0)
(0.040265 -0.000305258 0)
(0.0404257 -0.000225328 0)
(0.0405384 -0.000153663 0)
(0.0406078 -9.11631e-05 0)
(0.0406393 -3.83634e-05 0)
(0.0406387 4.5572e-06 0)
(0.040612 3.77468e-05 0)
(0.0405652 6.16392e-05 0)
(0.0405041 7.69029e-05 0)
(0.0404341 8.43873e-05 0)
(0.0403604 8.50673e-05 0)
(0.0402872 7.99933e-05 0)
(0.0402183 7.02459e-05 0)
(0.0401568 5.68977e-05 0)
(0.040105 4.09824e-05 0)
(0.0400645 2.3471e-05 0)
(0.0400363 5.25262e-06 0)
(0.0400209 -1.28786e-05 0)
(0.0400181 -3.0233e-05 0)
(0.0400273 -4.62314e-05 0)
(0.0400476 -6.04084e-05 0)
(0.0400776 -7.24124e-05 0)
(0.0401159 -8.20041e-05 0)
(0.0401609 -8.90515e-05 0)
(0.0402108 -9.35235e-05 0)
(0.0402638 -9.54808e-05 0)
(0.0403185 -9.50654e-05 0)
(0.040373 -9.24877e-05 0)
(0.0404262 -8.80132e-05 0)
(0.0404767 -8.19474e-05 0)
(0.0405235 -7.46216e-05 0)
(0.0405659 -6.63779e-05 0)
(0.0406031 -5.75553e-05 0)
(0.040635 -4.84779e-05 0)
(0.0406614 -3.94437e-05 0)
(0.0406823 -3.07162e-05 0)
(0.040698 -2.25179e-05 0)
(0.0407088 -1.50265e-05 0)
(0.0407153 -8.3733e-06 0)
(0.0407179 -2.64334e-06 0)
(0.0407173 2.12191e-06 0)
(0.0407142 5.92072e-06 0)
(0.0407091 8.78601e-06 0)
(0.0407026 1.07793e-05 0)
(0.0406952 1.19844e-05 0)
(0.0406874 1.25009e-05 0)
(0.0406795 1.24379e-05 0)
(0.040672 1.1908e-05 0)
(0.040665 1.10226e-05 0)
(0.0406587 9.88745e-06 0)
(0.0406533 8.59911e-06 0)
(0.0406487 7.24268e-06 0)
(0.040645 5.89009e-06 0)
(0.0406421 4.59948e-06 0)
(0.04064 3.41513e-06 0)
(0.0406386 2.36606e-06 0)
(0.0406378 1.47682e-06 0)
(0.0406374 7.30896e-07 0)
(0.0406374 1.74762e-07 0)
(0.0406376 -2.87965e-07 0)
(0.0406381 -7.01609e-07 0)
(-0.000306811 0.00125531 0)
(-0.00152114 0.00230271 0)
(-0.00287831 0.00271263 0)
(-0.00414991 0.00272932 0)
(-0.00525472 0.00266647 0)
(-0.00624226 0.0025476 0)
(-0.00709816 0.00243047 0)
(-0.00785568 0.00230929 0)
(-0.00851575 0.00219567 0)
(-0.00909446 0.00208868 0)
(-0.00959621 0.00199095 0)
(-0.0100289 0.00190219 0)
(-0.0103958 0.00182237 0)
(-0.0107005 0.00175057 0)
(-0.0109443 0.00168552 0)
(-0.0111277 0.00162544 0)
(-0.0112497 0.00156812 0)
(-0.0113085 0.0015109 0)
(-0.0113012 0.00145074 0)
(-0.0112242 0.0013843 0)
(-0.011073 0.00130807 0)
(-0.0108427 0.00121843 0)
(-0.0105277 0.00111187 0)
(-0.0101227 0.000985095 0)
(-0.00962176 0.000835182 0)
(-0.00901957 0.00065971 0)
(-0.00831091 0.000456857 0)
(-0.00749108 0.000225481 0)
(-0.00655595 -3.48504e-05 0)
(-0.00550207 -0.000323845 0)
(-0.00432672 -0.000640509 0)
(-0.003028 -0.000983193 0)
(-0.00160482 -0.00134965 0)
(-5.69091e-05 -0.0017371 0)
(0.00161511 -0.00214233 0)
(0.00340977 -0.00256173 0)
(0.00532473 -0.00299139 0)
(0.00735676 -0.00342716 0)
(0.00950175 -0.0038647 0)
(0.0117546 -0.00429952 0)
(0.0141095 -0.00472704 0)
(0.0165593 -0.00514261 0)
(0.0190963 -0.00554158 0)
(0.0217116 -0.00591929 0)
(0.0243952 -0.00627116 0)
(0.0271365 -0.0065927 0)
(0.0299237 -0.00687955 0)
(0.0327443 -0.00712759 0)
(0.0355846 -0.0073329 0)
(0.0384307 -0.00749193 0)
(0.0412677 -0.00760151 0)
(0.0440803 -0.00765896 0)
(0.0468529 -0.0076622 0)
(0.0495698 -0.0076098 0)
(0.0522156 -0.0075011 0)
(0.0547749 -0.00733625 0)
(0.0572333 -0.00711631 0)
(0.0595772 -0.00684322 0)
(0.0617942 -0.00651978 0)
(0.0638733 -0.00614968 0)
(0.065805 -0.0057373 0)
(0.0675815 -0.00528769 0)
(0.0691967 -0.00480635 0)
(0.0706462 -0.00429911 0)
(0.0719271 -0.00377194 0)
(0.073038 -0.00323079 0)
(0.0739787 -0.00268147 0)
(0.0747501 -0.00212948 0)
(0.0753538 -0.00157998 0)
(0.0757921 -0.00103771 0)
(0.0760675 -0.000506981 0)
(0.0761828 8.32363e-06 0)
(0.0761409 0.000504698 0)
(0.0759446 0.000978964 0)
(0.0755966 0.0014282 0)
(0.0750994 0.00184965 0)
(0.0744557 0.00224071 0)
(0.0736679 0.00259879 0)
(0.0727389 0.00292133 0)
(0.0716717 0.00320579 0)
(0.0704701 0.00344962 0)
(0.0691387 0.00365042 0)
(0.0676834 0.00380596 0)
(0.0661116 0.00391444 0)
(0.064433 0.0039746 0)
(0.0626596 0.003986 0)
(0.0608061 0.0039492 0)
(0.05889 0.00386597 0)
(0.0569316 0.00373944 0)
(0.0549536 0.00357417 0)
(0.0529802 0.00337605 0)
(0.0510364 0.00315208 0)
(0.0491467 0.00290992 0)
(0.0473342 0.00265732 0)
(0.045619 0.00240157 0)
(0.0440177 0.00214895 0)
(0.042543 0.00190438 0)
(0.041203 0.00167124 0)
(0.0400022 0.00145141 0)
(0.0389413 0.00124544 0)
(0.0380185 0.0010528 0)
(0.0372297 0.000872162 0)
(0.0365695 0.000701721 0)
(0.0360317 0.000539415 0)
(0.0356098 0.000383145 0)
(0.0352974 0.000230927 0)
(0.0350884 8.1012e-05 0)
(0.0349768 -6.80311e-05 0)
(0.0349575 -0.000217256 0)
(0.0350255 -0.000367307 0)
(0.0351762 -0.000518403 0)
(0.0354053 -0.00067034 0)
(0.0357085 -0.000822515 0)
(0.0360817 -0.000973957 0)
(0.0365206 -0.00112337 0)
(0.0370209 -0.0012692 0)
(0.0375779 -0.00140966 0)
(0.0381866 -0.00154282 0)
(0.038842 -0.00166668 0)
(0.0395384 -0.00177919 0)
(0.0402698 -0.00187832 0)
(0.0410301 -0.00196218 0)
(0.0418125 -0.00202899 0)
(0.0426103 -0.00207722 0)
(0.0434162 -0.00210561 0)
(0.0442231 -0.00211323 0)
(0.0450235 -0.00209953 0)
(0.0458101 -0.0020644 0)
(0.0465758 -0.00200819 0)
(0.0473137 -0.00193175 0)
(0.0480172 -0.00183641 0)
(0.0486803 -0.001724 0)
(0.0492978 -0.00159679 0)
(0.049865 -0.00145746 0)
(0.0503784 -0.00130898 0)
(0.0508351 -0.00115459 0)
(0.0512335 -0.000997608 0)
(0.0515731 -0.00084139 0)
(0.0518543 -0.000689161 0)
(0.0520786 -0.000543918 0)
(0.0522486 -0.000408331 0)
(0.0523678 -0.000284648 0)
(0.0524403 -0.000174642 0)
(0.0524711 -7.95623e-05 0)
(0.0524657 -1.29502e-07 0)
(0.0524297 6.34575e-05 0)
(0.0523692 0.000111485 0)
(0.0522899 0.000144674 0)
(0.0521977 0.000164108 0)
(0.052098 0.000171166 0)
(0.0519956 0.000167437 0)
(0.0518952 0.000154645 0)
(0.0518004 0.000134578 0)
(0.0517144 0.000109018 0)
(0.0516397 7.96892e-05 0)
(0.0515779 4.82109e-05 0)
(0.0515302 1.60601e-05 0)
(0.0514971 -1.5454e-05 0)
(0.0514785 -4.52085e-05 0)
(0.0514738 -7.22768e-05 0)
(0.0514821 -9.5933e-05 0)
(0.0515019 -0.00011565 0)
(0.0515319 -0.000131095 0)
(0.0515702 -0.000142115 0)
(0.0516149 -0.000148727 0)
(0.0516643 -0.000151097 0)
(0.0517164 -0.000149525 0)
(0.0517696 -0.000144414 0)
(0.0518221 -0.000136254 0)
(0.0518727 -0.000125594 0)
(0.0519202 -0.000113016 0)
(0.0519634 -9.91099e-05 0)
(0.0520018 -8.44519e-05 0)
(0.0520348 -6.95836e-05 0)
(0.0520623 -5.49939e-05 0)
(0.0520841 -4.11059e-05 0)
(0.0521005 -2.82666e-05 0)
(0.0521119 -1.67425e-05 0)
(0.0521186 -6.71743e-06 0)
(0.0521213 1.70427e-06 0)
(0.0521206 8.49203e-06 0)
(0.0521171 1.36806e-05 0)
(0.0521116 1.73596e-05 0)
(0.0521045 1.96623e-05 0)
(0.0520966 2.07531e-05 0)
(0.0520883 2.08169e-05 0)
(0.0520799 2.00473e-05 0)
(0.052072 1.86377e-05 0)
(0.0520646 1.67726e-05 0)
(0.0520581 1.46218e-05 0)
(0.0520525 1.23354e-05 0)
(0.0520478 1.00407e-05 0)
(0.0520441 7.84085e-06 0)
(0.0520413 5.81501e-06 0)
(0.0520393 4.01856e-06 0)
(0.052038 2.48702e-06 0)
(0.0520373 1.22813e-06 0)
(0.052037 2.64366e-07 0)
(0.0520371 -4.83018e-07 0)
(0.0520375 -9.81987e-07 0)
(-0.000407668 0.00247093 0)
(-0.00172955 0.00379237 0)
(-0.00300434 0.00413806 0)
(-0.00407145 0.00389194 0)
(-0.00484909 0.00362663 0)
(-0.00544797 0.00333285 0)
(-0.00586407 0.0030784 0)
(-0.00615607 0.00284254 0)
(-0.00633183 0.00263073 0)
(-0.00641599 0.00243696 0)
(-0.00641514 0.00226012 0)
(-0.00633912 0.00209753 0)
(-0.00619124 0.00194709 0)
(-0.00597477 0.00180641 0)
(-0.0056903 0.00167292 0)
(-0.00533776 0.00154382 0)
(-0.00491578 0.001416 0)
(-0.00442237 0.0012861 0)
(-0.00385489 0.00115052 0)
(-0.00321028 0.00100548 0)
(-0.00248518 0.000847149 0)
(-0.00167612 0.000671758 0)
(-0.000779557 0.000475731 0)
(0.000207915 0.000255829 0)
(0.00128952 9.27893e-06 0)
(0.00246819 -0.000266114 0)
(0.00374649 -0.000571882 0)
(0.00512658 -0.000908837 0)
(0.00661014 -0.00127704 0)
(0.00819836 -0.00167581 0)
(0.00989188 -0.00210374 0)
(0.0116908 -0.00255875 0)
(0.0135946 -0.00303813 0)
(0.0156022 -0.0035386 0)
(0.0177117 -0.00405644 0)
(0.0199208 -0.00458744 0)
(0.0222263 -0.00512709 0)
(0.0246241 -0.00567052 0)
(0.0271096 -0.00621265 0)
(0.029677 -0.00674814 0)
(0.0323199 -0.00727151 0)
(0.0350307 -0.00777714 0)
(0.037801 -0.00825934 0)
(0.0406212 -0.00871237 0)
(0.0434809 -0.00913052 0)
(0.0463685 -0.00950816 0)
(0.0492716 -0.00983981 0)
(0.0521769 -0.0101202 0)
(0.0550701 -0.0103445 0)
(0.0579365 -0.010508 0)
(0.0607608 -0.0106068 0)
(0.0635274 -0.0106375 0)
(0.0662206 -0.0105977 0)
(0.068825 -0.0104856 0)
(0.0713259 -0.0103008 0)
(0.0737094 -0.0100438 0)
(0.0759631 -0.00971636 0)
(0.0780758 -0.00932165 0)
(0.0800387 -0.00886385 0)
(0.0818447 -0.0083483 0)
(0.083489 -0.00778127 0)
(0.0849691 -0.00716976 0)
(0.0862842 -0.0065213 0)
(0.0874359 -0.00584363 0)
(0.088427 -0.00514451 0)
(0.0892617 -0.00443147 0)
(0.0899453 -0.00371164 0)
(0.0904835 -0.00299156 0)
(0.0908823 -0.00227713 0)
(0.0911478 -0.00157356 0)
(0.0912856 -0.000885364 0)
(0.0913009 -0.000216422 0)
(0.0911983 0.000429947 0)
(0.0909818 0.00105087 0)
(0.0906543 0.00164383 0)
(0.0902182 0.00220649 0)
(0.089675 0.00273664 0)
(0.0890258 0.00323207 0)
(0.088271 0.00369047 0)
(0.0874104 0.0041094 0)
(0.086444 0.00448629 0)
(0.0853715 0.00481844 0)
(0.0841928 0.00510309 0)
(0.0829086 0.00533753 0)
(0.08152 0.00551927 0)
(0.0800297 0.00564615 0)
(0.0784418 0.00571655 0)
(0.0767622 0.00572958 0)
(0.0749995 0.00568526 0)
(0.0731645 0.00558469 0)
(0.071271 0.00543024 0)
(0.0693355 0.00522562 0)
(0.0673773 0.00497589 0)
(0.0654176 0.00468736 0)
(0.0634795 0.00436736 0)
(0.0615861 0.00402385 0)
(0.0597606 0.00366503 0)
(0.0580242 0.00329878 0)
(0.0563957 0.00293223 0)
(0.0548906 0.0025713 0)
(0.0535208 0.0022205 0)
(0.0522943 0.00188277 0)
(0.0512152 0.00155958 0)
(0.0502844 0.00125108 0)
(0.0495001 0.000956487 0)
(0.0488583 0.000674327 0)
(0.0483532 0.000402833 0)
(0.0479783 0.000140207 0)
(0.0477261 -0.000115149 0)
(0.0475892 -0.000364462 0)
(0.0475599 -0.0006085 0)
(0.0476308 -0.000847514 0)
(0.0477943 -0.00108124 0)
(0.0480435 -0.00130894 0)
(0.0483712 -0.00152941 0)
(0.0487706 -0.00174109 0)
(0.0492348 -0.00194212 0)
(0.0497569 -0.0021304 0)
(0.05033 -0.00230369 0)
(0.050947 -0.00245967 0)
(0.0516009 -0.00259604 0)
(0.0522843 -0.00271058 0)
(0.0529899 -0.00280123 0)
(0.0537101 -0.0028662 0)
(0.0544375 -0.00290401 0)
(0.0551644 -0.00291357 0)
(0.0558834 -0.00289429 0)
(0.0565871 -0.00284609 0)
(0.0572687 -0.00276947 0)
(0.0579212 -0.00266556 0)
(0.0585388 -0.00253611 0)
(0.0591157 -0.00238351 0)
(0.0596471 -0.00221069 0)
(0.0601292 -0.00202113 0)
(0.0605587 -0.00181874 0)
(0.0609336 -0.00160772 0)
(0.0612528 -0.00139245 0)
(0.061516 -0.00117736 0)
(0.0617243 -0.000966739 0)
(0.0618793 -0.000764629 0)
(0.0619838 -0.000574665 0)
(0.0620413 -0.000399975 0)
(0.062056 -0.00024309 0)
(0.0620326 -0.000105884 0)
(0.0619761 1.04456e-05 0)
(0.061892 0.000105379 0)
(0.0617857 0.000179036 0)
(0.0616628 0.000232124 0)
(0.0615285 0.000265856 0)
(0.0613878 0.00028187 0)
(0.0612454 0.000282126 0)
(0.0611054 0.000268819 0)
(0.0609714 0.00024428 0)
(0.0608466 0.00021089 0)
(0.0607333 0.000171006 0)
(0.0606335 0.000126893 0)
(0.0605483 8.06654e-05 0)
(0.0604786 3.42462e-05 0)
(0.0604246 -1.06692e-05 0)
(0.060386 -5.26357e-05 0)
(0.0603622 -9.04722e-05 0)
(0.0603521 -0.000123267 0)
(0.0603546 -0.000150377 0)
(0.060368 -0.000171416 0)
(0.0603908 -0.000186244 0)
(0.0604212 -0.000194943 0)
(0.0604574 -0.000197796 0)
(0.0604976 -0.000195259 0)
(0.0605402 -0.000187926 0)
(0.0605836 -0.0001765 0)
(0.0606263 -0.000161757 0)
(0.0606672 -0.000144513 0)
(0.0607051 -0.000125587 0)
(0.0607394 -0.000105773 0)
(0.0607693 -8.58113e-05 0)
(0.0607946 -6.63649e-05 0)
(0.0608151 -4.80008e-05 0)
(0.0608309 -3.11779e-05 0)
(0.0608421 -1.62403e-05 0)
(0.0608492 -3.4162e-06 0)
(0.0608525 7.177e-06 0)
(0.0608527 1.5524e-05 0)
(0.0608503 2.16987e-05 0)
(0.0608458 2.58487e-05 0)
(0.0608399 2.81783e-05 0)
(0.060833 2.89318e-05 0)
(0.0608256 2.83764e-05 0)
(0.0608182 2.67869e-05 0)
(0.0608111 2.44326e-05 0)
(0.0608045 2.15664e-05 0)
(0.0607986 1.84161e-05 0)
(0.0607935 1.51791e-05 0)
(0.0607892 1.20187e-05 0)
(0.0607858 9.06326e-06 0)
(0.0607833 6.40667e-06 0)
(0.0607814 4.11195e-06 0)
(0.0607802 2.21087e-06 0)
(0.0607796 7.22491e-07 0)
(0.0607794 -4.02089e-07 0)
(0.0607794 -1.09022e-06 0)
(-0.000697829 0.00309724 0)
(-0.00210504 0.00472168 0)
(-0.00256902 0.00494942 0)
(-0.00280237 0.00450351 0)
(-0.00262488 0.00403373 0)
(-0.0023564 0.00356945 0)
(-0.00193397 0.00316736 0)
(-0.00144103 0.00281085 0)
(-0.000867169 0.00249554 0)
(-0.000236046 0.00221284 0)
(0.000452674 0.00195595 0)
(0.00119224 0.00171964 0)
(0.0019829 0.00149891 0)
(0.00282387 0.00128975 0)
(0.00371675 0.00108814 0)
(0.00466332 0.000890376 0)
(0.00566622 0.000692666 0)
(0.00672835 0.000491238 0)
(0.00785289 0.000282236 0)
(0.00904305 6.18057e-05 0)
(0.010302 -0.00017387 0)
(0.0116329 -0.00042846 0)
(0.0130384 -0.00070539 0)
(0.0145212 -0.00100772 0)
(0.0160834 -0.00133803 0)
(0.0177267 -0.00169835 0)
(0.0194528 -0.00209002 0)
(0.0212624 -0.00251372 0)
(0.0231563 -0.00296936 0)
(0.0251345 -0.00345608 0)
(0.0271967 -0.00397232 0)
(0.029342 -0.00451577 0)
(0.031569 -0.00508346 0)
(0.0338758 -0.00567181 0)
(0.0362596 -0.00627664 0)
(0.0387171 -0.0068933 0)
(0.0412443 -0.00751667 0)
(0.0438362 -0.00814122 0)
(0.046487 -0.00876108 0)
(0.0491901 -0.00937004 0)
(0.0519378 -0.00996167 0)
(0.0547213 -0.0105293 0)
(0.0575308 -0.011066 0)
(0.0603554 -0.011565 0)
(0.0631833 -0.0120192 0)
(0.0660013 -0.0124218 0)
(0.0687955 -0.012766 0)
(0.0715511 -0.0130456 0)
(0.0742525 -0.0132544 0)
(0.076884 -0.013387 0)
(0.0794292 -0.0134388 0)
(0.0818724 -0.0134059 0)
(0.0841982 -0.0132857 0)
(0.0863921 -0.0130769 0)
(0.0884414 -0.0127796 0)
(0.0903352 -0.0123956 0)
(0.0920651 -0.0119283 0)
(0.0936253 -0.0113828 0)
(0.0950131 -0.0107657 0)
(0.0962287 -0.010085 0)
(0.0972753 -0.00934943 0)
(0.0981585 -0.00856878 0)
(0.0988865 -0.00775297 0)
(0.0994688 -0.00691192 0)
(0.0999165 -0.00605516 0)
(0.100241 -0.00519159 0)
(0.100454 -0.00432921 0)
(0.100567 -0.00347503 0)
(0.100591 -0.002635 0)
(0.100534 -0.001814 0)
(0.100406 -0.00101595 0)
(0.100213 -0.000243894 0)
(0.0999605 0.000499833 0)
(0.0996525 0.00121344 0)
(0.0992917 0.00189552 0)
(0.0988794 0.00254486 0)
(0.0984159 0.00316035 0)
(0.0979003 0.00374075 0)
(0.0973308 0.0042847 0)
(0.0967051 0.00479055 0)
(0.0960199 0.00525636 0)
(0.0952717 0.00567987 0)
(0.0944567 0.00605855 0)
(0.093571 0.00638963 0)
(0.092611 0.00667022 0)
(0.0915733 0.00689741 0)
(0.0904556 0.00706846 0)
(0.0892562 0.00718095 0)
(0.0879751 0.00723298 0)
(0.0866139 0.00722338 0)
(0.0851763 0.00715192 0)
(0.0836682 0.00701944 0)
(0.082098 0.00682803 0)
(0.080477 0.006581 0)
(0.0788186 0.00628294 0)
(0.0771389 0.00593951 0)
(0.0754557 0.00555733 0)
(0.0737885 0.00514365 0)
(0.072157 0.00470606 0)
(0.0705812 0.0042521 0)
(0.0690797 0.00378895 0)
(0.0676697 0.00332306 0)
(0.0663657 0.00285995 0)
(0.0651795 0.00240399 0)
(0.0641196 0.00195843 0)
(0.0631913 0.00152537 0)
(0.0623972 0.00110603 0)