/*--------------------------------*- C++ -*----------------------------------*\
| =========                 |                                                 |
| \\      /  F ield         | OpenFOAM: The Open Source CFD Toolbox           |
|  \\    /   O peration     | Version:  4.1                                   |
|   \\  /    A nd           | Web:      www.OpenFOAM.org                      |
|    \\/     M anipulation  |                                                 |
\*---------------------------------------------------------------------------*/
FoamFile
{
    version     2.0;
    format      ascii;
    class       volVectorField;
    location    "1830";
    object      U;
}
// * * * * * * * * * * * * * * * * * * * * * * * * * * * * * * * * * * * * * //

dimensions      [0 1 -1 0 0 0 0];

internalField   nonuniform List<vector> 
1275
(
(0.0147099 0.000107457 0)
(0.01445 0.000105459 0)
(0.0141667 0.000102325 0)
(0.0138633 9.82607e-05 0)
(0.0135441 9.34591e-05 0)
(0.0132118 8.81989e-05 0)
(0.0128696 8.25973e-05 0)
(0.01252 7.68948e-05 0)
(0.0121651 7.11673e-05 0)
(0.011807 6.55909e-05 0)
(0.0114471 6.02075e-05 0)
(0.0110869 5.51298e-05 0)
(0.0107276 5.03698e-05 0)
(0.0103701 4.59876e-05 0)
(0.0100152 4.19715e-05 0)
(0.00966372 3.8343e-05 0)
(0.00931611 3.50737e-05 0)
(0.00897294 3.216e-05 0)
(0.00863455 2.95647e-05 0)
(0.00830138 2.72695e-05 0)
(0.00797368 2.52347e-05 0)
(0.00765178 2.34357e-05 0)
(0.0073359 2.18347e-05 0)
(0.00702632 2.04061e-05 0)
(0.00672322 1.91164e-05 0)
(0.00642683 1.79421e-05 0)
(0.00613734 1.68556e-05 0)
(0.00585495 1.58372e-05 0)
(0.00557981 1.48652e-05 0)
(0.00531211 1.39244e-05 0)
(0.00505199 1.29992e-05 0)
(0.00479959 1.20793e-05 0)
(0.00455503 1.11551e-05 0)
(0.00431842 1.02215e-05 0)
(0.00408983 9.2746e-06 0)
(0.00386933 8.31438e-06 0)
(0.00365697 7.3424e-06 0)
(0.00345276 6.36345e-06 0)
(0.0032567 5.38367e-06 0)
(0.00306877 4.41157e-06 0)
(0.00288891 3.45645e-06 0)
(0.00271706 2.52887e-06 0)
(0.00255313 1.63927e-06 0)
(0.002397 7.98111e-07 0)
(0.00224856 1.47125e-08 0)
(0.00210765 -7.02747e-07 0)
(0.00197413 -1.34805e-06 0)
(0.00184781 -1.91694e-06 0)
(0.00172853 -2.40751e-06 0)
(0.0016161 -2.82009e-06 0)
(0.00151031 -3.15727e-06 0)
(0.00141096 -3.4235e-06 0)
(0.00131786 -3.62494e-06 0)
(0.00123078 -3.76892e-06 0)
(0.00114953 -3.86356e-06 0)
(0.00107388 -3.91731e-06 0)
(0.00100364 -3.93853e-06 0)
(0.000938584 -3.93516e-06 0)
(0.000878525 -3.9144e-06 0)
(0.000823262 -3.88256e-06 0)
(0.000772605 -3.8449e-06 0)
(0.000726372 -3.80566e-06 0)
(0.000684389 -3.76805e-06 0)
(0.000646489 -3.73439e-06 0)
(0.000612517 -3.70621e-06 0)
(0.000582324 -3.68443e-06 0)
(0.000555775 -3.66953e-06 0)
(0.00053274 -3.66164e-06 0)
(0.000513099 -3.66077e-06 0)
(0.000496744 -3.6668e-06 0)
(0.000483571 -3.67965e-06 0)
(0.000473487 -3.6993e-06 0)
(0.000466405 -3.72579e-06 0)
(0.000462245 -3.75927e-06 0)
(0.000460935 -3.79996e-06 0)
(0.000462407 -3.84815e-06 0)
(0.000466598 -3.90414e-06 0)
(0.000473451 -3.96824e-06 0)
(0.000482911 -4.04073e-06 0)
(0.000494929 -4.12181e-06 0)
(0.000509454 -4.21163e-06 0)
(0.000526443 -4.31023e-06 0)
(0.000545849 -4.41753e-06 0)
(0.000567629 -4.53334e-06 0)
(0.000591741 -4.65736e-06 0)
(0.000618141 -4.78918e-06 0)
(0.000646784 -4.92826e-06 0)
(0.000677627 -5.07398e-06 0)
(0.000710624 -5.22564e-06 0)
(0.000745727 -5.38242e-06 0)
(0.000782887 -5.5435e-06 0)
(0.000822052 -5.70794e-06 0)
(0.00086317 -5.87486e-06 0)
(0.000906184 -6.04318e-06 0)
(0.000951038 -6.21212e-06 0)
(0.00099767 -6.3804e-06 0)
(0.00104602 -6.54752e-06 0)
(0.00109602 -6.71182e-06 0)
(0.0011476 -6.87348e-06 0)
(0.0012007 -7.03002e-06 0)
(0.00125523 -7.18295e-06 0)
(0.00131115 -7.32818e-06 0)
(0.00136834 -7.46972e-06 0)
(0.0014268 -7.60032e-06 0)
(0.00148632 -7.72864e-06 0)
(0.00154705 -7.84151e-06 0)
(0.00160856 -7.95587e-06 0)
(0.0016713 -8.04796e-06 0)
(0.00173441 -8.14902e-06 0)
(0.00179896 -8.21724e-06 0)
(0.00186324 -8.30727e-06 0)
(0.00192952 -8.34855e-06 0)
(0.00199437 -8.43147e-06 0)
(0.00206248 -8.44354e-06 0)
(0.0021271 -8.52408e-06 0)
(0.00219752 -8.50871e-06 0)
(0.00226071 -8.58959e-06 0)
(0.00233445 -8.56238e-06 0)
(0.00239435 -8.63717e-06 0)
(0.00247337 -8.65707e-06 0)
(0.0025272 -8.69604e-06 0)
(0.00261475 -8.95983e-06 0)
(0.00265863 -8.89839e-06 0)
(0.00275971 -1.0069e-05 0)
(0.00278953 -9.92597e-06 0)
(0.00291122 -1.43862e-05 0)
(0.00292736 -1.54698e-05 0)
(0.00308024 -3.42357e-05 0)
(0.0391377 0.000385841 0)
(0.0389425 0.000440314 0)
(0.0386829 0.000487466 0)
(0.0383632 0.000527983 0)
(0.0379887 0.000562129 0)
(0.0375638 0.000590721 0)
(0.0370929 0.000614018 0)
(0.0365804 0.000632777 0)
(0.0360303 0.000647281 0)
(0.0354462 0.000658169 0)
(0.0348318 0.000665725 0)
(0.0341905 0.000670462 0)
(0.0335252 0.000672638 0)
(0.0328392 0.000672649 0)
(0.0321349 0.000670713 0)
(0.0314151 0.000667127 0)
(0.030682 0.00066206 0)
(0.0299381 0.00065573 0)
(0.0291853 0.000648263 0)
(0.0284257 0.000639813 0)
(0.0276611 0.000630474 0)
(0.0268934 0.000620353 0)
(0.0261241 0.000609519 0)
(0.025355 0.00059805 0)
(0.0245875 0.000585996 0)
(0.0238231 0.000573417 0)
(0.0230631 0.000560357 0)
(0.022309 0.000546863 0)
(0.0215621 0.000532978 0)
(0.0208236 0.000518745 0)
(0.0200946 0.000504205 0)
(0.0193764 0.000489404 0)
(0.0186701 0.000474382 0)
(0.0179766 0.000459185 0)
(0.0172969 0.000443854 0)
(0.016632 0.000428435 0)
(0.0159827 0.000412969 0)
(0.0153497 0.000397497 0)
(0.0147339 0.000382058 0)
(0.0141357 0.00036669 0)
(0.0135558 0.000351426 0)
(0.0129947 0.000336298 0)
(0.0124526 0.000321334 0)
(0.01193 0.000306561 0)
(0.0114271 0.000292001 0)
(0.010944 0.000277677 0)
(0.0104807 0.000263609 0)
(0.0100374 0.000249815 0)
(0.00961383 0.000236312 0)
(0.00920998 0.000223117 0)
(0.00882562 0.000210246 0)
(0.00846052 0.000197715 0)
(0.00811437 0.000185535 0)
(0.00778684 0.00017372 0)
(0.00747755 0.000162279 0)
(0.00718609 0.000151219 0)
(0.00691204 0.000140545 0)
(0.00665493 0.000130258 0)
(0.0064143 0.000120354 0)
(0.00618967 0.00011083 0)
(0.00598056 0.000101676 0)
(0.00578647 9.28818e-05 0)
(0.00560693 8.44323e-05 0)
(0.00544145 7.63124e-05 0)
(0.00528957 6.85049e-05 0)
(0.00515081 6.09918e-05 0)
(0.00502473 5.37546e-05 0)
(0.00491089 4.67746e-05 0)
(0.00480886 4.00338e-05 0)
(0.00471825 3.35145e-05 0)
(0.00463867 2.72e-05 0)
(0.00456972 2.10745e-05 0)
(0.00451107 1.51237e-05 0)
(0.00446236 9.33417e-06 0)
(0.00442326 3.69398e-06 0)
(0.00439347 -1.80758e-06 0)
(0.00437269 -7.1799e-06 0)
(0.00436062 -1.24311e-05 0)
(0.00435699 -1.75681e-05 0)
(0.00436154 -2.25966e-05 0)
(0.00437401 -2.75212e-05 0)
(0.00439417 -3.23454e-05 0)
(0.00442177 -3.70718e-05 0)
(0.00445657 -4.17018e-05 0)
(0.00449837 -4.62361e-05 0)
(0.00454693 -5.06748e-05 0)
(0.00460203 -5.50168e-05 0)
(0.00466348 -5.92607e-05 0)
(0.00473104 -6.34045e-05 0)
(0.00480452 -6.74455e-05 0)
(0.00488371 -7.13809e-05 0)
(0.0049684 -7.52072e-05 0)
(0.00505838 -7.89213e-05 0)
(0.00515344 -8.25187e-05 0)
(0.00525338 -8.5997e-05 0)
(0.005358 -8.93502e-05 0)
(0.00546708 -9.25783e-05 0)
(0.00558041 -9.5672e-05 0)
(0.0056978 -9.86367e-05 0)
(0.00581904 -0.000101456 0)
(0.0059439 -0.000104148 0)
(0.00607221 -0.00010668 0)
(0.00620371 -0.000109093 0)
(0.00633831 -0.000111325 0)
(0.00647562 -0.000113461 0)
(0.00661572 -0.000115379 0)
(0.00675799 -0.000117253 0)
(0.00690289 -0.000118839 0)
(0.00704925 -0.000120479 0)
(0.00719833 -0.000121704 0)
(0.00734786 -0.000123166 0)
(0.00750068 -0.000123981 0)
(0.00765229 -0.000125355 0)
(0.0078087 -0.00012568 0)
(0.00796104 -0.000127106 0)
(0.0081214 -0.000126818 0)
(0.0082726 -0.000128493 0)
(0.00843807 -0.00012744 0)
(0.00858538 -0.000129595 0)
(0.00875843 -0.000127679 0)
(0.00889773 -0.000130482 0)
(0.00908273 -0.000127959 0)
(0.00920804 -0.00013126 0)
(0.00941181 -0.000129636 0)
(0.00951525 -0.000132579 0)
(0.00974683 -0.000137378 0)
(0.00981964 -0.000138402 0)
(0.0100875 -0.00016968 0)
(0.0591698 0.000427492 0)
(0.0591107 0.000559845 0)
(0.0589826 0.000680589 0)
(0.0587882 0.000790892 0)
(0.0585316 0.000890741 0)
(0.0582159 0.000981315 0)
(0.0578443 0.00106273 0)
(0.0574199 0.00113602 0)
(0.0569455 0.00120142 0)
(0.0564242 0.00125976 0)
(0.0558583 0.00131137 0)
(0.0552506 0.00135691 0)
(0.0546033 0.0013967 0)
(0.0539189 0.00143126 0)
(0.0531995 0.00146089 0)
(0.0524474 0.00148601 0)
(0.0516646 0.00150685 0)
(0.050853 0.00152373 0)
(0.0500147 0.00153685 0)
(0.0491516 0.00154645 0)
(0.0482655 0.00155268 0)
(0.0473584 0.00155571 0)
(0.0464319 0.00155567 0)
(0.0454881 0.00155268 0)
(0.0445288 0.00154684 0)
(0.0435558 0.00153825 0)
(0.042571 0.00152699 0)
(0.0415763 0.00151315 0)
(0.0405737 0.0014968 0)
(0.0395651 0.00147804 0)
(0.0385525 0.00145694 0)
(0.0375379 0.0014336 0)
(0.0365234 0.00140813 0)
(0.035511 0.00138062 0)
(0.0345027 0.00135119 0)
(0.0335006 0.00131998 0)
(0.0325068 0.00128713 0)
(0.0315232 0.00125277 0)
(0.0305518 0.00121707 0)
(0.0295946 0.0011802 0)
(0.0286534 0.00114231 0)
(0.0277299 0.00110358 0)
(0.0268259 0.00106419 0)
(0.0259428 0.00102431 0)
(0.0250821 0.000984102 0)
(0.0242451 0.00094374 0)
(0.023433 0.000903375 0)
(0.0226467 0.000863156 0)
(0.0218872 0.000823219 0)
(0.0211552 0.000783688 0)
(0.0204511 0.000744674 0)
(0.0197754 0.000706277 0)
(0.0191285 0.000668581 0)
(0.0185103 0.000631659 0)
(0.017921 0.00059557 0)
(0.0173604 0.000560363 0)
(0.0168284 0.000526074 0)
(0.0163246 0.00049273 0)
(0.0158486 0.000460349 0)
(0.0154 0.00042894 0)
(0.0149782 0.000398505 0)
(0.0145828 0.00036904 0)
(0.014213 0.000340536 0)
(0.0138683 0.000312976 0)
(0.0135479 0.000286342 0)
(0.0132511 0.000260611 0)
(0.0129773 0.000235758 0)
(0.0127258 0.000211755 0)
(0.0124958 0.000188572 0)
(0.0122867 0.000166178 0)
(0.0120977 0.000144542 0)
(0.0119282 0.000123631 0)
(0.0117774 0.000103413 0)
(0.0116448 8.38591e-05 0)
(0.0115296 6.49378e-05 0)
(0.0114313 4.66209e-05 0)
(0.0113492 2.88816e-05 0)
(0.0112828 1.16946e-05 0)
(0.0112314 -4.96299e-06 0)
(0.0111944 -2.11121e-05 0)
(0.0111715 -3.67713e-05 0)
(0.0111619 -5.19572e-05 0)
(0.0111653 -6.66841e-05 0)
(0.011181 -8.0964e-05 0)
(0.0112087 -9.48072e-05 0)
(0.0112477 -0.000108222 0)
(0.0112978 -0.000121214 0)
(0.0113583 -0.00013379 0)
(0.0114289 -0.000145952 0)
(0.0115092 -0.000157702 0)
(0.0115987 -0.000169042 0)
(0.0116969 -0.000179972 0)
(0.0118036 -0.000190492 0)
(0.0119182 -0.000200601 0)
(0.0120405 -0.000210298 0)
(0.0121699 -0.00021958 0)
(0.0123062 -0.000228451 0)
(0.012449 -0.000236901 0)
(0.0125978 -0.000244942 0)
(0.0127524 -0.000252555 0)
(0.0129124 -0.000259769 0)
(0.0130775 -0.000266543 0)
(0.0132473 -0.000272941 0)
(0.0134215 -0.000278875 0)
(0.0135997 -0.000284479 0)
(0.0137818 -0.000289572 0)
(0.0139672 -0.000294423 0)
(0.014156 -0.000298668 0)
(0.0143474 -0.000302837 0)
(0.014542 -0.00030621 0)
(0.014738 -0.000309807 0)
(0.0149375 -0.000312254 0)
(0.0151369 -0.000315451 0)
(0.0153409 -0.000316865 0)
(0.015542 -0.000319922 0)
(0.0157505 -0.00032012 0)
(0.0159514 -0.000323409 0)
(0.0161653 -0.000322137 0)
(0.016363 -0.000326132 0)
(0.0165848 -0.000323161 0)
(0.0167747 -0.000328329 0)
(0.0170089 -0.00032382 0)
(0.0171841 -0.000330249 0)
(0.0174388 -0.000325839 0)
(0.0175886 -0.000332288 0)
(0.0178759 -0.000333708 0)
(0.0179833 -0.000336323 0)
(0.01832 -0.000355943 0)
(0.0771476 0.000430544 0)
(0.0771016 0.00062857 0)
(0.0769948 0.000811374 0)
(0.07683 0.000980785 0)
(0.0766101 0.00113666 0)
(0.0763378 0.00128064 0)
(0.0760156 0.00141285 0)
(0.0756459 0.00153466 0)
(0.0752306 0.00164636 0)
(0.0747719 0.00174903 0)
(0.0742715 0.00184309 0)
(0.0737311 0.00192935 0)
(0.0731522 0.00200824 0)
(0.0725363 0.0020804 0)
(0.0718846 0.00214618 0)
(0.0711986 0.00220607 0)
(0.0704792 0.00226037 0)
(0.0697278 0.00230942 0)
(0.0689452 0.00235344 0)
(0.0681326 0.00239267 0)
(0.0672911 0.00242724 0)
(0.0664216 0.00245732 0)
(0.0655252 0.00248297 0)
(0.0646029 0.00250429 0)
(0.0636559 0.0025213 0)
(0.0626853 0.00253404 0)
(0.0616923 0.00254251 0)
(0.0606781 0.00254671 0)
(0.0596441 0.00254664 0)
(0.0585917 0.00254227 0)
(0.0575225 0.00253361 0)
(0.0564379 0.00252066 0)
(0.0553398 0.00250341 0)
(0.0542298 0.0024819 0)
(0.05311 0.00245616 0)
(0.0519822 0.00242626 0)
(0.0508486 0.00239227 0)
(0.0497113 0.00235429 0)
(0.0485725 0.00231248 0)
(0.0474346 0.00226697 0)
(0.0462999 0.00221796 0)
(0.0451708 0.00216565 0)
(0.0440497 0.00211029 0)
(0.042939 0.00205212 0)
(0.0418411 0.00199144 0)
(0.0407583 0.00192852 0)
(0.0396929 0.00186369 0)
(0.0386472 0.00179724 0)
(0.0376232 0.00172951 0)
(0.0366229 0.00166081 0)
(0.0356481 0.00159146 0)
(0.0347005 0.00152175 0)
(0.0337817 0.00145197 0)
(0.0328929 0.00138241 0)
(0.0320354 0.00131331 0)
(0.03121 0.0012449 0)
(0.0304177 0.00117739 0)
(0.0296589 0.00111096 0)
(0.0289342 0.00104576 0)
(0.0282437 0.000981918 0)
(0.0275875 0.000919545 0)
(0.0269657 0.000858723 0)
(0.0263779 0.000799512 0)
(0.0258239 0.000741956 0)
(0.0253033 0.000686081 0)
(0.0248154 0.000631896 0)
(0.0243597 0.000579399 0)
(0.0239356 0.000528579 0)
(0.0235421 0.000479414 0)
(0.0231787 0.000431874 0)
(0.0228444 0.000385925 0)
(0.0225384 0.00034153 0)
(0.0222598 0.000298647 0)
(0.0220078 0.000257234 0)
(0.0217813 0.000217247 0)
(0.0215796 0.000178642 0)
(0.0214017 0.000141377 0)
(0.0212468 0.000105408 0)
(0.0211139 7.06975e-05 0)
(0.0210022 3.72053e-05 0)
(0.0209109 4.89565e-06 0)
(0.0208391 -2.62654e-05 0)
(0.020786 -5.63092e-05 0)
(0.0207508 -8.5265e-05 0)
(0.0207327 -0.000113159 0)
(0.0207309 -0.000140017 0)
(0.0207447 -0.000165859 0)
(0.0207734 -0.000190706 0)
(0.0208162 -0.000214576 0)
(0.0208725 -0.000237486 0)
(0.0209416 -0.000259449 0)
(0.0210228 -0.000280481 0)
(0.0211155 -0.000300593 0)
(0.021219 -0.000319796 0)
(0.0213329 -0.000338103 0)
(0.0214564 -0.000355522 0)
(0.021589 -0.000372069 0)
(0.0217301 -0.000387746 0)
(0.0218793 -0.000402577 0)
(0.0220359 -0.000416553 0)
(0.0221996 -0.000429719 0)
(0.0223697 -0.000442035 0)
(0.0225459 -0.000453595 0)
(0.0227277 -0.000464298 0)
(0.0229146 -0.000474326 0)
(0.0231063 -0.000483455 0)
(0.0233022 -0.000492051 0)
(0.0235022 -0.00049964 0)
(0.0237055 -0.000506939 0)
(0.0239124 -0.000512995 0)
(0.0241216 -0.00051919 0)
(0.0243342 -0.000523671 0)
(0.0245478 -0.000529045 0)
(0.0247653 -0.000531828 0)
(0.0249816 -0.000536792 0)
(0.0252037 -0.000537631 0)
(0.0254207 -0.00054277 0)
(0.0256478 -0.000541278 0)
(0.0258627 -0.000547357 0)
(0.0260967 -0.000543109 0)
(0.026305 -0.000550919 0)
(0.0265504 -0.000543886 0)
(0.0267446 -0.000553714 0)
(0.02701 -0.000545377 0)
(0.0271766 -0.000555997 0)
(0.0274776 -0.000550949 0)
(0.0275931 -0.000558784 0)
(0.0279544 -0.000565706 0)
(0.0933281 0.000454006 0)
(0.0932462 0.000711931 0)
(0.0931126 0.000951171 0)
(0.0929303 0.00117443 0)
(0.0927012 0.00138133 0)
(0.0924284 0.00157401 0)
(0.0921132 0.0017526 0)
(0.0917583 0.00191874 0)
(0.0913648 0.00207287 0)
(0.0909347 0.00221624 0)
(0.0904691 0.00234939 0)
(0.0899695 0.0024733 0)
(0.0894368 0.00258849 0)
(0.0888722 0.00269572 0)
(0.0882765 0.00279546 0)
(0.0876506 0.00288828 0)
(0.0869951 0.00297454 0)
(0.0863109 0.00305465 0)
(0.0855984 0.0031289 0)
(0.0848582 0.00319754 0)
(0.0840908 0.00326077 0)
(0.0832968 0.00331873 0)
(0.0824766 0.00337153 0)
(0.0816307 0.00341922 0)
(0.0807597 0.00346183 0)
(0.079864 0.00349934 0)
(0.0789443 0.00353173 0)
(0.0780012 0.00355894 0)
(0.0770353 0.00358087 0)
(0.0760474 0.00359747 0)
(0.0750384 0.00360861 0)
(0.0740091 0.00361422 0)
(0.0729605 0.00361419 0)
(0.0718938 0.00360843 0)
(0.0708101 0.00359688 0)
(0.0697109 0.00357948 0)
(0.0685975 0.00355618 0)
(0.0674715 0.00352698 0)
(0.0663346 0.00349191 0)
(0.0651886 0.00345099 0)
(0.0640353 0.00340433 0)
(0.0628768 0.00335204 0)
(0.0617152 0.00329428 0)
(0.0605527 0.00323123 0)
(0.0593916 0.00316314 0)
(0.0582341 0.00309027 0)
(0.0570826 0.00301292 0)
(0.0559396 0.00293142 0)
(0.0548074 0.00284613 0)
(0.0536885 0.00275745 0)
(0.0525852 0.00266577 0)
(0.0514997 0.0025715 0)
(0.0504344 0.00247508 0)
(0.0493915 0.00237694 0)
(0.0483728 0.0022775 0)
(0.0473804 0.00217719 0)
(0.0464159 0.0020764 0)
(0.0454811 0.00197553 0)
(0.0445772 0.00187495 0)
(0.0437057 0.00177499 0)
(0.0428674 0.00167597 0)
(0.0420634 0.00157818 0)
(0.0412943 0.00148186 0)
(0.0405607 0.00138724 0)
(0.0398628 0.0012945 0)
(0.0392008 0.0012038 0)
(0.0385748 0.00111528 0)
(0.0379847 0.00102903 0)
(0.03743 0.000945139 0)
(0.0369105 0.000863652 0)
(0.0364257 0.000784606 0)
(0.0359748 0.000708019 0)
(0.0355573 0.000633891 0)
(0.0351723 0.000562211 0)
(0.0348191 0.000492959 0)
(0.0344966 0.000426103 0)
(0.0342041 0.000361607 0)
(0.0339404 0.000299429 0)
(0.0337047 0.000239526 0)
(0.033496 0.000181849 0)
(0.0333132 0.00012635 0)
(0.0331552 7.29813e-05 0)
(0.0330212 2.16937e-05 0)
(0.03291 -2.75601e-05 0)
(0.0328207 -7.48265e-05 0)
(0.0327523 -0.000120151 0)
(0.0327038 -0.000163576 0)
(0.0326742 -0.000205143 0)
(0.0326626 -0.000244894 0)
(0.0326681 -0.000282867 0)
(0.0326898 -0.000319098 0)
(0.0327268 -0.000353624 0)
(0.0327782 -0.00038648 0)
(0.0328432 -0.000417699 0)
(0.0329211 -0.000447317 0)
(0.0330109 -0.000475363 0)
(0.0331121 -0.000501873 0)
(0.0332238 -0.000526875 0)
(0.0333453 -0.000550412 0)
(0.033476 -0.000572499 0)
(0.0336152 -0.000593197 0)
(0.0337623 -0.000612499 0)
(0.0339167 -0.000630503 0)
(0.0340777 -0.00064715 0)
(0.0342449 -0.000662619 0)
(0.0344177 -0.000676739 0)
(0.0345957 -0.000689853 0)
(0.0347782 -0.000701565 0)
(0.0349649 -0.000712541 0)
(0.0351554 -0.000721941 0)
(0.0353492 -0.000731048 0)
(0.035546 -0.000738187 0)
(0.0357453 -0.000745778 0)
(0.0359472 -0.000750624 0)
(0.0361502 -0.000757184 0)
(0.0363565 -0.000759578 0)
(0.0365614 -0.000765771 0)
(0.0367719 -0.000765393 0)
(0.0369762 -0.000772101 0)
(0.0371924 -0.000768483 0)
(0.0373919 -0.000776779 0)
(0.0376177 -0.000769485 0)
(0.0378048 -0.000780381 0)
(0.0380488 -0.000769643 0)
(0.0382099 -0.000783156 0)
(0.0384882 -0.000771786 0)
(0.0385979 -0.000783986 0)
(0.0389392 -0.000779373 0)
(0.106391 0.000538766 0)
(0.106274 0.000843892 0)
(0.106117 0.00112737 0)
(0.105923 0.00139259 0)
(0.105694 0.00163916 0)
(0.105431 0.00186955 0)
(0.105135 0.00208407 0)
(0.104808 0.00228454 0)
(0.104451 0.00247159 0)
(0.104065 0.00264661 0)
(0.103651 0.00281032 0)
(0.10321 0.00296381 0)
(0.102742 0.00310777 0)
(0.102248 0.00324303 0)
(0.101728 0.00337019 0)
(0.101183 0.00348988 0)
(0.100613 0.00360257 0)
(0.100019 0.00370872 0)
(0.0993997 0.00380867 0)
(0.0987569 0.00390272 0)
(0.0980901 0.00399108 0)
(0.0973997 0.00407393 0)
(0.0966857 0.00415136 0)
(0.0959483 0.00422344 0)
(0.0951878 0.00429016 0)
(0.0944043 0.0043515 0)
(0.093598 0.00440737 0)
(0.0927692 0.00445768 0)
(0.0919182 0.00450228 0)
(0.0910454 0.00454102 0)
(0.0901511 0.00457373 0)
(0.0892358 0.00460023 0)
(0.0883002 0.00462033 0)
(0.0873448 0.00463384 0)
(0.0863704 0.00464058 0)
(0.0853778 0.00464039 0)
(0.084368 0.00463311 0)
(0.083342 0.00461862 0)
(0.082301 0.00459682 0)
(0.0812462 0.00456763 0)
(0.080179 0.00453104 0)
(0.0791009 0.00448704 0)
(0.0780136 0.00443569 0)
(0.0769186 0.00437708 0)
(0.0758178 0.00431135 0)
(0.0747131 0.0042387 0)
(0.0736066 0.00415935 0)
(0.0725001 0.00407358 0)
(0.0713959 0.00398173 0)
(0.0702961 0.00388414 0)
(0.0692029 0.00378122 0)
(0.0681186 0.00367339 0)
(0.0670452 0.00356112 0)
(0.065985 0.00344488 0)
(0.0649402 0.00332516 0)
(0.0639129 0.00320248 0)
(0.062905 0.00307735 0)
(0.0619186 0.00295026 0)
(0.0609554 0.00282173 0)
(0.0600173 0.00269225 0)
(0.0591058 0.00256228 0)
(0.0582224 0.00243229 0)
(0.0573684 0.0023027 0)
(0.0565449 0.0021739 0)
(0.055753 0.00204628 0)
(0.0549934 0.00192017 0)
(0.0542669 0.00179588 0)
(0.053574 0.00167368 0)
(0.052915 0.00155381 0)
(0.05229 0.00143648 0)
(0.0516992 0.00132186 0)
(0.0511425 0.00121011 0)
(0.0506196 0.00110134 0)
(0.0501302 0.000995647 0)
(0.0496737 0.000893107 0)
(0.0492498 0.000793767 0)
(0.0488576 0.00069766 0)
(0.0484966 0.0006048 0)
(0.0481659 0.000515189 0)
(0.0478646 0.000428815 0)
(0.0475918 0.000345657 0)
(0.0473466 0.000265684 0)
(0.0471281 0.00018886 0)
(0.0469352 0.000115141 0)
(0.0467669 4.448e-05 0)
(0.0466221 -2.31737e-05 0)
(0.0464999 -8.7874e-05 0)
(0.0463993 -0.000149677 0)
(0.0463191 -0.000208639 0)
(0.0462584 -0.000264819 0)
(0.0462162 -0.000318276 0)
(0.0461915 -0.00036907 0)
(0.0461833 -0.000417259 0)
(0.0461907 -0.000462905 0)
(0.0462127 -0.000506068 0)
(0.0462485 -0.000546807 0)
(0.0462972 -0.000585187 0)
(0.0463579 -0.000621263 0)
(0.0464299 -0.000655106 0)
(0.0465123 -0.000686763 0)
(0.0466043 -0.000716322 0)
(0.0467054 -0.000743807 0)
(0.0468147 -0.000769341 0)
(0.0469315 -0.000792901 0)
(0.0470554 -0.000814685 0)
(0.0471855 -0.000834564 0)
(0.0473215 -0.000852893 0)
(0.0474626 -0.000869321 0)
(0.0476086 -0.000884524 0)
(0.0477585 -0.000897704 0)
(0.0479125 -0.000910168 0)
(0.0480695 -0.000920244 0)
(0.0482298 -0.00093045 0)
(0.0483922 -0.00093746 0)
(0.0485572 -0.000946046 0)
(0.0487239 -0.000949849 0)
(0.0488919 -0.000957696 0)
(0.0490622 -0.000957889 0)
(0.0492313 -0.000966203 0)
(0.0494056 -0.000962094 0)
(0.0495725 -0.000972348 0)
(0.0497534 -0.000963263 0)
(0.049912 -0.000976535 0)
(0.0501064 -0.000963037 0)
(0.050244 -0.000978548 0)
(0.0504677 -0.00096276 0)
(0.0505597 -0.000977615 0)
(0.050842 -0.000966165 0)
(0.11465 0.000646791 0)
(0.114513 0.000985715 0)
(0.114352 0.00130102 0)
(0.114172 0.00159688 0)
(0.11397 0.00187286 0)
(0.113749 0.00213159 0)
(0.113507 0.00237358 0)
(0.113247 0.00260068 0)
(0.112967 0.00281372 0)
(0.112669 0.00301408 0)
(0.112351 0.00320267 0)
(0.112015 0.00338055 0)
(0.11166 0.00354855 0)
(0.111285 0.0037075 0)
(0.110892 0.00385809 0)
(0.11048 0.00400097 0)
(0.110048 0.00413666 0)
(0.109596 0.00426565 0)
(0.109125 0.00438829 0)
(0.108634 0.00450492 0)
(0.108123 0.00461577 0)
(0.107592 0.00472102 0)
(0.10704 0.00482076 0)
(0.106467 0.00491506 0)
(0.105874 0.0050039 0)
(0.105259 0.00508724 0)
(0.104624 0.00516497 0)
(0.103967 0.00523696 0)
(0.10329 0.00530303 0)
(0.102591 0.00536298 0)
(0.101871 0.00541659 0)
(0.10113 0.0054636 0)
(0.100369 0.00550376 0)
(0.099587 0.00553681 0)
(0.0987853 0.00556248 0)
(0.0979641 0.00558053 0)
(0.097124 0.00559069 0)
(0.0962657 0.00559275 0)
(0.0953899 0.0055865 0)
(0.0944976 0.00557177 0)
(0.0935897 0.00554842 0)
(0.0926673 0.00551635 0)
(0.0917317 0.0054755 0)
(0.0907841 0.00542587 0)
(0.089826 0.00536749 0)
(0.0888588 0.00530046 0)
(0.0878843 0.00522493 0)
(0.086904 0.00514108 0)
(0.0859198 0.00504919 0)
(0.0849336 0.00494955 0)
(0.083947 0.00484251 0)
(0.0829623 0.00472848 0)
(0.0819812 0.0046079 0)
(0.0810058 0.00448125 0)
(0.0800382 0.00434905 0)
(0.0790801 0.00421184 0)
(0.0781337 0.00407016 0)
(0.0772009 0.00392462 0)
(0.0762834 0.00377577 0)
(0.0753831 0.00362422 0)
(0.0745017 0.00347054 0)
(0.0736408 0.00331531 0)
(0.0728019 0.00315908 0)
(0.0719864 0.00300238 0)
(0.0711955 0.00284574 0)
(0.0704305 0.00268963 0)
(0.0696922 0.00253452 0)
(0.0689817 0.00238083 0)
(0.0682995 0.00222896 0)
(0.0676462 0.00207924 0)
(0.0670224 0.00193202 0)
(0.0664283 0.00178757 0)
(0.0658641 0.00164616 0)
(0.0653299 0.00150799 0)
(0.0648255 0.00137327 0)
(0.0643507 0.00124215 0)
(0.0639054 0.00111476 0)
(0.0634891 0.000991207 0)
(0.0631012 0.00087158 0)
(0.0627413 0.000755936 0)
(0.0624087 0.000644316 0)
(0.0621027 0.000536744 0)
(0.0618225 0.000433226 0)
(0.0615674 0.000333757 0)
(0.0613364 0.000238317 0)
(0.0611288 0.000146876 0)
(0.0609435 5.93951e-05 0)
(0.0607798 -2.41747e-05 0)
(0.0606366 -0.000103888 0)
(0.060513 -0.000179805 0)
(0.060408 -0.000251994 0)
(0.0603208 -0.000320525 0)
(0.0602504 -0.000385473 0)
(0.0601959 -0.000446917 0)
(0.0601563 -0.000504937 0)
(0.0601308 -0.000559619 0)
(0.0601186 -0.000611048 0)
(0.0601187 -0.000659312 0)
(0.0601303 -0.000704504 0)
(0.0601527 -0.000746707 0)
(0.0601851 -0.000786029 0)
(0.0602267 -0.000822541 0)
(0.0602769 -0.000856376 0)
(0.0603349 -0.000887571 0)
(0.0604002 -0.000916313 0)
(0.060472 -0.000942569 0)
(0.0605499 -0.000966631 0)
(0.060633 -0.000988316 0)
(0.0607213 -0.00100814 0)
(0.0608136 -0.0010256 0)
(0.0609104 -0.00104166 0)
(0.06101 -0.00105521 0)
(0.0611136 -0.00106804 0)
(0.0612187 -0.00107792 0)
(0.0613276 -0.00108817 0)
(0.0614367 -0.00109448 0)
(0.0615497 -0.00110296 0)
(0.0616618 -0.00110563 0)
(0.0617772 -0.00111336 0)
(0.0618922 -0.00111204 0)
(0.0620076 -0.00112034 0)
(0.0621271 -0.00111438 0)
(0.0622373 -0.00112486 0)
(0.0623668 -0.00111304 0)
(0.062463 -0.00112781 0)
(0.0626124 -0.00111047 0)
(0.0626755 -0.00112582 0)
(0.0628712 -0.00110997 0)
(0.116427 0.000790439 0)
(0.116298 0.00114084 0)
(0.116164 0.00146775 0)
(0.116032 0.00177476 0)
(0.115895 0.00206224 0)
(0.115757 0.00233233 0)
(0.115613 0.00258609 0)
(0.115466 0.00282507 0)
(0.115313 0.00305044 0)
(0.115154 0.00326342 0)
(0.114986 0.00346509 0)
(0.114811 0.00365645 0)
(0.114627 0.00383841 0)
(0.114433 0.00401178 0)
(0.114228 0.0041773 0)
(0.114011 0.0043356 0)
(0.113783 0.00448722 0)
(0.113541 0.00463263 0)
(0.113286 0.00477222 0)
(0.113016 0.00490628 0)
(0.11273 0.00503505 0)
(0.112429 0.00515868 0)
(0.112112 0.00527726 0)
(0.111777 0.00539081 0)
(0.111425 0.0054993 0)
(0.111055 0.00560264 0)
(0.110666 0.00570068 0)
(0.110257 0.00579324 0)
(0.109829 0.00588009 0)
(0.109381 0.00596096 0)
(0.108913 0.00603555 0)
(0.108424 0.00610356 0)
(0.107915 0.00616463 0)
(0.107385 0.00621842 0)
(0.106834 0.00626458 0)
(0.106262 0.00630276 0)
(0.10567 0.0063326 0)
(0.105057 0.00635378 0)
(0.104425 0.00636598 0)
(0.103774 0.00636893 0)
(0.103103 0.00636237 0)
(0.102415 0.0063461 0)
(0.101709 0.00631996 0)
(0.100988 0.00628382 0)
(0.100251 0.00623764 0)
(0.0995001 0.0061814 0)
(0.0987365 0.00611515 0)
(0.0979616 0.00603902 0)
(0.0971768 0.00595319 0)
(0.0963837 0.00585788 0)
(0.0955838 0.0057534 0)
(0.0947788 0.00564011 0)
(0.0939706 0.0055184 0)
(0.0931607 0.00538875 0)
(0.0923511 0.00525165 0)
(0.0915435 0.00510765 0)
(0.0907398 0.00495732 0)
(0.0899418 0.00480127 0)
(0.0891511 0.00464014 0)
(0.0883696 0.00447456 0)
(0.0875989 0.00430518 0)
(0.0868406 0.00413266 0)
(0.0860963 0.00395764 0)
(0.0853674 0.00378077 0)
(0.0846553 0.00360267 0)
(0.0839612 0.00342395 0)
(0.0832863 0.00324517 0)
(0.0826316 0.0030669 0)
(0.081998 0.00288966 0)
(0.0813864 0.00271393 0)
(0.0807973 0.00254016 0)
(0.0802314 0.00236878 0)
(0.079689 0.00220015 0)
(0.0791705 0.00203464 0)
(0.0786761 0.00187253 0)
(0.0782059 0.00171411 0)
(0.0777598 0.00155962 0)
(0.0773378 0.00140924 0)
(0.0769396 0.00126317 0)
(0.0765649 0.00112154 0)
(0.0762134 0.00098446 0)
(0.0758846 0.000852032 0)
(0.075578 0.000724318 0)
(0.075293 0.000601362 0)
(0.0750291 0.000483188 0)
(0.0747855 0.000369803 0)
(0.0745616 0.000261196 0)
(0.0743566 0.000157343 0)
(0.0741698 5.82057e-05 0)
(0.0740005 -3.62672e-05 0)
(0.0738478 -0.000126136 0)
(0.073711 -0.00021147 0)
(0.0735893 -0.000292349 0)
(0.0734818 -0.000368859 0)
(0.0733879 -0.000441092 0)
(0.0733067 -0.000509146 0)
(0.0732375 -0.000573126 0)
(0.0731796 -0.000633137 0)
(0.0731321 -0.000689295 0)
(0.0730945 -0.000741708 0)
(0.073066 -0.000790508 0)
(0.073046 -0.000835792 0)
(0.0730338 -0.000877719 0)
(0.0730288 -0.000916358 0)
(0.0730305 -0.000951922 0)
(0.0730382 -0.000984407 0)
(0.0730515 -0.00101414 0)
(0.0730697 -0.00104095 0)
(0.0730927 -0.00106541 0)
(0.0731195 -0.00108702 0)
(0.0731504 -0.00110681 0)
(0.073184 -0.00112362 0)
(0.0732212 -0.00113942 0)
(0.0732601 -0.00115173 0)
(0.0733025 -0.00116438 0)
(0.0733452 -0.00117229 0)
(0.0733916 -0.00118285 0)
(0.0734369 -0.00118613 0)
(0.0734865 -0.00119611 0)
(0.0735335 -0.00119395 0)
(0.0735852 -0.00120547 0)
(0.0736337 -0.00119646 0)
(0.0736856 -0.00121139 0)
(0.0737382 -0.001197 0)
(0.0737835 -0.00121179 0)
(0.0738471 -0.00119412 0)
(0.073873 -0.00120891 0)
(0.0739655 -0.00119179 0)
(0.110619 0.000908636 0)
(0.110533 0.00124894 0)
(0.110465 0.0015668 0)
(0.110421 0.00186591 0)
(0.110391 0.00214733 0)
(0.110378 0.00241259 0)
(0.110378 0.00266327 0)
(0.110389 0.00290047 0)
(0.110409 0.00312563 0)
(0.110437 0.00333969 0)
(0.110469 0.00354384 0)
(0.110506 0.0037389 0)
(0.110544 0.00392584 0)
(0.110582 0.00410532 0)
(0.11062 0.00427809 0)
(0.110655 0.00444469 0)
(0.110686 0.00460566 0)
(0.110711 0.0047614 0)
(0.11073 0.00491227 0)
(0.110742 0.00505852 0)
(0.110744 0.00520037 0)
(0.110736 0.00533792 0)
(0.110717 0.00547123 0)
(0.110686 0.0056003 0)
(0.110642 0.00572506 0)
(0.110584 0.00584537 0)
(0.11051 0.00596106 0)
(0.11042 0.00607189 0)
(0.110314 0.00617759 0)
(0.11019 0.00627784 0)
(0.110047 0.00637228 0)
(0.109886 0.00646053 0)
(0.109704 0.00654219 0)
(0.109503 0.00661682 0)
(0.109281 0.00668399 0)
(0.109037 0.00674325 0)
(0.108772 0.00679417 0)
(0.108486 0.00683631 0)
(0.108178 0.00686925 0)
(0.107848 0.0068926 0)
(0.107497 0.006906 0)
(0.107124 0.00690912 0)
(0.106731 0.00690169 0)
(0.106316 0.00688346 0)
(0.105883 0.00685426 0)
(0.105429 0.00681397 0)
(0.104958 0.00676254 0)
(0.104469 0.00669998 0)
(0.103964 0.00662636 0)
(0.103444 0.00654185 0)
(0.102911 0.00644666 0)
(0.102364 0.00634106 0)
(0.101807 0.00622543 0)
(0.10124 0.00610016 0)
(0.100665 0.00596573 0)
(0.100084 0.00582268 0)
(0.0994974 0.00567156 0)
(0.0989081 0.005513 0)
(0.0983173 0.00534764 0)
(0.0977265 0.00517617 0)
(0.0971375 0.00499928 0)
(0.0965517 0.00481768 0)
(0.0959707 0.00463209 0)
(0.0953959 0.00444323 0)
(0.0948287 0.0042518 0)
(0.0942705 0.00405851 0)
(0.0937225 0.00386404 0)
(0.0931857 0.00366903 0)
(0.0926613 0.00347413 0)
(0.0921501 0.00327993 0)
(0.0916531 0.00308699 0)
(0.091171 0.00289585 0)
(0.0907043 0.002707 0)
(0.0902536 0.00252088 0)
(0.0898194 0.00233792 0)
(0.0894019 0.00215849 0)
(0.0890014 0.00198293 0)
(0.0886181 0.00181152 0)
(0.0882519 0.00164455 0)
(0.0879028 0.00148222 0)
(0.0875708 0.00132474 0)
(0.0872555 0.00117225 0)
(0.0869569 0.0010249 0)
(0.0866745 0.000882776 0)
(0.0864081 0.000745957 0)
(0.0861571 0.000614491 0)
(0.0859212 0.000488404 0)
(0.0856999 0.000367702 0)
(0.0854926 0.00025237 0)
(0.0852988 0.000142376 0)
(0.085118 3.76736e-05 0)
(0.0849496 -6.17991e-05 0)
(0.084793 -0.000156117 0)
(0.0846476 -0.000245365 0)
(0.0845128 -0.000329641 0)
(0.0843881 -0.000409049 0)
(0.0842729 -0.000483705 0)
(0.0841666 -0.000553726 0)
(0.0840687 -0.000619245 0)
(0.0839785 -0.000680386 0)
(0.0838957 -0.000737299 0)
(0.0838195 -0.000790107 0)
(0.0837497 -0.000838981 0)
(0.0836855 -0.00088403 0)
(0.0836268 -0.000925463 0)
(0.0835728 -0.000963342 0)