/*--------------------------------*- C++ -*----------------------------------*\
| =========                 |                                                 |
| \\      /  F ield         | OpenFOAM: The Open Source CFD Toolbox           |
|  \\    /   O peration     | Version:  4.1                                   |
|   \\  /    A nd           | Web:      www.OpenFOAM.org                      |
|    \\/     M anipulation  |                                                 |
\*---------------------------------------------------------------------------*/
FoamFile
{
    version     2.0;
    format      ascii;
    class       volVectorField;
    location    "22";
    object      U;
}
// * * * * * * * * * * * * * * * * * * * * * * * * * * * * * * * * * * * * * //

dimensions      [0 1 -1 0 0 0 0];

internalField   nonuniform List<vector> 
3264
(
(-0.00123366 0.0011498 0)
(-0.00463715 0.00135183 0)
(-0.00797039 0.00136905 0)
(-0.0107555 0.00123472 0)
(-0.0127339 0.000961089 0)
(-0.0136479 0.00053799 0)
(-0.0133112 2.49178e-05 0)
(-0.0117197 -0.000522121 0)
(-0.00896211 -0.00101755 0)
(-0.00530407 -0.00138685 0)
(-0.00109474 -0.00157572 0)
(0.00325646 -0.00157804 0)
(0.00739217 -0.00143233 0)
(0.0110575 -0.00120076 0)
(0.0141243 -0.000942939 0)
(0.0165704 -0.000700933 0)
(0.0184451 -0.000496732 0)
(0.0198349 -0.000336788 0)
(0.0208366 -0.000218262 0)
(0.0215414 -0.000134171 0)
(0.0220268 -7.66572e-05 0)
(0.0223543 -3.86312e-05 0)
(0.0225706 -1.437e-05 0)
(0.0227099 4.52276e-07 0)
(0.0227969 8.96721e-06 0)
(0.0228486 1.33735e-05 0)
(0.0228772 1.51791e-05 0)
(0.0228906 1.53981e-05 0)
(0.0228946 1.46992e-05 0)
(0.0228927 1.35147e-05 0)
(0.0228874 1.21173e-05 0)
(0.0228804 1.06736e-05 0)
(0.0228727 9.28062e-06 0)
(0.0228649 7.99088e-06 0)
(0.0228574 6.82854e-06 0)
(0.0228505 5.80055e-06 0)
(0.0228441 4.90374e-06 0)
(0.0228385 4.12934e-06 0)
(0.0228335 3.46588e-06 0)
(0.0228292 2.90098e-06 0)
(0.0228254 2.42237e-06 0)
(0.0228221 2.01853e-06 0)
(0.0228193 1.67892e-06 0)
(0.0228169 1.39414e-06 0)
(0.0228149 1.15592e-06 0)
(0.0228132 9.57089e-07 0)
(0.0228117 7.9144e-07 0)
(0.0228105 6.53673e-07 0)
(0.0228095 5.39274e-07 0)
(0.0228086 4.44415e-07 0)
(0.0228079 3.65862e-07 0)
(0.0228073 3.00895e-07 0)
(0.0228068 2.47225e-07 0)
(0.0228063 2.02939e-07 0)
(0.022806 1.66434e-07 0)
(0.0228057 1.36374e-07 0)
(0.0228055 1.11646e-07 0)
(0.0228053 9.13225e-08 0)
(0.0228051 7.46356e-08 0)
(0.022805 6.09467e-08 0)
(0.0228048 4.97272e-08 0)
(0.0228048 4.05395e-08 0)
(0.0228047 3.30222e-08 0)
(0.0228046 2.68768e-08 0)
(0.0228046 2.18571e-08 0)
(0.0228045 1.77603e-08 0)
(0.0228045 1.44194e-08 0)
(0.0228045 1.16973e-08 0)
(0.0228044 9.48101e-09 0)
(0.0228044 7.67814e-09 0)
(0.0228044 6.21274e-09 0)
(0.0228044 5.02263e-09 0)
(0.0228044 4.05687e-09 0)
(0.0228044 3.27383e-09 0)
(0.0228044 2.63944e-09 0)
(0.0228044 2.12594e-09 0)
(0.0228044 1.71066e-09 0)
(0.0228043 1.37512e-09 0)
(0.0228043 1.10424e-09 0)
(0.0228043 8.85753e-10 0)
(0.0228043 7.09686e-10 0)
(0.0228043 5.67949e-10 0)
(0.0228043 4.53971e-10 0)
(0.0228043 3.6241e-10 0)
(0.0228043 2.88925e-10 0)
(0.0228043 2.30003e-10 0)
(0.0228043 1.82811e-10 0)
(0.0228043 1.45068e-10 0)
(0.0228043 1.14929e-10 0)
(0.0228043 9.08927e-11 0)
(0.0228043 7.17456e-11 0)
(0.0228043 5.65076e-11 0)
(0.0228043 4.43999e-11 0)
(0.0228043 3.4802e-11 0)
(0.0228043 2.72097e-11 0)
(0.0228043 2.12147e-11 0)
(0.0228043 1.6482e-11 0)
(0.0228043 1.27484e-11 0)
(0.0228043 9.81533e-12 0)
(0.0228043 7.52604e-12 0)
(0.0228043 5.75065e-12 0)
(0.0228043 4.37949e-12 0)
(0.0228043 3.3141e-12 0)
(0.0228043 2.48093e-12 0)
(0.0228043 1.82951e-12 0)
(0.0228043 1.32677e-12 0)
(0.0228043 9.50983e-13 0)
(0.0228043 6.75892e-13 0)
(0.0228043 4.71411e-13 0)
(0.0228043 3.15785e-13 0)
(0.0228043 1.91917e-13 0)
(0.0228043 9.78147e-14 0)
(0.0228043 3.32212e-14 0)
(0.0228043 -6.9036e-15 0)
(0.0228043 -2.88233e-14 0)
(0.0228043 -4.39939e-14 0)
(0.0228043 -5.69919e-14 0)
(0.0228043 -6.71124e-14 0)
(0.0228043 -7.57438e-14 0)
(0.0228043 -7.78481e-14 0)
(0.0228043 -7.25455e-14 0)
(0.0228043 -6.33248e-14 0)
(0.0228043 -5.48032e-14 0)
(0.0228043 -4.70837e-14 0)
(0.0228043 -3.86623e-14 0)
(0.0228043 -3.15602e-14 0)
(0.0228043 -2.30794e-14 0)
(0.0228043 -1.66835e-14 0)
(0.0228043 -1.64802e-14 0)
(0.0228043 -1.98113e-14 0)
(0.0228043 -2.72834e-14 0)
(0.0228043 -3.13975e-14 0)
(0.0228043 -2.83304e-14 0)
(0.0228043 -1.85348e-14 0)
(0.0228043 -4.79489e-15 0)
(0.0228043 4.73963e-15 0)
(0.0228043 1.00783e-14 0)
(0.0228043 7.61008e-15 0)
(0.0228043 4.46704e-16 0)
(0.0228043 -7.25708e-15 0)
(0.0228043 -1.3492e-14 0)
(0.0228043 -1.32843e-14 0)
(0.0228043 -9.36373e-15 0)
(0.0228043 -1.96212e-15 0)
(0.0228043 5.37508e-15 0)
(0.0228043 9.46991e-15 0)
(0.0228043 1.04249e-14 0)
(0.0228043 7.98469e-15 0)
(0.0228043 1.68881e-15 0)
(0.0228043 -5.64165e-15 0)
(0.0228043 -1.24425e-14 0)
(0.0228043 -1.4966e-14 0)
(0.0228043 -1.24692e-14 0)
(0.0228043 -5.48258e-15 0)
(0.0228043 3.72325e-15 0)
(0.0228043 1.17448e-14 0)
(0.0228043 1.66701e-14 0)
(0.0228043 1.54552e-14 0)
(0.0228043 9.11595e-15 0)
(0.0228043 3.70822e-16 0)
(0.0228043 -8.91199e-15 0)
(0.0228043 -1.43499e-14 0)
(0.0228043 -1.31985e-14 0)
(0.0228043 -7.19644e-15 0)
(0.0228043 1.86986e-15 0)
(0.0228043 9.24573e-15 0)
(0.0228043 1.49566e-14 0)
(0.0228043 1.75481e-14 0)
(0.0228043 1.70936e-14 0)
(0.0228043 1.49513e-14 0)
(0.0228043 1.14207e-14 0)
(0.0228043 9.77932e-15 0)
(0.0228043 1.13058e-14 0)
(0.0228043 1.36264e-14 0)
(0.0228043 1.79653e-14 0)
(0.0228043 2.18787e-14 0)
(0.0228043 2.64816e-14 0)
(0.0228043 3.31143e-14 0)
(0.0228043 4.06322e-14 0)
(0.0228043 5.09338e-14 0)
(0.0228043 6.37374e-14 0)
(0.0228043 8.11004e-14 0)
(0.0228043 1.04105e-13 0)
(0.0228043 1.33131e-13 0)
(0.0228043 1.69509e-13 0)
(0.0228043 2.14556e-13 0)
(0.0228043 2.71832e-13 0)
(0.0228043 3.44124e-13 0)
(0.0228043 4.36816e-13 0)
(0.0228043 5.57375e-13 0)
(0.0228043 7.15354e-13 0)
(0.0228043 9.28818e-13 0)
(0.0228043 1.19487e-12 0)
(0.0228043 1.5101e-12 0)
(0.0228043 2.01031e-12 0)
(0.0228043 1.83421e-12 0)
(0.0228043 1.81113e-12 0)
(0.0228043 3.1594e-12 0)
(0.0228043 -1.99869e-11 0)
(0.0228043 -1.56872e-11 0)
(-0.00157725 0.00434978 0)
(-0.00630714 0.00523851 0)
(-0.0103105 0.00458793 0)
(-0.0131855 0.00346649 0)
(-0.0146481 0.00193409 0)
(-0.014589 6.10875e-06 0)
(-0.0128871 -0.00213127 0)
(-0.0096542 -0.0042851 0)
(-0.00502328 -0.00619676 0)
(0.000675925 -0.00761161 0)
(0.00703305 -0.00833648 0)
(0.0135444 -0.00832551 0)
(0.0197505 -0.00769831 0)
(0.0253137 -0.00667696 0)
(0.0300584 -0.00549404 0)
(0.0339481 -0.00433015 0)
(0.0370393 -0.00329488 0)
(0.0394375 -0.00243608 0)
(0.0412639 -0.00175907 0)
(0.0426357 -0.0012455 0)
(0.043656 -0.000867162 0)
(0.0444098 -0.000594677 0)
(0.0449642 -0.000401845 0)
(0.045371 -0.000267269 0)
(0.0456691 -0.00017443 0)
(0.0458874 -0.000111038 0)
(0.0460471 -6.81917e-05 0)
(0.0461639 -3.95554e-05 0)
(0.0462492 -2.06788e-05 0)
(0.0463114 -8.46275e-06 0)
(0.0463566 -7.6277e-07 0)
(0.0463894 3.89844e-06 0)
(0.046413 6.53481e-06 0)
(0.0464298 7.8399e-06 0)
(0.0464417 8.28636e-06 0)
(0.0464501 8.19475e-06 0)
(0.0464558 7.78103e-06 0)
(0.0464596 7.18936e-06 0)
(0.046462 6.51461e-06 0)
(0.0464635 5.81798e-06 0)
(0.0464643 5.13772e-06 0)
(0.0464646 4.49654e-06 0)
(0.0464646 3.90673e-06 0)
(0.0464644 3.37372e-06 0)
(0.0464641 2.89847e-06 0)
(0.0464637 2.47917e-06 0)
(0.0464633 2.11237e-06 0)
(0.0464629 1.79373e-06 0)
(0.0464625 1.51855e-06 0)
(0.0464621 1.28209e-06 0)
(0.0464618 1.07979e-06 0)
(0.0464615 9.07359e-07 0)
(0.0464612 7.60888e-07 0)
(0.0464609 6.36842e-07 0)
(0.0464607 5.32072e-07 0)
(0.0464605 4.43801e-07 0)
(0.0464604 3.69598e-07 0)
(0.0464602 3.0735e-07 0)
(0.0464601 2.55232e-07 0)
(0.04646 2.11673e-07 0)
(0.0464599 1.75328e-07 0)
(0.0464598 1.4505e-07 0)
(0.0464598 1.19863e-07 0)
(0.0464597 9.89405e-08 0)
(0.0464597 8.15836e-08 0)
(0.0464596 6.72027e-08 0)
(0.0464596 5.53018e-08 0)
(0.0464596 4.54646e-08 0)
(0.0464595 3.73422e-08 0)
(0.0464595 3.06428e-08 0)
(0.0464595 2.51228e-08 0)
(0.0464595 2.05792e-08 0)
(0.0464595 1.68427e-08 0)
(0.0464595 1.37729e-08 0)
(0.0464595 1.12532e-08 0)
(0.0464595 9.18683e-09 0)
(0.0464595 7.49373e-09 0)
(0.0464595 6.10769e-09 0)
(0.0464595 4.97395e-09 0)
(0.0464595 4.04734e-09 0)
(0.0464595 3.29063e-09 0)
(0.0464595 2.67321e-09 0)
(0.0464594 2.16989e-09 0)
(0.0464594 1.75991e-09 0)
(0.0464594 1.4262e-09 0)
(0.0464594 1.15476e-09 0)
(0.0464594 9.34132e-10 0)
(0.0464594 7.54987e-10 0)
(0.0464594 6.0968e-10 0)
(0.0464594 4.91934e-10 0)
(0.0464594 3.96587e-10 0)
(0.0464594 3.19408e-10 0)
(0.0464594 2.56971e-10 0)
(0.0464594 2.06509e-10 0)
(0.0464594 1.65775e-10 0)
(0.0464594 1.32932e-10 0)
(0.0464594 1.06462e-10 0)
(0.0464594 8.51342e-11 0)
(0.0464594 6.7973e-11 0)
(0.0464594 5.42046e-11 0)
(0.0464594 4.3199e-11 0)
(0.0464594 3.44217e-11 0)
(0.0464594 2.74106e-11 0)
(0.0464594 2.17865e-11 0)
(0.0464594 1.72619e-11 0)
(0.0464594 1.36315e-11 0)
(0.0464594 1.07453e-11 0)
(0.0464594 8.47202e-12 0)
(0.0464594 6.68778e-12 0)
(0.0464594 5.27366e-12 0)
(0.0464594 4.13181e-12 0)
(0.0464594 3.20271e-12 0)
(0.0464594 2.45705e-12 0)
(0.0464594 1.87921e-12 0)
(0.0464594 1.4451e-12 0)
(0.0464594 1.11992e-12 0)
(0.0464594 8.64873e-13 0)
(0.0464594 6.5264e-13 0)
(0.0464594 4.71462e-13 0)
(0.0464594 3.20781e-13 0)
(0.0464594 2.05303e-13 0)
(0.0464594 1.23563e-13 0)
(0.0464594 6.92819e-14 0)
(0.0464594 3.24218e-14 0)
(0.0464594 6.90806e-15 0)
(0.0464594 -5.88561e-15 0)
(0.0464594 -7.61793e-15 0)
(0.0464594 8.73e-16 0)
(0.0464594 1.09902e-14 0)
(0.0464594 1.86216e-14 0)
(0.0464594 2.22178e-14 0)
(0.0464594 2.09216e-14 0)
(0.0464594 2.09425e-14 0)
(0.0464594 2.5865e-14 0)
(0.0464594 3.82014e-14 0)
(0.0464594 5.47246e-14 0)
(0.0464594 6.49193e-14 0)
(0.0464594 6.07636e-14 0)
(0.0464594 3.60227e-14 0)
(0.0464594 -4.05415e-15 0)
(0.0464594 -4.7028e-14 0)
(0.0464594 -8.30841e-14 0)
(0.0464594 -1.01246e-13 0)
(0.0464594 -9.8062e-14 0)
(0.0464594 -7.51781e-14 0)
(0.0464594 -3.92989e-14 0)
(0.0464594 -7.84244e-16 0)
(0.0464594 3.05216e-14 0)
(0.0464594 4.82161e-14 0)
(0.0464594 4.96261e-14 0)
(0.0464594 3.72867e-14 0)
(0.0464594 1.90264e-14 0)
(0.0464594 6.45754e-17 0)
(0.0464594 -1.17793e-14 0)
(0.0464594 -1.63566e-14 0)
(0.0464594 -1.51085e-14 0)
(0.0464594 -1.14453e-14 0)
(0.0464594 -7.34157e-15 0)
(0.0464594 -8.85021e-15 0)
(0.0464594 -1.33598e-14 0)
(0.0464594 -2.0607e-14 0)
(0.0464594 -2.55768e-14 0)
(0.0464594 -2.30112e-14 0)
(0.0464594 -1.42485e-14 0)
(0.0464594 2.34433e-15 0)
(0.0464594 2.09446e-14 0)
(0.0464594 3.91739e-14 0)
(0.0464594 5.3181e-14 0)
(0.0464594 5.81221e-14 0)
(0.0464594 5.56624e-14 0)
(0.0464594 4.79357e-14 0)
(0.0464594 3.96668e-14 0)
(0.0464594 3.93337e-14 0)
(0.0464594 4.72154e-14 0)
(0.0464594 6.7359e-14 0)
(0.0464594 9.96911e-14 0)
(0.0464594 1.39891e-13 0)
(0.0464594 1.82348e-13 0)
(0.0464594 2.25576e-13 0)
(0.0464594 2.68433e-13 0)
(0.0464594 3.14953e-13 0)
(0.0464594 3.71721e-13 0)
(0.0464594 4.47425e-13 0)
(0.0464594 5.52824e-13 0)
(0.0464594 6.95845e-13 0)
(0.0464594 8.8429e-13 0)
(0.0464594 1.12307e-12 0)
(0.0464594 1.41585e-12 0)
(0.0464594 1.77852e-12 0)
(0.0464594 2.22998e-12 0)
(0.0464594 2.81198e-12 0)
(0.0464594 3.58342e-12 0)
(0.0464594 4.60156e-12 0)
(0.0464594 5.98543e-12 0)
(0.0464594 7.9776e-12 0)
(0.0464594 9.73854e-12 0)
(0.0464594 1.41553e-11 0)
(0.0464594 1.60428e-11 0)
(0.0464594 1.36644e-11 0)
(0.0464594 2.10952e-11 0)
(-0.00161674 0.0081207 0)
(-0.00648773 0.00951611 0)
(-0.0104305 0.00790817 0)
(-0.013014 0.00548588 0)
(-0.0139569 0.00243523 0)
(-0.0133063 -0.00116975 0)
(-0.0110444 -0.00504009 0)
(-0.0073601 -0.00887793 0)
(-0.00238186 -0.0122965 0)
(0.00360827 -0.0148633 0)
(0.0102646 -0.0162106 0)
(0.0171145 -0.0162014 0)
(0.023677 -0.0150249 0)
(0.0295738 -0.0130997 0)
(0.0346091 -0.0108767 0)
(0.0387543 -0.00869653 0)
(0.0420849 -0.00675544 0)
(0.0447196 -0.00513307 0)
(0.0467827 -0.00383535 0)
(0.0483867 -0.00282964 0)
(0.0496273 -0.00206809 0)
(0.050583 -0.00150113 0)
(0.0513169 -0.00108416 0)
(0.0518793 -0.000780126 0)
(0.0523095 -0.000559702 0)
(0.0526383 -0.000400481 0)
(0.0528893 -0.000285724 0)
(0.0530809 -0.000203121 0)
(0.053227 -0.000143716 0)
(0.0533385 -0.000101029 0)
(0.0534234 -7.03925e-05 0)
(0.0534881 -4.84469e-05 0)
(0.0535374 -3.27731e-05 0)
(0.0535748 -2.16277e-05 0)
(0.0536032 -1.37524e-05 0)
(0.0536247 -8.23667e-06 0)
(0.053641 -4.42097e-06 0)
(0.0536532 -1.82651e-06 0)
(0.0536624 -1.05493e-07 0)
(0.0536693 9.94813e-07 0)
(0.0536744 1.65796e-06 0)
(0.0536781 2.01702e-06 0)
(0.0536809 2.16816e-06 0)
(0.0536829 2.18059e-06 0)
(0.0536843 2.10376e-06 0)
(0.0536854 1.9727e-06 0)
(0.0536861 1.81189e-06 0)
(0.0536865 1.63819e-06 0)
(0.0536868 1.46289e-06 0)
(0.053687 1.29333e-06 0)
(0.0536871 1.134e-06 0)
(0.0536872 9.87403e-07 0)
(0.0536872 8.54659e-07 0)
(0.0536871 7.35963e-07 0)
(0.0536871 6.30905e-07 0)
(0.0536871 5.38696e-07 0)
(0.053687 4.58333e-07 0)
(0.053687 3.88717e-07 0)
(0.0536869 3.28725e-07 0)
(0.0536869 2.77261e-07 0)
(0.0536868 2.33292e-07 0)
(0.0536868 1.9586e-07 0)
(0.0536867 1.64097e-07 0)
(0.0536867 1.37223e-07 0)
(0.0536867 1.14545e-07 0)
(0.0536866 9.54553e-08 0)
(0.0536866 7.94219e-08 0)
(0.0536866 6.59833e-08 0)
(0.0536866 5.47414e-08 0)
(0.0536866 4.53539e-08 0)
(0.0536866 3.75283e-08 0)
(0.0536866 3.10148e-08 0)
(0.0536865 2.56017e-08 0)
(0.0536865 2.11094e-08 0)
(0.0536865 1.73864e-08 0)
(0.0536865 1.43049e-08 0)
(0.0536865 1.17574e-08 0)
(0.0536865 9.654e-09 0)
(0.0536865 7.9191e-09 0)
(0.0536865 6.48973e-09 0)
(0.0536865 5.31334e-09 0)
(0.0536865 4.34621e-09 0)
(0.0536865 3.55192e-09 0)
(0.0536865 2.90022e-09 0)
(0.0536865 2.36596e-09 0)
(0.0536865 1.92835e-09 0)
(0.0536865 1.57026e-09 0)
(0.0536865 1.27754e-09 0)
(0.0536865 1.03852e-09 0)
(0.0536865 8.43537e-10 0)
(0.0536865 6.8458e-10 0)
(0.0536865 5.55071e-10 0)
(0.0536865 4.49627e-10 0)
(0.0536865 3.63851e-10 0)
(0.0536865 2.94147e-10 0)
(0.0536865 2.37549e-10 0)
(0.0536865 1.91621e-10 0)
(0.0536865 1.5438e-10 0)
(0.0536865 1.24227e-10 0)
(0.0536865 9.98748e-11 0)
(0.0536865 8.02598e-11 0)
(0.0536865 6.44759e-11 0)
(0.0536865 5.17637e-11 0)
(0.0536865 4.1501e-11 0)
(0.0536865 3.32041e-11 0)
(0.0536865 2.65157e-11 0)
(0.0536865 2.11529e-11 0)
(0.0536865 1.68772e-11 0)
(0.0536865 1.34722e-11 0)
(0.0536865 1.07389e-11 0)
(0.0536865 8.52703e-12 0)
(0.0536865 6.72712e-12 0)
(0.0536865 5.27822e-12 0)
(0.0536865 4.13673e-12 0)
(0.0536865 3.25282e-12 0)
(0.0536865 2.57286e-12 0)
(0.0536865 2.03149e-12 0)
(0.0536865 1.58288e-12 0)
(0.0536865 1.20358e-12 0)
(0.0536865 8.85141e-13 0)
(0.0536865 6.25335e-13 0)
(0.0536865 4.24969e-13 0)
(0.0536865 2.76464e-13 0)
(0.0536865 1.70098e-13 0)
(0.0536865 9.61994e-14 0)
(0.0536865 4.87875e-14 0)
(0.0536865 2.72198e-14 0)
(0.0536865 2.84323e-14 0)
(0.0536865 4.62398e-14 0)
(0.0536865 6.94434e-14 0)
(0.0536865 8.78876e-14 0)
(0.0536865 9.89157e-14 0)
(0.0536865 1.0373e-13 0)
(0.0536865 1.10551e-13 0)
(0.0536865 1.22748e-13 0)
(0.0536865 1.38028e-13 0)
(0.0536865 1.46607e-13 0)
(0.0536865 1.34497e-13 0)
(0.0536865 9.36484e-14 0)
(0.0536865 2.345e-14 0)
(0.0536865 -6.39681e-14 0)
(0.0536865 -1.47479e-13 0)
(0.0536865 -2.03772e-13 0)
(0.0536865 -2.18462e-13 0)
(0.0536865 -1.87757e-13 0)
(0.0536865 -1.21859e-13 0)
(0.0536865 -4.1023e-14 0)
(0.0536865 3.28593e-14 0)
(0.0536865 8.26103e-14 0)
(0.0536865 1.01607e-13 0)
(0.0536865 9.23523e-14 0)
(0.0536865 6.35355e-14 0)
(0.0536865 2.62636e-14 0)
(0.0536865 -9.27427e-15 0)
(0.0536865 -3.46057e-14 0)
(0.0536865 -4.67451e-14 0)
(0.0536865 -4.95778e-14 0)
(0.0536865 -4.84335e-14 0)
(0.0536865 -4.29462e-14 0)
(0.0536865 -3.58002e-14 0)
(0.0536865 -2.71659e-14 0)
(0.0536865 -1.66656e-14 0)
(0.0536865 -4.44964e-15 0)
(0.0536865 1.25817e-14 0)
(0.0536865 3.22766e-14 0)
(0.0536865 5.16603e-14 0)
(0.0536865 6.4874e-14 0)
(0.0536865 6.71841e-14 0)
(0.0536865 6.06626e-14 0)
(0.0536865 4.83689e-14 0)
(0.0536865 3.71143e-14 0)
(0.0536865 3.32337e-14 0)
(0.0536865 4.45769e-14 0)
(0.0536865 7.91237e-14 0)
(0.0536865 1.34753e-13 0)
(0.0536865 2.08094e-13 0)
(0.0536865 2.87892e-13 0)
(0.0536865 3.65966e-13 0)
(0.0536865 4.3626e-13 0)
(0.0536865 4.99577e-13 0)
(0.0536865 5.67561e-13 0)
(0.0536865 6.52704e-13 0)
(0.0536865 7.74674e-13 0)
(0.0536865 9.482e-13 0)
(0.0536865 1.18627e-12 0)
(0.0536865 1.49787e-12 0)
(0.0536865 1.88608e-12 0)
(0.0536865 2.36003e-12 0)
(0.0536865 2.93753e-12 0)
(0.0536865 3.65437e-12 0)
(0.0536865 4.57421e-12 0)
(0.0536865 5.78863e-12 0)
(0.0536865 7.40772e-12 0)
(0.0536865 9.69523e-12 0)
(0.0536865 1.27321e-11 0)
(0.0536865 1.68087e-11 0)
(0.0536865 2.47945e-11 0)
(0.0536865 2.74349e-11 0)
(0.0536865 5.84019e-11 0)
(0.0536865 7.07009e-11 0)
(-0.00153255 0.011475 0)
(-0.00627164 0.0133515 0)
(-0.00959051 0.0106567 0)
(-0.0111171 0.0068689 0)
(-0.0108144 0.00233726 0)
(-0.00906837 -0.00273285 0)
(-0.00599365 -0.00803338 0)
(-0.0018736 -0.0132399 0)
(0.00316072 -0.0179452 0)
(0.0088959 -0.0216194 0)
(0.0151125 -0.0237201 0)
(0.0214857 -0.023911 0)
(0.0276215 -0.0223079 0)
(0.0331428 -0.0194768 0)
(0.0378162 -0.0161437 0)
(0.0415961 -0.0128861 0)
(0.0445742 -0.0100227 0)
(0.0468968 -0.00766101 0)
(0.0487074 -0.00578809 0)
(0.0501238 -0.00433904 0)
(0.0512355 -0.00323574 0)
(0.0521095 -0.00240456 0)
(0.0527965 -0.00178283 0)
(0.0533359 -0.00131996 0)
(0.0537586 -0.000976362 0)
(0.054089 -0.000721743 0)
(0.0543468 -0.000533203 0)
(0.0545475 -0.000393614 0)
(0.0547036 -0.000290245 0)
(0.0548248 -0.000213669 0)
(0.0549187 -0.000156924 0)
(0.0549914 -0.000114872 0)
(0.0550476 -8.37176e-05 0)
(0.055091 -6.06565e-05 0)
(0.0551245 -4.36122e-05 0)
(0.0551503 -3.10442e-05 0)
(0.05517 -2.18076e-05 0)
(0.0551852 -1.50496e-05 0)
(0.0551968 -1.01343e-05 0)
(0.0552057 -6.58657e-06 0)
(0.0552124 -4.05139e-06 0)
(0.0552175 -2.26326e-06 0)
(0.0552214 -1.02378e-06 0)
(0.0552243 -1.84817e-07 0)
(0.0552264 3.64004e-07 0)
(0.055228 7.04727e-07 0)
(0.0552292 8.98101e-07 0)
(0.0552301 9.88897e-07 0)
(0.0552307 1.00991e-06 0)
(0.0552311 9.84976e-07 0)
(0.0552315 9.31249e-07 0)
(0.0552317 8.60923e-07 0)
(0.0552318 7.82518e-07 0)
(0.0552319 7.0186e-07 0)
(0.055232 6.2281e-07 0)
(0.055232 5.4781e-07 0)
(0.055232 4.78287e-07 0)
(0.055232 4.14963e-07 0)
(0.055232 3.58067e-07 0)
(0.055232 3.07506e-07 0)
(0.0552319 2.6298e-07 0)
(0.0552319 2.24063e-07 0)
(0.0552319 1.90267e-07 0)
(0.0552319 1.61081e-07 0)
(0.0552319 1.35997e-07 0)
(0.0552318 1.14531e-07 0)
(0.0552318 9.62309e-08 0)
(0.0552318 8.06822e-08 0)
(0.0552318 6.75118e-08 0)
(0.0552318 5.6387e-08 0)
(0.0552318 4.70138e-08 0)
(0.0552318 3.9135e-08 0)
(0.0552318 3.25265e-08 0)
(0.0552318 2.69947e-08 0)
(0.0552318 2.23728e-08 0)
(0.0552318 1.85178e-08 0)
(0.0552318 1.53078e-08 0)
(0.0552318 1.2639e-08 0)
(0.0552318 1.04233e-08 0)
(0.0552318 8.58632e-09 0)
(0.0552318 7.06545e-09 0)
(0.0552318 5.80787e-09 0)
(0.0552318 4.76926e-09 0)
(0.0552318 3.91247e-09 0)
(0.0552318 3.20643e-09 0)
(0.0552317 2.62525e-09 0)
(0.0552317 2.14736e-09 0)
(0.0552317 1.75485e-09 0)
(0.0552317 1.43282e-09 0)
(0.0552317 1.16886e-09 0)
(0.0552317 9.52674e-10 0)
(0.0552317 7.75754e-10 0)
(0.0552317 6.31093e-10 0)
(0.0552317 5.12923e-10 0)
(0.0552317 4.1648e-10 0)
(0.0552317 3.37834e-10 0)
(0.0552317 2.73751e-10 0)
(0.0552317 2.21584e-10 0)
(0.0552317 1.79183e-10 0)
(0.0552317 1.44782e-10 0)
(0.0552317 1.16915e-10 0)
(0.0552317 9.43576e-11 0)
(0.0552317 7.60891e-11 0)
(0.0552317 6.12826e-11 0)
(0.0552317 4.9287e-11 0)
(0.0552317 3.959e-11 0)
(0.0552317 3.17823e-11 0)
(0.0552317 2.55123e-11 0)
(0.0552317 2.04713e-11 0)
(0.0552317 1.6402e-11 0)
(0.0552317 1.31033e-11 0)
(0.0552317 1.04337e-11 0)
(0.0552317 8.28874e-12 0)
(0.0552317 6.58419e-12 0)
(0.0552317 5.24063e-12 0)
(0.0552317 4.17557e-12 0)
(0.0552317 3.3172e-12 0)
(0.0552317 2.60803e-12 0)
(0.0552317 2.01443e-12 0)
(0.0552317 1.51992e-12 0)
(0.0552317 1.11949e-12 0)
(0.0552317 8.02989e-13 0)
(0.0552317 5.59143e-13 0)
(0.0552317 3.75034e-13 0)
(0.0552317 2.40204e-13 0)
(0.0552317 1.50769e-13 0)
(0.0552317 1.02573e-13 0)
(0.0552317 8.87084e-14 0)
(0.0552317 9.87657e-14 0)
(0.0552317 1.18472e-13 0)
(0.0552317 1.37024e-13 0)
(0.0552317 1.48465e-13 0)
(0.0552317 1.56381e-13 0)
(0.0552317 1.65678e-13 0)
(0.0552317 1.81255e-13 0)
(0.0552317 1.99212e-13 0)
(0.0552317 2.05678e-13 0)
(0.0552317 1.8552e-13 0)
(0.0552317 1.28646e-13 0)
(0.0552317 3.62317e-14 0)
(0.0552317 -7.55401e-14 0)
(0.0552317 -1.7965e-13 0)
(0.0552317 -2.49239e-13 0)
(0.0552317 -2.66657e-13 0)
(0.0552317 -2.30124e-13 0)
(0.0552317 -1.53667e-13 0)
(0.0552317 -6.11352e-14 0)
(0.0552317 2.16699e-14 0)
(0.0552317 7.72384e-14 0)
(0.0552317 9.66601e-14 0)
(0.0552317 8.36221e-14 0)
(0.0552317 5.00006e-14 0)
(0.0552317 1.13198e-14 0)
(0.0552317 -2.31844e-14 0)
(0.0552317 -4.69932e-14 0)
(0.0552317 -5.78622e-14 0)
(0.0552317 -6.04186e-14 0)
(0.0552317 -5.58777e-14 0)
(0.0552317 -4.79692e-14 0)
(0.0552317 -3.65868e-14 0)
(0.0552317 -2.05451e-14 0)
(0.0552317 -1.83028e-15 0)
(0.0552317 1.87044e-14 0)
(0.0552317 3.84001e-14 0)
(0.0552317 5.43974e-14 0)
(0.0552317 6.42101e-14 0)
(0.0552317 6.28665e-14 0)
(0.0552317 5.30204e-14 0)
(0.0552317 3.71505e-14 0)
(0.0552317 2.29584e-14 0)
(0.0552317 2.04026e-14 0)
(0.0552317 3.59115e-14 0)
(0.0552317 7.5511e-14 0)
(0.0552317 1.41032e-13 0)
(0.0552317 2.27618e-13 0)
(0.0552317 3.26035e-13 0)
(0.0552317 4.25813e-13 0)
(0.0552317 5.18319e-13 0)
(0.0552317 6.02514e-13 0)
(0.0552317 6.83542e-13 0)
(0.0552317 7.73744e-13 0)
(0.0552317 8.92447e-13 0)
(0.0552317 1.05817e-12 0)
(0.0552317 1.29079e-12 0)
(0.0552317 1.60313e-12 0)
(0.0552317 2.00151e-12 0)
(0.0552317 2.49353e-12 0)
(0.0552317 3.09151e-12 0)
(0.0552317 3.82302e-12 0)
(0.0552317 4.73545e-12 0)
(0.0552317 5.90251e-12 0)
(0.0552317 7.42992e-12 0)
(0.0552317 9.48787e-12 0)
(0.0552317 1.22564e-11 0)
(0.0552317 1.60101e-11 0)
(0.0552317 2.1491e-11 0)
(0.0552317 2.87382e-11 0)
(0.0552317 3.73278e-11 0)
(0.0552317 6.66585e-11 0)
(0.0552317 7.39177e-11 0)
(-0.000955853 0.0150053 0)
(-0.00428973 0.0171065 0)
(-0.00574319 0.0129713 0)
(-0.00524414 0.00745533 0)
(-0.00314335 0.00152473 0)
(2.23602e-05 -0.00468242 0)
(0.00404055 -0.0109307 0)
(0.00858929 -0.0169713 0)
(0.0135104 -0.0224691 0)
(0.0186325 -0.026918 0)
(0.0238328 -0.0297075 0)
(0.028976 -0.0303149 0)
(0.0338858 -0.0286368 0)
(0.0383324 -0.0251859 0)
(0.0421086 -0.0208822 0)
(0.0451288 -0.01659 0)
(0.0474484 -0.0128256 0)
(0.0492021 -0.00976367 0)
(0.0505347 -0.00737536 0)
(0.051563 -0.00555225 0)
(0.0523697 -0.00417446 0)
(0.0530102 -0.00313748 0)
(0.053522 -0.00235812 0)
(0.0539316 -0.00177255 0)
(0.0542591 -0.00133253 0)
(0.0545203 -0.00100179 0)
(0.0547279 -0.000753075 0)
(0.0548924 -0.000565952 0)
(0.0550223 -0.000425091 0)
(0.0551247 -0.000319 0)
(0.0552051 -0.000239065 0)
(0.0552681 -0.000178824 0)
(0.0553173 -0.000133429 0)
(0.0553557 -9.92342e-05 0)
(0.0553856 -7.34991e-05 0)
(0.0554088 -5.41567e-05 0)
(0.0554268 -3.96468e-05 0)
(0.0554406 -2.879e-05 0)
(0.0554513 -2.06935e-05 0)
(0.0554596 -1.46807e-05 0)
(0.0554659 -1.02386e-05 0)
(0.0554707 -6.97807e-06 0)
(0.0554744 -4.60397e-06 0)
(0.0554771 -2.89265e-06 0)
(0.0554793 -1.67475e-06 0)
(0.0554808 -8.22269e-07 0)
(0.055482 -2.38674e-07 0)
(0.0554829 1.48647e-07 0)
(0.0554835 3.94106e-07 0)
(0.055484 5.38304e-07 0)
(0.0554843 6.11377e-07 0)
(0.0554846 6.35548e-07 0)
(0.0554848 6.2708e-07 0)
(0.0554849 5.97753e-07 0)
(0.0554849 5.56001e-07 0)
(0.055485 5.07769e-07 0)
(0.055485 4.57159e-07 0)
(0.055485 4.06925e-07 0)
(0.055485 3.58842e-07 0)
(0.055485 3.13979e-07 0)
(0.055485 2.7291e-07 0)
(0.055485 2.35865e-07 0)
(0.055485 2.02838e-07 0)
(0.055485 1.73675e-07 0)
(0.055485 1.4813e-07 0)
(0.055485 1.25904e-07 0)
(0.055485 1.06679e-07 0)
(0.0554849 9.01329e-08 0)
(0.0554849 7.5956e-08 0)
(0.0554849 6.38568e-08 0)
(0.0554849 5.35671e-08 0)
(0.0554849 4.4844e-08 0)
(0.0554849 3.74702e-08 0)
(0.0554849 3.12535e-08 0)
(0.0554849 2.60248e-08 0)
(0.0554849 2.16368e-08 0)
(0.0554849 1.7962e-08 0)
(0.0554849 1.48903e-08 0)
(0.0554849 1.23272e-08 0)
(0.0554849 1.01923e-08 0)
(0.0554849 8.41672e-09 0)
(0.0554849 6.94227e-09 0)
(0.0554849 5.71958e-09 0)
(0.0554849 4.70701e-09 0)
(0.0554849 3.86953e-09 0)
(0.0554849 3.17773e-09 0)
(0.0554849 2.60697e-09 0)
(0.0554849 2.13662e-09 0)
(0.0554849 1.74945e-09 0)
(0.0554849 1.43107e-09 0)
(0.0554849 1.16952e-09 0)
(0.0554849 9.5485e-10 0)
(0.0554849 7.78845e-10 0)
(0.0554849 6.34684e-10 0)
(0.0554849 5.16715e-10 0)
(0.0554849 4.20263e-10 0)
(0.0554849 3.41472e-10 0)
(0.0554849 2.7718e-10 0)
(0.0554849 2.24788e-10 0)
(0.0554849 1.82155e-10 0)
(0.0554849 1.47499e-10 0)
(0.0554849 1.19339e-10 0)
(0.0554849 9.64621e-11 0)
(0.0554849 7.78786e-11 0)
(0.0554849 6.28045e-11 0)
(0.0554849 5.06052e-11 0)
(0.0554849 4.07524e-11 0)
(0.0554849 3.28072e-11 0)
(0.0554849 2.63912e-11 0)
(0.0554849 2.12015e-11 0)
(0.0554849 1.70001e-11 0)
(0.0554849 1.36067e-11 0)
(0.0554849 1.08818e-11 0)
(0.0554849 8.70442e-12 0)
(0.0554849 6.96762e-12 0)
(0.0554849 5.57236e-12 0)
(0.0554849 4.43519e-12 0)
(0.0554849 3.49802e-12 0)
(0.0554849 2.71972e-12 0)
(0.0554849 2.0804e-12 0)
(0.0554849 1.56147e-12 0)
(0.0554849 1.14737e-12 0)
(0.0554849 8.20545e-13 0)
(0.0554849 5.67408e-13 0)
(0.0554849 3.79429e-13 0)
(0.0554849 2.48869e-13 0)
(0.0554849 1.72278e-13 0)
(0.0554849 1.38837e-13 0)
(0.0554849 1.37285e-13 0)
(0.0554849 1.50241e-13 0)
(0.0554849 1.6403e-13 0)
(0.0554849 1.75048e-13 0)
(0.0554849 1.85015e-13 0)
(0.0554849 1.99919e-13 0)
(0.0554849 2.23406e-13 0)
(0.0554849 2.45969e-13 0)
(0.0554849 2.53127e-13 0)
(0.0554849 2.27263e-13 0)
(0.0554849 1.59778e-13 0)
(0.0554849 5.45989e-14 0)
(0.0554849 -6.91757e-14 0)
(0.0554849 -1.81237e-13 0)
(0.0554849 -2.5464e-13 0)
(0.0554849 -2.71512e-13 0)
(0.0554849 -2.33536e-13 0)
(0.0554849 -1.58227e-13 0)
(0.0554849 -7.11054e-14 0)
(0.0554849 1.8066e-15 0)
(0.0554849 4.4181e-14 0)
(0.0554849 5.38934e-14 0)
(0.0554849 3.79884e-14 0)
(0.0554849 9.33357e-15 0)
(0.0554849 -2.05028e-14 0)
(0.0554849 -4.24814e-14 0)
(0.0554849 -5.38441e-14 0)
(0.0554849 -5.74386e-14 0)
(0.0554849 -5.41769e-14 0)
(0.0554849 -4.75289e-14 0)
(0.0554849 -3.63414e-14 0)
(0.0554849 -2.17208e-14 0)
(0.0554849 -2.93312e-15 0)
(0.0554849 1.87394e-14 0)
(0.0554849 4.12815e-14 0)
(0.0554849 6.01483e-14 0)
(0.0554849 6.95085e-14 0)
(0.0554849 6.62511e-14 0)
(0.0554849 5.20558e-14 0)
(0.0554849 3.11741e-14 0)
(0.0554849 1.07639e-14 0)
(0.0554849 -1.93242e-16 0)
(0.0554849 6.88943e-15 0)
(0.0554849 4.1483e-14 0)
(0.0554849 1.05876e-13 0)
(0.0554849 1.96607e-13 0)
(0.0554849 3.06639e-13 0)
(0.0554849 4.23001e-13 0)
(0.0554849 5.3528e-13 0)
(0.0554849 6.38698e-13 0)
(0.0554849 7.31128e-13 0)
(0.0554849 8.24084e-13 0)
(0.0554849 9.32232e-13 0)
(0.0554849 1.07678e-12 0)
(0.0554849 1.28119e-12 0)
(0.0554849 1.5597e-12 0)
(0.0554849 1.9256e-12 0)
(0.0554849 2.38477e-12 0)
(0.0554849 2.94553e-12 0)
(0.0554849 3.62524e-12 0)
(0.0554849 4.45052e-12 0)
(0.0554849 5.47486e-12 0)
(0.0554849 6.77632e-12 0)
(0.0554849 8.47669e-12 0)
(0.0554849 1.07236e-11 0)
(0.0554849 1.37009e-11 0)
(0.0554849 1.78529e-11 0)
(0.0554849 2.30503e-11 0)
(0.0554849 3.08368e-11 0)
(0.0554849 4.0263e-11 0)
(0.0554849 5.8808e-11 0)
(0.0554849 6.79332e-11 0)
(-0.000326594 0.0159521 0)
(-0.0013966 0.0180197 0)
(0.000569775 0.0123055 0)
(0.00371779 0.00568899 0)
(0.0080778 -0.000975675 0)
(0.0128503 -0.00760985 0)
(0.0178391 -0.0141199 0)
(0.0227482 -0.0203295 0)
(0.0274313 -0.0259763 0)
(0.0317652 -0.0306273 0)
(0.0356854 -0.0337058 0)
(0.0391873 -0.0346283 0)
(0.0423114 -0.0330979 0)
(0.0450761 -0.0294208 0)
(0.0474344 -0.0245085 0)
(0.0493266 -0.0194284 0)
(0.0507569 -0.0149219 0)
(0.0518018 -0.0112778 0)
(0.0525654 -0.00847696 0)
(0.053139 -0.00637318 0)
(0.0535862 -0.00480314 0)
(0.0539459 -0.00362957 0)
(0.0542406 -0.00274861 0)
(0.0544839 -0.00208451 0)
(0.0546847 -0.00158225 0)
(0.0548498 -0.00120154 0)
(0.0549847 -0.000912522 0)
(0.0550944 -0.000692874 0)
(0.0551829 -0.000525821 0)
(0.0552541 -0.000398704 0)
(0.0553109 -0.000301946 0)
(0.0553561 -0.000228292 0)
(0.055392 -0.000172236 0)
(0.0554202 -0.000129598 0)
(0.0554424 -9.71934e-05 0)
(0.0554598 -7.25981e-05 0)
(0.0554734 -5.39622e-05 0)
(0.055484 -3.98727e-05 0)
(0.0554921 -2.92497e-05 0)
(0.0554985 -2.12672e-05 0)
(0.0555034 -1.5293e-05 0)
(0.0555071 -1.08439e-05 0)
(0.05551 -7.54997e-06 0)
(0.0555122 -5.12865e-06 0)
(0.0555138 -3.36426e-06 0)
(0.0555151 -2.09239e-06 0)
(0.055516 -1.18797e-06 0)
(0.0555168 -5.56087e-07 0)
(0.0555173 -1.24935e-07 0)
(0.0555177 1.59647e-07 0)
(0.0555179 3.38326e-07 0)
(0.0555181 4.41493e-07 0)
(0.0555183 4.91729e-07 0)
(0.0555184 5.05691e-07 0)
(0.0555184 4.95569e-07 0)
(0.0555185 4.70187e-07 0)
(0.0555185 4.35857e-07 0)
(0.0555185 3.97014e-07 0)
(0.0555185 3.56712e-07 0)
(0.0555185 3.1699e-07 0)
(0.0555185 2.7915e-07 0)
(0.0555185 2.43968e-07 0)
(0.0555185 2.11846e-07 0)
(0.0555185 1.82931e-07 0)
(0.0555185 1.57197e-07 0)
(0.0555185 1.34505e-07 0)
(0.0555185 1.14652e-07 0)
(0.0555185 9.73955e-08 0)
(0.0555185 8.2482e-08 0)
(0.0555185 6.96568e-08 0)
(0.0555185 5.86755e-08 0)
(0.0555185 4.93094e-08 0)
(0.0555185 4.13485e-08 0)
(0.0555185 3.46031e-08 0)
(0.0555185 2.89038e-08 0)
(0.0555185 2.41008e-08 0)
(0.0555185 2.00628e-08 0)
(0.0555185 1.66753e-08 0)
(0.0555185 1.38393e-08 0)
(0.0555185 1.14696e-08 0)
(0.0555185 9.493e-09 0)
(0.0555185 7.84698e-09 0)
(0.0555185 6.47842e-09 0)
(0.0555185 5.34225e-09 0)
(0.0555185 4.40032e-09 0)
(0.0555185 3.6205e-09 0)
(0.0555185 2.9757e-09 0)
(0.0555185 2.4432e-09 0)
(0.0555185 2.00395e-09 0)
(0.0555185 1.64201e-09 0)
(0.0555185 1.34411e-09 0)
(0.0555185 1.09918e-09 0)
(0.0555185 8.9803e-10 0)
(0.0555185 7.33e-10 0)
(0.0555185 5.97735e-10 0)
(0.0555185 4.86968e-10 0)
(0.0555185 3.96348e-10 0)
(0.0555185 3.22292e-10 0)
(0.0555185 2.61841e-10 0)
(0.0555185 2.12547e-10 0)
(0.0555185 1.72385e-10 0)
(0.0555185 1.39676e-10 0)
(0.0555185 1.13054e-10 0)
(0.0555185 9.14074e-11 0)
(0.0555185 7.3833e-11 0)
(0.0555185 5.95934e-11 0)
(0.0555185 4.80738e-11 0)
(0.0555185 3.87597e-11 0)
(0.0555185 3.12259e-11 0)
(0.0555185 2.51284e-11 0)
(0.0555185 2.0199e-11 0)
(0.0555185 1.62241e-11 0)
(0.0555185 1.30298e-11 0)
(0.0555185 1.04667e-11 0)
(0.0555185 8.4026e-12 0)
(0.0555185 6.72914e-12 0)
(0.0555185 5.35938e-12 0)
(0.0555185 4.2321e-12 0)
(0.0555185 3.30712e-12 0)