/*--------------------------------*- C++ -*----------------------------------*\
| =========                 |                                                 |
| \\      /  F ield         | OpenFOAM: The Open Source CFD Toolbox           |
|  \\    /   O peration     | Version:  4.1                                   |
|   \\  /    A nd           | Web:      www.OpenFOAM.org                      |
|    \\/     M anipulation  |                                                 |
\*---------------------------------------------------------------------------*/
FoamFile
{
    version     2.0;
    format      ascii;
    class       volVectorField;
    location    "2730";
    object      U;
}
// * * * * * * * * * * * * * * * * * * * * * * * * * * * * * * * * * * * * * //

dimensions      [0 1 -1 0 0 0 0];

internalField   nonuniform List<vector> 
1275
(
(0.07641 -5.70806e-05 0)
(0.0766116 -0.000118391 0)
(0.0764737 -0.000217051 0)
(0.0767153 -0.000275817 0)
(0.0767034 -0.000329188 0)
(0.0770182 -0.000421609 0)
(0.0771259 -0.000441659 0)
(0.0775498 -0.000605058 0)
(0.0777929 -0.00062946 0)
(0.0784388 -0.00085777 0)
(0.112436 -3.98394e-05 0)
(0.112616 -0.000130411 0)
(0.112484 -0.000259467 0)
(0.112671 -0.000342988 0)
(0.112623 -0.000453578 0)
(0.112853 -0.000554237 0)
(0.112876 -0.000668168 0)
(0.113171 -0.000804552 0)
(0.113246 -0.000984251 0)
(0.113592 -0.0011334 0)
(0.136447 -3.24817e-05 0)
(0.136616 -0.000150008 0)
(0.136478 -0.000282719 0)
(0.13663 -0.000402493 0)
(0.13655 -0.000521591 0)
(0.136713 -0.000664796 0)
(0.136682 -0.000780221 0)
(0.136872 -0.000966377 0)
(0.136877 -0.00110352 0)
(0.137076 -0.0013207 0)
(0.148452 -2.81803e-05 0)
(0.148612 -0.000150969 0)
(0.14846 -0.000282488 0)
(0.148579 -0.000407907 0)
(0.14846 -0.000540329 0)
(0.148558 -0.000680349 0)
(0.14846 -0.000825182 0)
(0.148547 -0.000988702 0)
(0.148448 -0.00116947 0)
(0.14851 -0.00134432 0)
(0.148453 -2.30427e-05 0)
(0.148607 -0.00014774 0)
(0.148438 -0.000259909 0)
(0.148526 -0.000393952 0)
(0.148369 -0.000509547 0)
(0.14841 -0.00065948 0)
(0.148255 -0.000782132 0)
(0.148255 -0.000952432 0)
(0.148085 -0.00109024 0)
(0.148034 -0.00126561 0)
(0.136449 -1.58011e-05 0)
(0.136598 -0.000124849 0)
(0.136407 -0.000209632 0)
(0.136466 -0.000330237 0)
(0.13627 -0.000428139 0)
(0.136258 -0.000559397 0)
(0.136044 -0.000670485 0)
(0.135967 -0.000812286 0)
(0.135714 -0.000939394 0)
(0.135566 -0.00108208 0)
(0.112439 -3.43891e-06 0)
(0.112585 -9.55551e-05 0)
(0.112369 -0.000142035 0)
(0.112402 -0.000249117 0)
(0.11217 -0.000313278 0)
(0.112113 -0.000427741 0)
(0.111847 -0.00050167 0)
(0.111705 -0.000620284 0)
(0.111388 -0.000701737 0)
(0.111157 -0.000813759 0)
(0.0764173 2.71177e-05 0)
(0.0765629 -3.50989e-05 0)
(0.0763158 -3.79227e-05 0)
(0.0763439 -0.000115603 0)
(0.0760806 -0.000146539 0)
(0.0760087 -0.000225736 0)
(0.075703 -0.000267322 0)
(0.0755316 -0.000344525 0)
(0.0751626 -0.000391512 0)
(0.0748902 -0.0004619 0)
(0.0284323 6.12345e-05 0)
(0.0286343 3.06228e-05 0)
(0.0284827 4.72448e-05 0)
(0.0286006 2.71432e-06 0)
(0.0284136 -2.82033e-07 0)
(0.0284219 -3.78065e-05 0)
(0.0281842 -4.13967e-05 0)
(0.02809 -7.13927e-05 0)
(0.0277948 -7.28566e-05 0)
(0.0276099 -9.41174e-05 0)
(0.0767734 -0.00257469 0)
(0.0775936 -0.00268377 0)
(0.0784283 -0.00280439 0)
(0.0792805 -0.00293147 0)
(0.0801489 -0.00306946 0)
(0.0810378 -0.0032165 0)
(0.0819465 -0.00337516 0)
(0.0828783 -0.00354489 0)
(0.0838332 -0.00372748 0)
(0.084814 -0.00392305 0)
(0.085821 -0.00413301 0)
(0.0868564 -0.00435785 0)
(0.0879209 -0.00459882 0)
(0.0890159 -0.00485661 0)
(0.0901422 -0.00513235 0)
(0.0913007 -0.00542685 0)
(0.0924918 -0.00574113 0)
(0.0937158 -0.00607599 0)
(0.0949727 -0.00643235 0)
(0.0962619 -0.0068109 0)
(0.0975825 -0.00721233 0)
(0.0989332 -0.00763713 0)
(0.100312 -0.00808566 0)
(0.101716 -0.00855803 0)
(0.103142 -0.0090541 0)
(0.104586 -0.00957342 0)
(0.106043 -0.0101152 0)
(0.107507 -0.0106781 0)
(0.108972 -0.0112605 0)
(0.110429 -0.01186 0)
(0.111871 -0.0124738 0)
(0.113287 -0.0130983 0)
(0.114667 -0.0137293 0)
(0.116 -0.0143619 0)
(0.117274 -0.0149904 0)
(0.118476 -0.0156085 0)
(0.119594 -0.0162093 0)
(0.120613 -0.0167852 0)
(0.121522 -0.0173284 0)
(0.122308 -0.0178307 0)
(0.122957 -0.0182838 0)
(0.12346 -0.0186796 0)
(0.123805 -0.0190104 0)
(0.123985 -0.0192688 0)
(0.123992 -0.0194486 0)
(0.123822 -0.0195444 0)
(0.123471 -0.0195522 0)
(0.122941 -0.0194692 0)
(0.122233 -0.0192944 0)
(0.121353 -0.0190286 0)
(0.120307 -0.0186741 0)
(0.119107 -0.018235 0)
(0.117765 -0.0177168 0)
(0.116294 -0.0171267 0)
(0.114711 -0.0164728 0)
(0.113033 -0.015764 0)
(0.111279 -0.01501 0)
(0.109469 -0.0142205 0)
(0.10762 -0.0134053 0)
(0.105753 -0.012574 0)
(0.103886 -0.0117355 0)
(0.102037 -0.0108982 0)
(0.100223 -0.0100696 0)
(0.0984591 -0.00925636 0)
(0.0967582 -0.00846409 0)
(0.0951323 -0.00769736 0)
(0.0935912 -0.00695979 0)
(0.0921424 -0.00625396 0)
(0.0907926 -0.00558157 0)
(0.089545 -0.00494362 0)
(0.0884035 -0.00434007 0)
(0.0873668 -0.0037711 0)
(0.0864384 -0.00323485 0)
(0.0856111 -0.00273206 0)
(0.0848908 -0.00225787 0)
(0.0842629 -0.00181672 0)
(0.0837371 -0.0013965 0)
(0.0832968 -0.00101326 0)
(0.0789237 -0.00117943 0)
(0.078737 -0.00130573 0)
(0.0792167 -0.00139522 0)
(0.0794579 -0.0014981 0)
(0.080013 -0.00156468 0)
(0.0804615 -0.00164489 0)
(0.0810558 -0.00169866 0)
(0.0815979 -0.00175614 0)
(0.0822116 -0.00179683 0)
(0.082796 -0.00183677 0)
(0.0834164 -0.00186661 0)
(0.0840175 -0.00189454 0)
(0.084636 -0.00191659 0)
(0.0852396 -0.0019369 0)
(0.0858503 -0.00195396 0)
(0.0864486 -0.00196989 0)
(0.087048 -0.00198429 0)
(0.0876366 -0.00199825 0)
(0.0882231 -0.00201183 0)
(0.0888 -0.00202563 0)
(0.0893731 -0.00203988 0)
(0.0899378 -0.00205495 0)
(0.0904981 -0.00207112 0)
(0.0910512 -0.00208861 0)
(0.0916 -0.00210775 0)
(0.0921428 -0.00212867 0)
(0.0926818 -0.00215173 0)
(0.093216 -0.002177 0)
(0.0937473 -0.00220488 0)
(0.0942753 -0.00223536 0)
(0.0948013 -0.00226897 0)
(0.0953255 -0.00230558 0)
(0.0958486 -0.00234585 0)
(0.096372 -0.00238955 0)
(0.0968947 -0.0024375 0)
(0.0974207 -0.00248939 0)
(0.0979449 -0.0025461 0)
(0.0984782 -0.00260746 0)
(0.0990046 -0.00267407 0)
(0.0995524 -0.00274651 0)
(0.100078 -0.00282406 0)
(0.100654 -0.00290982 0)
(0.101165 -0.00299883 0)
(0.101798 -0.00310162 0)
(0.102258 -0.0032003 0)
(0.1029 -0.00332206 0)
(0.103501 -0.00344446 0)
(0.104099 -0.00357774 0)
(0.104717 -0.00372005 0)
(0.105343 -0.00387401 0)
(0.105985 -0.00403869 0)
(0.106641 -0.004216 0)
(0.107313 -0.00440573 0)
(0.107999 -0.00460932 0)
(0.108703 -0.00482701 0)
(0.109423 -0.00505996 0)
(0.11016 -0.00530863 0)
(0.110914 -0.00557404 0)
(0.111684 -0.00585675 0)
(0.112472 -0.00615761 0)
(0.113275 -0.00647719 0)
(0.114093 -0.00681619 0)
(0.114924 -0.00717506 0)
(0.115768 -0.00755427 0)
(0.116621 -0.00795407 0)
(0.117481 -0.0083746 0)
(0.118344 -0.00881577 0)
(0.119208 -0.00927728 0)
(0.120066 -0.00975852 0)
(0.120915 -0.0102586 0)
(0.121748 -0.0107762 0)
(0.122558 -0.0113097 0)
(0.123338 -0.011857 0)
(0.12408 -0.0124154 0)
(0.124774 -0.0129818 0)
(0.125411 -0.0135525 0)
(0.125981 -0.0141231 0)
(0.126471 -0.0146888 0)
(0.126871 -0.0152441 0)
(0.12717 -0.0157829 0)
(0.127354 -0.0162987 0)
(0.127413 -0.0167844 0)
(0.127335 -0.0172329 0)
(0.127108 -0.0176366 0)
(0.126724 -0.017988 0)
(0.126173 -0.0182801 0)
(0.125449 -0.0185058 0)
(0.124545 -0.0186591 0)
(0.123458 -0.0187346 0)
(0.122187 -0.0187284 0)
(0.120733 -0.0186374 0)
(0.119101 -0.0184604 0)
(0.117296 -0.0181975 0)
(0.115328 -0.0178505 0)
(0.113209 -0.0174228 0)
(0.110951 -0.0169192 0)
(0.108573 -0.0163457 0)
(0.106091 -0.0157099 0)
(0.103527 -0.01502 0)
(0.100901 -0.0142854 0)
(0.0982356 -0.0135158 0)
(0.0955542 -0.0127213 0)
(0.0928793 -0.0119121 0)
(0.090233 -0.0110977 0)
(0.0876364 -0.0102873 0)
(0.085109 -0.00948906 0)
(0.0826687 -0.00870995 0)
(0.080331 -0.00795591 0)
(0.0781094 -0.00723151 0)
(0.0760149 -0.00654023 0)
(0.074056 -0.00588431 0)
(0.0722392 -0.00526509 0)
(0.0705681 -0.00468295 0)
(0.0690451 -0.00413753 0)
(0.0676692 -0.00362804 0)
(0.0664399 -0.00315274 0)
(0.065352 -0.00271057 0)
(0.0644036 -0.00229831 0)
(0.0635858 -0.00191594 0)
(0.0628971 -0.00155786 0)
(0.0623254 -0.001227 0)
(0.0618692 -0.000914245 0)
(0.0615181 -0.00062431 0)
(0.11368 -0.00165541 0)
(0.113787 -0.00176034 0)
(0.114018 -0.00195029 0)
(0.114177 -0.00199978 0)
(0.114449 -0.00208062 0)
(0.11466 -0.00211703 0)
(0.114941 -0.00216338 0)
(0.115183 -0.00219319 0)
(0.115467 -0.00222498 0)
(0.115726 -0.00224863 0)
(0.116009 -0.0022718 0)
(0.116276 -0.00229 0)
(0.116557 -0.0023073 0)
(0.116827 -0.00232134 0)
(0.117103 -0.0023348 0)
(0.117371 -0.00234627 0)
(0.117642 -0.00235768 0)
(0.117906 -0.00236817 0)
(0.11817 -0.00237918 0)
(0.118429 -0.00239016 0)
(0.118687 -0.00240221 0)
(0.11894 -0.00241501 0)
(0.119191 -0.0024294 0)
(0.119439 -0.00244519 0)
(0.119685 -0.00246307 0)
(0.119927 -0.00248291 0)
(0.120169 -0.00250533 0)
(0.120407 -0.00253022 0)
(0.120645 -0.00255817 0)
(0.120881 -0.00258905 0)
(0.121117 -0.00262354 0)
(0.121351 -0.00266136 0)
(0.121587 -0.00270345 0)
(0.121821 -0.00274919 0)
(0.122057 -0.00280003 0)
(0.122292 -0.00285473 0)
(0.122532 -0.00291565 0)
(0.122768 -0.00298037 0)
(0.123013 -0.00305297 0)
(0.123251 -0.00312873 0)
(0.123504 -0.00321504 0)
(0.123746 -0.00330265 0)
(0.124008 -0.00340528 0)
(0.124256 -0.0035056 0)
(0.124522 -0.00362624 0)
(0.124787 -0.00374437 0)
(0.125057 -0.00387874 0)
(0.12533 -0.00402018 0)
(0.125611 -0.00417343 0)
(0.125894 -0.00433722 0)
(0.126184 -0.00451288 0)
(0.126477 -0.00470082 0)
(0.126776 -0.00490165 0)
(0.127078 -0.0051161 0)
(0.127385 -0.00534466 0)
(0.127693 -0.00558808 0)
(0.128005 -0.00584681 0)
(0.128317 -0.00612151 0)
(0.128628 -0.00641258 0)
(0.128938 -0.00672054 0)
(0.129243 -0.00704568 0)
(0.129542 -0.00738829 0)
(0.129831 -0.00774846 0)
(0.130109 -0.00812619 0)
(0.13037 -0.00852125 0)
(0.130611 -0.00893325 0)
(0.130828 -0.00936152 0)
(0.131015 -0.00980515 0)
(0.131166 -0.0102629 0)
(0.131274 -0.0107332 0)
(0.131334 -0.011214 0)
(0.131336 -0.0117031 0)
(0.131274 -0.0121975 0)
(0.131137 -0.0126941 0)
(0.130917 -0.0131889 0)
(0.130604 -0.0136777 0)
(0.130187 -0.0141558 0)
(0.129657 -0.0146179 0)
(0.129003 -0.0150583 0)
(0.128215 -0.0154709 0)
(0.127284 -0.0158494 0)
(0.1262 -0.0161873 0)
(0.124955 -0.0164782 0)
(0.123541 -0.0167155 0)
(0.121954 -0.0168934 0)
(0.120188 -0.0170062 0)
(0.118243 -0.0170491 0)
(0.116117 -0.0170182 0)
(0.113813 -0.0169105 0)
(0.111336 -0.0167241 0)
(0.108695 -0.0164587 0)
(0.105898 -0.0161153 0)
(0.102959 -0.0156963 0)
(0.0998948 -0.0152061 0)
(0.0967235 -0.0146503 0)
(0.0934661 -0.0140362 0)
(0.0901456 -0.0133724 0)
(0.0867864 -0.0126682 0)
(0.083414 -0.0119339 0)
(0.0800542 -0.0111799 0)
(0.0767328 -0.0104164 0)
(0.0734749 -0.00965315 0)
(0.0703045 -0.00889919 0)
(0.0672438 -0.00816253 0)
(0.0643133 -0.00745006 0)
(0.0615307 -0.00676753 0)
(0.0589105 -0.00611941 0)
(0.0564646 -0.00550901 0)
(0.0542008 -0.00493838 0)
(0.0521241 -0.00440848 0)
(0.0502356 -0.00391913 0)
(0.0485342 -0.00346932 0)
(0.0470153 -0.00305718 0)
(0.0456735 -0.00268032 0)
(0.0444997 -0.00233603 0)
(0.0434868 -0.00202108 0)
(0.042623 -0.00173287 0)
(0.0419011 -0.00146761 0)
(0.0413082 -0.00122384 0)
(0.040838 -0.000996722 0)
(0.040478 -0.000787383 0)
(0.040222 -0.000588534 0)
(0.0400612 -0.000405555 0)
(0.137122 -0.0015545 0)
(0.13711 -0.00168452 0)
(0.137156 -0.00184908 0)
(0.137143 -0.00194494 0)
(0.137208 -0.00205951 0)
(0.137229 -0.0021345 0)
(0.137304 -0.00221517 0)
(0.137348 -0.00227139 0)
(0.137425 -0.00232729 0)
(0.13748 -0.00236708 0)
(0.137553 -0.00240472 0)
(0.137611 -0.00243154 0)
(0.137678 -0.00245624 0)
(0.137733 -0.00247379 0)
(0.137791 -0.00248992 0)
(0.13784 -0.00250161 0)
(0.137889 -0.00251275 0)
(0.137931 -0.00252148 0)
(0.137971 -0.00253049 0)
(0.138004 -0.00253862 0)
(0.138035 -0.00254778 0)
(0.13806 -0.00255726 0)
(0.138082 -0.0025684 0)
(0.138099 -0.0025808 0)
(0.138113 -0.00259543 0)
(0.138123 -0.00261207 0)
(0.138129 -0.00263146 0)
(0.138131 -0.0026535 0)
(0.138131 -0.00267878 0)
(0.138127 -0.00270729 0)
(0.13812 -0.00273951 0)
(0.13811 -0.00277553 0)
(0.138097 -0.00281573 0)
(0.138082 -0.00286034 0)
(0.138063 -0.00290958 0)
(0.138043 -0.00296396 0)
(0.138019 -0.00302333 0)
(0.137993 -0.0030888 0)
(0.137964 -0.00315942 0)
(0.137933 -0.00323753 0)
(0.137899 -0.00332059 0)
(0.137862 -0.00341302 0)
(0.137823 -0.00350991 0)
(0.137778 -0.00361821 0)
(0.137734 -0.00373109 0)
(0.13768 -0.00385557 0)
(0.137627 -0.00398883 0)
(0.137566 -0.00413122 0)
(0.137502 -0.00428425 0)
(0.13743 -0.00444758 0)
(0.137352 -0.00462238 0)
(0.137265 -0.00480871 0)
(0.13717 -0.00500734 0)
(0.137064 -0.00521857 0)
(0.136947 -0.00544294 0)
(0.136816 -0.00568078 0)
(0.13667 -0.00593249 0)
(0.136506 -0.00619832 0)
(0.136322 -0.00647851 0)
(0.136116 -0.00677315 0)
(0.135883 -0.00708225 0)
(0.135622 -0.00740568 0)
(0.135328 -0.00774314 0)
(0.134996 -0.00809415 0)
(0.134623 -0.00845802 0)
(0.134203 -0.00883383 0)
(0.13373 -0.0092204 0)
(0.1332 -0.00961625 0)
(0.132604 -0.0100196 0)
(0.131937 -0.0104282 0)
(0.131191 -0.0108397 0)
(0.130359 -0.0112511 0)
(0.129432 -0.0116592 0)
(0.128402 -0.0120602 0)
(0.12726 -0.0124501 0)
(0.125998 -0.0128245 0)
(0.124608 -0.0131785 0)
(0.12308 -0.0135072 0)
(0.121408 -0.013805 0)
(0.119584 -0.0140665 0)
(0.117601 -0.0142862 0)
(0.115454 -0.0144584 0)
(0.11314 -0.0145778 0)
(0.110656 -0.0146395 0)
(0.108 -0.0146389 0)
(0.105177 -0.0145724 0)
(0.102188 -0.0144372 0)
(0.0990419 -0.0142318 0)
(0.095748 -0.0139559 0)
(0.092319 -0.0136107 0)
(0.0887705 -0.0131991 0)
(0.085121 -0.0127254 0)
(0.0813916 -0.0121955 0)
(0.0776058 -0.0116163 0)
(0.0737891 -0.0109961 0)
(0.0699688 -0.0103438 0)
(0.0661736 -0.00966875 0)
(0.0624329 -0.00898072 0)
(0.0587764 -0.00828948 0)
(0.055233 -0.00760469 0)
(0.05183 -0.00693564 0)
(0.0485925 -0.00629093 0)
(0.0455415 -0.00567808 0)
(0.0426938 -0.00510325 0)
(0.0400611 -0.00457082 0)
(0.0376497 -0.00408341 0)
(0.0354606 -0.00364173 0)
(0.0334901 -0.00324486 0)
(0.0317308 -0.00289044 0)
(0.0301722 -0.00257514 0)
(0.0288018 -0.00229495 0)
(0.0276063 -0.0020456 0)
(0.0265716 -0.0018229 0)
(0.0256847 -0.00162276 0)
(0.0249319 -0.00144182 0)
(0.0243026 -0.00127654 0)
(0.023784 -0.00112491 0)
(0.0233687 -0.000983688 0)
(0.023045 -0.000852448 0)
(0.0228084 -0.000727683 0)
(0.0226484 -0.000610586 0)
(0.022562 -0.000497322 0)
(0.0225416 -0.000389478 0)
(0.148385 -0.00160085 0)
(0.14833 -0.00174769 0)
(0.148231 -0.00193215 0)
(0.148137 -0.00202924 0)
(0.148048 -0.00214505 0)
(0.147944 -0.0022073 0)
(0.14785 -0.00227839 0)
(0.147739 -0.00231765 0)
(0.147635 -0.00236058 0)
(0.147516 -0.00238415 0)
(0.1474 -0.00240904 0)
(0.147273 -0.0024219 0)
(0.147145 -0.00243526 0)
(0.147008 -0.00244122 0)
(0.146868 -0.00244765 0)
(0.146721 -0.00244977 0)
(0.146571 -0.00245267 0)
(0.146414 -0.00245344 0)
(0.146253 -0.00245544 0)
(0.146086 -0.00245687 0)
(0.145915 -0.00246 0)
(0.145738 -0.00246372 0)
(0.145557 -0.0024696 0)
(0.145371 -0.00247695 0)
(0.14518 -0.00248689 0)
(0.144984 -0.00249899 0)
(0.144784 -0.0025141 0)
(0.144578 -0.00253193 0)
(0.144367 -0.00255318 0)
(0.144151 -0.00257763 0)
(0.14393 -0.00260596 0)
(0.143703 -0.00263789 0)
(0.143471 -0.00267425 0)
(0.143233 -0.00271454 0)
(0.142989 -0.00275992 0)
(0.142738 -0.00280948 0)
(0.14248 -0.00286497 0)
(0.142215 -0.00292476 0)
(0.141942 -0.00299161 0)
(0.141661 -0.00306262 0)
(0.141372 -0.00314219 0)
(0.141073 -0.00322556 0)
(0.140764 -0.00331923 0)
(0.140444 -0.00341644 0)
(0.140112 -0.00352509 0)
(0.139768 -0.00363864 0)
(0.139411 -0.0037627 0)
(0.139037 -0.00389409 0)
(0.138649 -0.00403573 0)
(0.138242 -0.00418616 0)
(0.137816 -0.00434702 0)
(0.137369 -0.00451773 0)
(0.1369 -0.00469925 0)
(0.136406 -0.00489138 0)
(0.135885 -0.00509469 0)
(0.135334 -0.00530911 0)
(0.13475 -0.00553491 0)
(0.134132 -0.005772 0)
(0.133474 -0.00602038 0)
(0.132775 -0.00627979 0)
(0.132029 -0.00654998 0)
(0.131234 -0.00683041 0)
(0.130384 -0.00712046 0)
(0.129474 -0.00741928 0)
(0.128501 -0.0077258 0)
(0.127457 -0.00803873 0)
(0.126338 -0.00835649 0)
(0.125137 -0.00867722 0)
(0.123848 -0.0089988 0)
(0.122465 -0.00931873 0)
(0.120981 -0.00963424 0)
(0.119388 -0.00994219 0)
(0.117681 -0.0102391 0)
(0.115852 -0.0105213 0)
(0.113895 -0.0107846 0)
(0.111802 -0.0110248 0)
(0.10957 -0.0112374 0)
(0.107192 -0.0114177 0)
(0.104665 -0.011561 0)
(0.101986 -0.0116629 0)
(0.0991538 -0.0117188 0)
(0.0961683 -0.0117249 0)
(0.0930322 -0.0116776 0)
(0.0897502 -0.0115742 0)
(0.0863293 -0.0114129 0)
(0.0827792 -0.0111928 0)
(0.0791124 -0.0109143 0)
(0.0753444 -0.0105788 0)
(0.0714937 -0.0101889 0)
(0.0675819 -0.00974856 0)
(0.0636334 -0.00926275 0)
(0.0596756 -0.00873785 0)
(0.0557388 -0.00818147 0)
(0.0518549 -0.00760246 0)
(0.0480576 -0.00701073 0)
(0.0443804 -0.00641695 0)
(0.0408558 -0.00583206 0)
(0.0375129 -0.00526672 0)
(0.0343763 -0.00473055 0)
(0.0314642 -0.00423157 0)
(0.0287879 -0.00377556 0)
(0.0263513 -0.00336578 0)
(0.0241515 -0.00300284 0)
(0.0221799 -0.00268502 0)
(0.0204234 -0.00240871 0)
(0.0188661 -0.00216918 0)
(0.0174908 -0.00196118 0)
(0.0162799 -0.00177964 0)
(0.0152166 -0.00161995 0)
(0.0142859 -0.00147829 0)
(0.0134736 -0.00135156 0)
(0.0127679 -0.00123731 0)
(0.0121578 -0.00113371 0)
(0.0116349 -0.00103911 0)
(0.0111903 -0.000952481 0)
(0.0108183 -0.000872335 0)
(0.0105118 -0.000798256 0)
(0.010267 -0.000728482 0)
(0.0100778 -0.000663325 0)
(0.00994209 -0.00060044 0)
(0.00985493 -0.000541097 0)
(0.00981421 -0.00048223 0)
(0.00981706 -0.000426037 0)
(0.147834 -0.00143179 0)
(0.147683 -0.00155916 0)
(0.147455 -0.00169643 0)
(0.147242 -0.00178525 0)
(0.146997 -0.00188601 0)
(0.14675 -0.00194801 0)
(0.14649 -0.00201765 0)
(0.146222 -0.00205954 0)
(0.145946 -0.00210494 0)
(0.145662 -0.00213121 0)
(0.145372 -0.00215859 0)
(0.145073 -0.00217308 0)
(0.144768 -0.00218772 0)
(0.144456 -0.00219397 0)
(0.144138 -0.00220024 0)
(0.143814 -0.00220137 0)
(0.143484 -0.00220285 0)
(0.143148 -0.00220152 0)
(0.142807 -0.00220102 0)
(0.14246 -0.00219944 0)
(0.142107 -0.00219919 0)
(0.141749 -0.00219914 0)
(0.141386 -0.0022009 0)
(0.141017 -0.0022038 0)
(0.140643 -0.00220895 0)
(0.140263 -0.00221597 0)
(0.139876 -0.00222566 0)
(0.139484 -0.00223779 0)
(0.139085 -0.00225296 0)
(0.13868 -0.00227108 0)
(0.138267 -0.0022926 0)
(0.137847 -0.00231753 0)
(0.137419 -0.0023462 0)
(0.136982 -0.00237876 0)
(0.136536 -0.00241539 0)
(0.13608 -0.00245643 0)
(0.135613 -0.00250184 0)
(0.135136 -0.00255227 0)
(0.134646 -0.00260733 0)
(0.134143 -0.00266811 0)
(0.133626 -0.00273374 0)
(0.133094 -0.00280583 0)
(0.132547 -0.00288315 0)
(0.131981 -0.00296738 0)
(0.131397 -0.00305775 0)
(0.130792 -0.00315481 0)
(0.130166 -0.00325956 0)
(0.129515 -0.00337083 0)
(0.12884 -0.00349033 0)
(0.128136 -0.00361691 0)
(0.127404 -0.00375194 0)
(0.126639 -0.00389464 0)
(0.12584 -0.00404588 0)
(0.125003 -0.00420516 0)
(0.124127 -0.00437295 0)
(0.123208 -0.00454885 0)
(0.122242 -0.004733 0)
(0.121227 -0.00492497 0)
(0.120158 -0.00512458 0)
(0.119031 -0.00533124 0)
(0.117843 -0.00554444 0)
(0.116589 -0.00576336 0)
(0.115265 -0.00598711 0)
(0.113865 -0.00621451 0)
(0.112384 -0.00644425 0)
(0.110819 -0.00667475 0)
(0.109163 -0.00690419 0)
(0.107411 -0.00713052 0)
(0.105559 -0.00735143 0)
(0.1036 -0.00756434 0)
(0.101531 -0.00776646 0)
(0.0993455 -0.00795473 0)
(0.0970403 -0.00812595 0)
(0.0946114 -0.00827673 0)
(0.092056 -0.0084036 0)
(0.0893718 -0.00850305 0)
(0.086558 -0.00857159 0)
(0.083615 -0.00860586 0)
(0.0805447 -0.0086027 0)
(0.077351 -0.00855923 0)
(0.0740398 -0.008473 0)
(0.0706191 -0.00834204 0)
(0.0670999 -0.00816511 0)
(0.0634957 -0.00794173 0)
(0.0598232 -0.00767249 0)
(0.0561024 -0.00735911 0)
(0.0523567 -0.0070047 0)
(0.048613 -0.00661384 0)
(0.044901 -0.00619262 0)
(0.0412528 -0.00574867 0)
(0.0377016 -0.00529095 0)
(0.0342805 -0.00482944 0)
(0.0310201 -0.00437465 0)
(0.0279474 -0.00393687 0)
(0.0250832 -0.00352529 0)
(0.0224416 -0.00314718 0)
(0.0200289 -0.00280713 0)
(0.0178439 -0.00250683 0)
(0.0158782 -0.00224514 0)
(0.0141187 -0.00201875 0)
(0.0125488 -0.00182299 0)
(0.0111508 -0.00165279 0)
(0.00990678 -0.00150342 0)
(0.00880017 -0.00137105 0)
(0.00781548 -0.00125286 0)
(0.00693887 -0.0011471 0)
(0.00615785 -0.00105273 0)
(0.00546181 -0.000969194 0)
(0.00484135 -0.000896027 0)
(0.00428895 -0.00083265 0)
(0.00379777 -0.000778256 0)
(0.00336263 -0.000731718 0)
(0.00297825 -0.000691902 0)
(0.00264102 -0.000657365 0)
(0.00234647 -0.000627155 0)
(0.00209217 -0.000599803 0)
(0.00187421 -0.00057493 0)
(0.00169115 -0.000551047 0)
(0.00153959 -0.000528468 0)
(0.00141884 -0.000505583 0)
(0.00132623 -0.000483238 0)
(0.00126127 -0.000459895 0)
(0.0012224 -0.000436332 0)
(0.13526 -0.00122589 0)
(0.135018 -0.00134535 0)
(0.134673 -0.00146734 0)
(0.134361 -0.00155078 0)
(0.133986 -0.00163672 0)
(0.133623 -0.00168805 0)
(0.133221 -0.00174117 0)
(0.13282 -0.00176848 0)
(0.132394 -0.0017968 0)
(0.131964 -0.00180744 0)
(0.131517 -0.00181864 0)
(0.131065 -0.00181838 0)
(0.1306 -0.00181863 0)
(0.130131 -0.00181187 0)
(0.129651 -0.00180582 0)
(0.129167 -0.00179584 0)
(0.128676 -0.0017869 0)
(0.12818 -0.00177617 0)
(0.127677 -0.00176684 0)
(0.127171 -0.00175716 0)
(0.126659 -0.00174924 0)
(0.126142 -0.00174198 0)
(0.12562 -0.00173677 0)
(0.125094 -0.00173293 0)
(0.124562 -0.00173139 0)
(0.124024 -0.00173174 0)
(0.123481 -0.00173464 0)
(0.122931 -0.00173979 0)
(0.122375 -0.00174773 0)
(0.121812 -0.00175821 0)
(0.121241 -0.00177173 0)
(0.120661 -0.00178803 0)
(0.120073 -0.00180766 0)
(0.119475 -0.00183026 0)
(0.118866 -0.00185654 0)
(0.118245 -0.00188592 0)
(0.117612 -0.00191942 0)
(0.116965 -0.00195609 0)
(0.116304 -0.00199744 0)
(0.115627 -0.00204194 0)
(0.114932 -0.00209176 0)
(0.114219 -0.00214469 0)
(0.113486 -0.00220357 0)
(0.112731 -0.00226566 0)
(0.111952 -0.00233398 0)
(0.111149 -0.00240607 0)
(0.110318 -0.00248424 0)
(0.109458 -0.00256674 0)
(0.108566 -0.00265528 0)
(0.107641 -0.00274858 0)
(0.106679 -0.0028478 0)
(0.105679 -0.002952 0)
(0.104637 -0.0030619 0)
(0.10355 -0.0031768 0)
(0.102416 -0.003297 0)
(0.101231 -0.0034219 0)
(0.0999924 -0.00355147 0)
(0.0986958 -0.00368507 0)
(0.0973382 -0.00382238 0)
(0.0959158 -0.00396263 0)
(0.0944249 -0.00410517 0)
(0.0928616 -0.00424902 0)
(0.0912223 -0.00439322 0)
(0.0895029 -0.00453651 0)
(0.0877 -0.00467757 0)
(0.0858099 -0.00481482 0)
(0.0838292 -0.00494658 0)
(0.0817549 -0.00507092 0)
(0.0795843 -0.00518581 0)
(0.0773152 -0.00528902 0)
(0.0749462 -0.0053782 0)
(0.0724763 -0.0054509 0)
(0.0699058 -0.00550461 0)
(0.0672359 -0.0055368 0)
(0.0644694 -0.00554502 0)
(0.0616103 -0.00552697 0)
(0.0586648 -0.00548055 0)
(0.0556408 -0.00540406 0)
(0.052549 -0.00529622 0)
(0.0494022 -0.00515638 0)
(0.0462164 -0.00498465 0)
(0.04301 -0.00478208 0)
(0.0398044 -0.0045508 0)
(0.0366234 -0.00429417 0)
(0.0334925 -0.00401688 0)
(0.0304384 -0.00372485 0)
(0.0274879 -0.00342502 0)
(0.0246663 -0.00312495 0)
(0.0219959 -0.00283222 0)
(0.0194949 -0.00255375 0)
(0.0171755 -0.00229513 0)
(0.0150437 -0.00206006 0)
(0.0130989 -0.00185007 0)
(0.0113356 -0.00166459 0)
(0.00974456 -0.00150127 0)
(0.00831421 -0.00135663 0)
(0.00703182 -0.00122673 0)
(0.00588379 -0.00110806 0)
(0.00485605 -0.000998272 0)
(0.00393472 -0.000896751 0)
(0.0031069 -0.000804367 0)
(0.00236138 -0.000722746 0)
(0.00168882 -0.00065321 0)
(0.00108167 -0.000596077 0)
(0.000533456 -0.00055047 0)
(3.85693e-05 -0.000514734 0)
(-0.000408429 -0.000486928 0)
(-0.000812492 -0.000465303 0)
(-0.00117864 -0.000448461 0)
(-0.00151114 -0.000435342 0)
(-0.00181429 -0.000425184 0)
(-0.00209126 -0.000417289 0)
(-0.0023454 -0.000411225 0)
(-0.00257865 -0.000406372 0)
(-0.00279348 -0.000402575 0)
(-0.0029908 -0.00039917 0)
(-0.00317242 -0.000396335 0)
(-0.00333858 -0.000393232 0)
(-0.00349056 -0.000390405 0)
(-0.00362832 -0.00038675 0)
(-0.0037525 -0.00038314 0)
(-0.00386325 -0.000378266 0)
(-0.00396043 -0.00037314 0)
(0.110774 -0.000900978 0)
(0.110447 -0.000984657 0)
(0.110003 -0.00105686 0)
(0.109592 -0.00111088 0)
(0.1091 -0.00116168 0)
(0.108625 -0.00119293 0)
(0.108095 -0.0012241 0)
(0.107575 -0.00123922 0)
(0.107017 -0.00125482 0)
(0.106463 -0.0012587 0)
(0.105884 -0.00126292 0)
(0.105307 -0.00125916 0)
(0.104713 -0.00125564 0)
(0.10412 -0.00124704 0)
(0.103515 -0.00123879 0)
(0.102911 -0.00122759 0)
(0.102299 -0.00121699 0)
(0.101688 -0.00120498 0)
(0.101071 -0.00119387 0)
(0.100454 -0.00118246 0)
(0.0998333 -0.00117222 0)
(0.0992121 -0.00116247 0)
(0.0985877 -0.00115415 0)
(0.0979621 -0.00114686 0)
(0.0973334 -0.00114123 0)
(0.0967026 -0.00113702 0)
(0.0960681 -0.00113464 0)
(0.0954303 -0.00113398 0)
(0.094788 -0.00113531 0)
(0.0941411 -0.00113858 0)
(0.0934883 -0.00114397 0)
(0.0928293 -0.0011515 0)
(0.0921628 -0.00116127 0)
(0.0914883 -0.00117336 0)
(0.0908043 -0.00118779 0)
(0.0901101 -0.00120474 0)
(0.0894043 -0.0012241 0)
(0.0886859 -0.00124621 0)
(0.0879532 -0.00127078 0)
(0.0872053 -0.00129831 0)
(0.0864403 -0.00132837 0)
(0.0856569 -0.00136154 0)
(0.0848533 -0.00139742 0)
(0.0840278 -0.00143635 0)
(0.0831788 -0.00147836 0)
(0.082304 -0.00152313 0)
(0.0814017 -0.00157139 0)
(0.0804695 -0.00162221 0)
(0.0795056 -0.00167651 0)
(0.0785072 -0.00173331 0)
(0.0774726 -0.00179336 0)
(0.0763987 -0.00185581 0)
(0.0752836 -0.0019211 0)
(0.0741241 -0.00198851 0)
(0.0729182 -0.0020582 0)
(0.0716627 -0.00212949 0)
(0.0703554 -0.00220225 0)
(0.0689934 -0.0022758 0)
(0.0675742 -0.00234975 0)
(0.0660953 -0.00242333 0)
(0.0645544 -0.0024959 0)
(0.0629493 -0.00256654 0)
(0.0612781 -0.00263439 0)
(0.0595393 -0.00269835 0)
(0.0577317 -0.00275733 0)
(0.0558546 -0.00281007 0)
(0.0539081 -0.00285526 0)
(0.0518928 -0.00289151 0)
(0.0498103 -0.00291741 0)
(0.0476631 -0.0029315 0)
(0.045455 -0.00293241 0)
(0.043191 -0.00291883 0)
(0.0408775 -0.00288965 0)
(0.0385225 -0.002844 0)
(0.0361358 -0.00278137 0)
(0.0337288 -0.00270171 0)
(0.0313146 -0.0026055 0)
(0.028908 -0.00249384 0)
(0.0265254 -0.00236846 0)
(0.0241838 -0.00223174 0)
(0.021901 -0.00208665 0)
(0.0196941 -0.00193661 0)
(0.017579 -0.00178528 0)
(0.0155694 -0.00163632 0)
(0.013676 -0.00149311 0)
(0.011906 -0.0013584 0)
(0.0102638 -0.00123402 0)
(0.00875044 -0.00112061 0)
(0.00736483 -0.00101743 0)
(0.00610347 -0.000922443 0)
(0.00496077 -0.000832834 0)
(0.00392912 -0.000746081 0)
(0.00299943 -0.000661169 0)
(0.00216187 -0.00057927 0)
(0.00140691 -0.000503287 0)
(0.000726022 -0.000436434 0)
(0.00011204 -0.000380701 0)
(-0.000440953 -0.00033616 0)
(-0.000938078 -0.00030134 0)
(-0.00138414 -0.00027422 0)
(-0.00178412 -0.000253061 0)
(-0.00214331 -0.000236696 0)
(-0.00246731 -0.000224318 0)
(-0.00276152 -0.000215204 0)
(-0.00303102 -0.000208586 0)
(-0.00328 -0.00020377 0)
(-0.00351204 -0.000200275 0)
(-0.00372979 -0.000197915 0)
(-0.00393566 -0.000196738 0)
(-0.00413127 -0.000196853 0)
(-0.00431841 -0.000198384 0)
(-0.0044981 -0.000201236 0)
(-0.00467175 -0.000205338 0)
(-0.00483984 -0.000210299 0)
(-0.00500348 -0.000216002 0)
(-0.0051627 -0.000221896 0)
(-0.00531833 -0.000228031 0)
(-0.00547012 -0.000233776 0)
(-0.00561857 -0.000239422 0)
(-0.00576334 -0.000244297 0)
(-0.00590451 -0.000248835 0)
(-0.00604186 -0.000252459 0)
(-0.00617497 -0.000255494 0)
(0.074447 -0.000510783 0)
(0.0740725 -0.000564899 0)
(0.0735642 -0.000604645 0)
(0.0731036 -0.000637656 0)
(0.0725464 -0.00066161 0)
(0.0720218 -0.000675326 0)
(0.0714314 -0.000683655 0)
(0.0708637 -0.000682936 0)
(0.0702536 -0.000679273 0)
(0.0696601 -0.000669223 0)
(0.069041 -0.000657865 0)
(0.0684352 -0.000642691 0)
(0.0678153 -0.000627315 0)
(0.0672068 -0.000610107 0)
(0.0665919 -0.000593438 0)
(0.0659873 -0.000576302 0)
(0.0653812 -0.000560177 0)
(0.0647842 -0.000544451 0)
(0.0641887 -0.000530014 0)
(0.0636012 -0.000516486 0)
(0.0630165 -0.000504386 0)
(0.0624387 -0.000493468 0)
(0.0618639 -0.000484025 0)
(0.0612945 -0.000475886 0)
(0.0607276 -0.000469216 0)
(0.0601646 -0.000463884 0)
(0.0596031 -0.000459988 0)
(0.0590435 -0.000457414 0)
(0.0584839 -0.000456239 0)
(0.0579243 -0.000456344 0)
(0.057363 -0.00045782 0)
(0.0567995 -0.000460517 0)
(0.0562323 -0.000464581 0)
(0.0556606 -0.000469789 0)
(0.055083 -0.000476395 0)
(0.0544985 -0.000484045 0)
(0.0539055 -0.000493162 0)
(0.0533032 -0.000503191 0)
(0.0526899 -0.000514796 0)
(0.0520645 -0.00052715 0)
(0.0514253 -0.0005412 0)
(0.0507713 -0.000555838 0)
(0.0501005 -0.00057223 0)
(0.0494119 -0.000589124 0)
(0.0487035 -0.000607668 0)
(0.0479742 -0.000626746 0)
(0.047222 -0.000647227 0)
(0.0464455 -0.000668217 0)
(0.045643 -0.000690371 0)
(0.044813 -0.000712934 0)
(0.0439539 -0.00073635 0)
(0.0430641 -0.000759983 0)
(0.0421422 -0.000784068 0)
(0.0411865 -0.000808059 0)
(0.0401961 -0.000832002 0)
(0.0391694 -0.000855401 0)
(0.0381059 -0.000878146 0)
(0.0370042 -0.000899753 0)
(0.0358643 -0.000919985 0)
(0.0346856 -0.000938351 0)
(0.0334684 -0.000954517 0)
(0.0322132 -0.000967983 0)
(0.0309212 -0.000978358 0)
(0.0295937 -0.000985152 0)
(0.0282333 -0.000987967 0)
(0.0268426 -0.00098637 0)
(0.0254255 -0.000980027 0)
(0.0239864 -0.000968627 0)
(0.0225305 -0.000951992 0)
(0.0210637 -0.000930031 0)
(0.019593 -0.000902828 0)
(0.0181257 -0.00087062 0)
(0.0166696 -0.000833865 0)
(0.0152329 -0.000793224 0)
(0.013824 -0.000749592 0)
(0.0124509 -0.00070406 0)
(0.0111214 -0.000657865 0)
(0.0098427 -0.00061228 0)
(0.00862111 -0.000568455 0)
(0.00746204 -0.000527196 0)
(0.00636987 -0.000488743 0)
(0.00534775 -0.000452607 0)
(0.00439761 -0.000417591 0)
(0.00352005 -0.000382101 0)
(0.00271433 -0.000344731 0)
(0.00197842 -0.000304947 0)
(0.0013091 -0.000263514 0)
(0.000702277 -0.000222393 0)
(0.000153369 -0.000184082 0)
(-0.000342137 -0.000150707 0)
(-0.00078816 -0.000123361 0)
(-0.00118777 -0.000102002 0)
(-0.00154341 -8.58965e-05 0)
(-0.00185756 -7.41736e-05 0)
(-0.00213348 -6.6091e-05 0)
(-0.00237552 -6.09006e-05 0)
(-0.00258881 -5.76018e-05 0)
(-0.00277845 -5.49581e-05 0)
(-0.00294882 -5.18518e-05 0)
(-0.0031033 -4.77454e-05 0)
(-0.0032445 -4.28812e-05 0)
(-0.00337456 -3.80993e-05 0)
(-0.00349554 -3.4385e-05 0)
(-0.00360931 -3.24553e-05 0)
(-0.00371768 -3.25552e-05 0)
(-0.00382204 -3.4513e-05 0)
(-0.00392365 -3.79248e-05 0)
(-0.00402333 -4.23292e-05 0)
(-0.00412207 -4.73456e-05 0)
(-0.00422046 -5.26636e-05 0)
(-0.00431945 -5.81117e-05 0)
(-0.00441946 -6.35094e-05 0)