/*--------------------------------*- C++ -*----------------------------------*\
| =========                 |                                                 |
| \\      /  F ield         | OpenFOAM: The Open Source CFD Toolbox           |
|  \\    /   O peration     | Version:  4.1                                   |
|   \\  /    A nd           | Web:      www.OpenFOAM.org                      |
|    \\/     M anipulation  |                                                 |
\*---------------------------------------------------------------------------*/
FoamFile
{
    version     2.0;
    format      ascii;
    class       volVectorField;
    location    "356";
    object      U;
}
// * * * * * * * * * * * * * * * * * * * * * * * * * * * * * * * * * * * * * //

dimensions      [0 1 -1 0 0 0 0];

internalField   nonuniform List<vector> 
3264
(
(-2.63205e-06 -4.44163e-07 0)
(-0.000132841 3.05468e-05 0)
(-0.00038907 4.86168e-05 0)
(-0.000676072 5.09074e-05 0)
(-0.000977939 5.25871e-05 0)
(-0.00128415 5.19289e-05 0)
(-0.00158941 5.31626e-05 0)
(-0.00189522 5.37367e-05 0)
(-0.00219712 5.47787e-05 0)
(-0.00249606 5.53583e-05 0)
(-0.00278977 5.59015e-05 0)
(-0.00307883 5.61855e-05 0)
(-0.00336267 5.64026e-05 0)
(-0.00364199 5.65536e-05 0)
(-0.00391718 5.67587e-05 0)
(-0.00418921 5.70855e-05 0)
(-0.00445903 5.76346e-05 0)
(-0.00472784 5.84916e-05 0)
(-0.00499685 5.97473e-05 0)
(-0.00526735 6.14829e-05 0)
(-0.00554053 6.37706e-05 0)
(-0.00581749 6.66652e-05 0)
(-0.00609906 7.01979e-05 0)
(-0.00638578 7.4368e-05 0)
(-0.00667774 7.9135e-05 0)
(-0.00697452 8.44106e-05 0)
(-0.00727506 9.00534e-05 0)
(-0.00757761 9.58655e-05 0)
(-0.00787967 0.000101594 0)
(-0.00817795 0.000106939 0)
(-0.0084684 0.000111559 0)
(-0.00874628 0.000115095 0)
(-0.00900618 0.000117184 0)
(-0.0092422 0.00011748 0)
(-0.00944808 0.000115679 0)
(-0.0096174 0.000111532 0)
(-0.00974371 0.000104863 0)
(-0.00982078 9.55767e-05 0)
(-0.00984274 8.3667e-05 0)
(-0.00980429 6.92128e-05 0)
(-0.00970081 5.23762e-05 0)
(-0.0095285 3.3395e-05 0)
(-0.00928449 1.25731e-05 0)
(-0.00896691 -9.73033e-06 0)
(-0.00857496 -3.31124e-05 0)
(-0.00810889 -5.7138e-05 0)
(-0.00757007 -8.13515e-05 0)
(-0.00696091 -0.000105288 0)
(-0.0062849 -0.000128482 0)
(-0.00554653 -0.000150481 0)
(-0.00475121 -0.000170851 0)
(-0.00390525 -0.00018919 0)
(-0.00301574 -0.000205132 0)
(-0.00209046 -0.000218359 0)
(-0.00113776 -0.000228608 0)
(-0.000166483 -0.00023568 0)
(0.000814232 -0.000239441 0)
(0.00179504 -0.000239837 0)
(0.00276659 -0.000236887 0)
(0.00371961 -0.000230693 0)
(0.00464517 -0.000221433 0)
(0.00553474 -0.000209361 0)
(0.00638041 -0.0001948 0)
(0.00717502 -0.00017813 0)
(0.00791227 -0.000159781 0)
(0.00858684 -0.000140212 0)
(0.00919446 -0.000119903 0)
(0.009732 -9.93299e-05 0)
(0.0101974 -7.89566e-05 0)
(0.0105899 -5.92136e-05 0)
(0.0109096 -4.04868e-05 0)
(0.0111579 -2.31057e-05 0)
(0.0113368 -7.3354e-06 0)
(0.0114496 6.62818e-06 0)
(0.0114998 1.86602e-05 0)
(0.011492 2.87053e-05 0)
(0.011431 3.67731e-05 0)
(0.0113218 4.29324e-05 0)
(0.0111699 4.73023e-05 0)
(0.0109808 5.00433e-05 0)
(0.0107599 5.13474e-05 0)
(0.0105124 5.1428e-05 0)
(0.0102437 5.0509e-05 0)
(0.00995862 4.88153e-05 0)
(0.00966176 4.65622e-05 0)
(0.00935744 4.39462e-05 0)
(0.0090496 4.11363e-05 0)
(0.00874182 3.82671e-05 0)
(0.00843728 3.54349e-05 0)
(0.00813879 3.26967e-05 0)
(0.00784878 3.00738e-05 0)
(0.0075693 2.75597e-05 0)
(0.00730204 2.51305e-05 0)
(0.00704831 2.27573e-05 0)
(0.0068091 2.04175e-05 0)
(0.00658507 1.81028e-05 0)
(0.00637656 1.5823e-05 0)
(0.00618371 1.36048e-05 0)
(0.00600639 1.14866e-05 0)
(0.00584433 9.51096e-06 0)
(0.00569711 7.71677e-06 0)
(0.00556424 6.13285e-06 0)
(0.00544511 4.77369e-06 0)
(0.00533909 3.63822e-06 0)
(0.00524549 2.71117e-06 0)
(0.00516361 1.96662e-06 0)
(0.00509274 1.37275e-06 0)
(0.0050322 8.96682e-07 0)
(0.00498131 5.08635e-07 0)
(0.00493945 1.84476e-07 0)
(0.00490602 -9.33678e-08 0)
(0.00488052 -3.36577e-07 0)
(0.00486246 -5.52692e-07 0)
(0.00485147 -7.47366e-07 0)
(0.00484721 -9.26582e-07 0)
(0.00484946 -1.09845e-06 0)
(0.00485805 -1.27436e-06 0)
(0.00487292 -1.4695e-06 0)
(0.00489408 -1.70269e-06 0)
(0.00492164 -1.99571e-06 0)
(0.0049558 -2.37227e-06 0)
(0.0049968 -2.8567e-06 0)
(0.00504498 -3.47246e-06 0)
(0.00510069 -4.24066e-06 0)
(0.00516433 -5.17856e-06 0)
(0.0052363 -6.29823e-06 0)
(0.00531697 -7.60539e-06 0)
(0.00540668 -9.09849e-06 0)
(0.0055057 -1.07681e-05 0)
(0.00561419 -1.25965e-05 0)
(0.0057322 -1.45581e-05 0)
(0.00585965 -1.66196e-05 0)
(0.00599629 -1.87408e-05 0)
(0.00614169 -2.08763e-05 0)
(0.00629524 -2.29761e-05 0)
(0.00645615 -2.49882e-05 0)
(0.00662345 -2.686e-05 0)
(0.00679599 -2.85406e-05 0)
(0.00697243 -2.99824e-05 0)
(0.00715133 -3.11435e-05 0)
(0.00733112 -3.1989e-05 0)
(0.00751013 -3.24925e-05 0)
(0.00768667 -3.26374e-05 0)
(0.00785901 -3.2417e-05 0)
(0.00802549 -3.18349e-05 0)
(0.00818451 -3.09048e-05 0)
(0.00833458 -2.9649e-05 0)
(0.00847441 -2.8098e-05 0)
(0.00860285 -2.62882e-05 0)
(0.00871902 -2.42611e-05 0)
(0.00882225 -2.20608e-05 0)
(0.00891217 -1.97331e-05 0)
(0.00898865 -1.73239e-05 0)
(0.00905181 -1.48781e-05 0)
(0.00910204 -1.24385e-05 0)
(0.00913995 -1.00456e-05 0)
(0.00916634 -7.73677e-06 0)
(0.00918219 -5.54603e-06 0)
(0.00918862 -3.5038e-06 0)
(0.00918685 -1.63667e-06 0)
(0.00917815 3.27288e-08 0)
(0.00916386 1.48587e-06 0)
(0.00914528 2.70839e-06 0)
(0.00912373 3.69014e-06 0)
(0.00910046 4.42525e-06 0)
(0.00907665 4.91215e-06 0)
(0.00905342 5.1536e-06 0)
(0.00903175 5.15676e-06 0)
(0.00901254 4.93317e-06 0)
(0.00899655 4.49872e-06 0)
(0.00898441 3.87349e-06 0)
(0.0089766 3.0815e-06 0)
(0.00897349 2.15022e-06 0)
(0.00897527 1.10998e-06 0)
(0.00898202 -6.78406e-09 0)
(0.00899367 -1.16649e-06 0)
(0.00901001 -2.33538e-06 0)
(0.00903075 -3.48058e-06 0)
(0.00905547 -4.57115e-06 0)
(0.00908367 -5.57904e-06 0)
(0.00911478 -6.47994e-06 0)
(0.0091482 -7.25396e-06 0)
(0.00918327 -7.88613e-06 0)
(0.00921936 -8.36667e-06 0)
(0.00925581 -8.69106e-06 0)
(0.00929201 -8.85994e-06 0)
(0.0093274 -8.87873e-06 0)
(0.00936147 -8.75719e-06 0)
(0.00939378 -8.50879e-06 0)
(0.00942397 -8.15019e-06 0)
(0.00945175 -7.69952e-06 0)
(0.00947693 -7.17889e-06 0)
(0.00949941 -6.60274e-06 0)
(0.00951914 -6.00694e-06 0)
(0.00953621 -5.36829e-06 0)
(0.00955061 -4.78255e-06 0)
(0.00956279 -4.09197e-06 0)
(0.00957224 -3.50009e-06 0)
(0.00958008 -2.66349e-06 0)
(0.00958569 -1.69674e-06 0)
(-8.33716e-05 0.00013595 0)
(-0.000582865 0.000378464 0)
(-0.0013114 0.000517684 0)
(-0.00208677 0.000562178 0)
(-0.0028682 0.000583773 0)
(-0.00363919 0.000586266 0)
(-0.00438667 0.000587213 0)
(-0.00511392 0.000581835 0)
(-0.00581421 0.000574653 0)
(-0.00649034 0.000564795 0)
(-0.00714031 0.000554218 0)
(-0.00776639 0.000543298 0)
(-0.0083692 0.000532965 0)
(-0.00895091 0.000523668 0)
(-0.00951318 0.000515901 0)
(-0.0100581 0.000509978 0)
(-0.0105875 0.000506145 0)
(-0.011103 0.000504527 0)
(-0.0116062 0.00050513 0)
(-0.0120978 0.000507822 0)
(-0.0125784 0.000512316 0)
(-0.0130475 0.000518152 0)
(-0.0135041 0.000524695 0)
(-0.0139461 0.000531124 0)
(-0.0143705 0.000536451 0)
(-0.0147732 0.000539536 0)
(-0.0151493 0.000539126 0)
(-0.0154927 0.000533897 0)
(-0.0157967 0.000522514 0)
(-0.0160537 0.000503688 0)
(-0.0162558 0.000476244 0)
(-0.0163947 0.000439179 0)
(-0.0164621 0.000391715 0)
(-0.0164499 0.000333343 0)
(-0.0163502 0.000263845 0)
(-0.0161561 0.000183311 0)
(-0.015861 9.21352e-05 0)
(-0.0154595 -8.99868e-06 0)
(-0.0149473 -0.000119143 0)
(-0.0143211 -0.000237116 0)
(-0.0135788 -0.000361541 0)
(-0.0127197 -0.000490881 0)
(-0.0117441 -0.000623477 0)
(-0.0106538 -0.000757585 0)
(-0.00945174 -0.000891409 0)
(-0.008142 -0.00102313 0)
(-0.00672993 -0.00115094 0)
(-0.00522194 -0.00127306 0)
(-0.00362554 -0.00138776 0)
(-0.0019492 -0.00149342 0)
(-0.000202347 -0.00158848 0)
(0.00160477 -0.00167155 0)
(0.00346114 -0.00174135 0)
(0.0053551 -0.00179678 0)
(0.00727446 -0.00183694 0)
(0.00920659 -0.00186112 0)
(0.0111386 -0.00186887 0)
(0.0130574 -0.00185997 0)
(0.01495 -0.00183446 0)
(0.0168034 -0.00179267 0)
(0.0186053 -0.00173517 0)
(0.0203435 -0.00166284 0)
(0.0220066 -0.00157679 0)
(0.0235842 -0.00147836 0)
(0.0250666 -0.00136911 0)
(0.0264454 -0.00125077 0)
(0.027713 -0.00112518 0)
(0.0288635 -0.000994271 0)
(0.0298921 -0.000860003 0)
(0.0307952 -0.000724317 0)
(0.0315707 -0.000589093 0)
(0.0322176 -0.000456106 0)
(0.0327362 -0.000326988 0)
(0.0331282 -0.000203205 0)
(0.0333959 -8.60305e-05 0)
(0.0335431 2.34646e-05 0)
(0.033574 0.000124417 0)
(0.0334942 0.000216171 0)
(0.0333094 0.00029827 0)
(0.0330263 0.000370444 0)
(0.0326521 0.000432596 0)
(0.0321945 0.000484782 0)
(0.0316613 0.000527197 0)
(0.031061 0.000560156 0)
(0.0304022 0.000584079 0)
(0.0296936 0.000599477 0)
(0.0289441 0.000606941 0)
(0.0281628 0.000607132 0)
(0.0273585 0.000600768 0)
(0.0265399 0.000588618 0)
(0.0257155 0.000571487 0)
(0.0248933 0.000550201 0)
(0.0240809 0.000525586 0)
(0.0232851 0.000498446 0)
(0.0225122 0.000469536 0)
(0.0217675 0.000439532 0)
(0.0210555 0.000409014 0)
(0.0203799 0.000378453 0)
(0.0197435 0.00034821 0)
(0.0191483 0.000318552 0)
(0.0185955 0.00028967 0)
(0.0180856 0.000261708 0)
(0.0176187 0.000234778 0)
(0.0171942 0.000208972 0)
(0.0168111 0.000184367 0)
(0.0164683 0.000161022 0)
(0.0161642 0.00013897 0)
(0.0158973 0.000118217 0)
(0.0156658 9.87359e-05 0)
(0.0154682 8.04714e-05 0)
(0.0153026 6.33382e-05 0)
(0.0151676 4.7227e-05 0)
(0.0150616 3.20079e-05 0)
(0.0149832 1.75345e-05 0)
(0.0149313 3.64844e-06 0)
(0.0149047 -9.81661e-06 0)
(0.0149026 -2.3031e-05 0)
(0.0149244 -3.61647e-05 0)
(0.0149694 -4.93822e-05 0)
(0.0150375 -6.28381e-05 0)
(0.0151283 -7.66706e-05 0)
(0.0152418 -9.09965e-05 0)
(0.015378 -0.000105905 0)
(0.015537 -0.000121451 0)
(0.015719 -0.000137653 0)
(0.015924 -0.000154487 0)
(0.0161519 -0.000171884 0)
(0.0164028 -0.000189728 0)
(0.0166763 -0.000207861 0)
(0.0169719 -0.000226076 0)
(0.0172891 -0.000244132 0)
(0.0176268 -0.000261748 0)
(0.0179839 -0.000278618 0)
(0.0183587 -0.000294414 0)
(0.0187495 -0.000308799 0)
(0.0191542 -0.000321432 0)
(0.0195702 -0.000331985 0)
(0.0199949 -0.000340148 0)
(0.0204253 -0.000345645 0)
(0.0208581 -0.00034824 0)
(0.0212899 -0.000347754 0)
(0.0217172 -0.000344067 0)
(0.0221364 -0.000337132 0)
(0.0225438 -0.000326977 0)
(0.0229359 -0.00031371 0)
(0.0233093 -0.000297522 0)
(0.0236607 -0.000278679 0)
(0.0239873 -0.000257521 0)
(0.0242866 -0.000234452 0)
(0.0245565 -0.000209926 0)
(0.0247954 -0.000184434 0)
(0.0250024 -0.000158485 0)
(0.0251771 -0.00013259 0)
(0.0253196 -0.000107245 0)
(0.0254308 -8.29116e-05 0)
(0.0255121 -6.00049e-05 0)
(0.0255654 -3.88829e-05 0)
(0.0255931 -1.98384e-05 0)
(0.0255981 -3.09483e-06 0)
(0.0255833 1.11934e-05 0)
(0.0255521 2.29387e-05 0)
(0.0255079 3.21162e-05 0)
(0.0254541 3.87571e-05 0)
(0.025394 4.29424e-05 0)
(0.0253309 4.47962e-05 0)
(0.0252676 4.44794e-05 0)
(0.0252068 4.21834e-05 0)
(0.025151 3.81248e-05 0)
(0.0251022 3.25405e-05 0)
(0.025062 2.56827e-05 0)
(0.0250317 1.78142e-05 0)
(0.0250123 9.20395e-06 0)
(0.0250044 1.21731e-07 0)
(0.0250081 -9.16654e-06 0)
(0.0250233 -1.84042e-05 0)
(0.0250497 -2.73492e-05 0)
(0.0250865 -3.57789e-05 0)
(0.0251329 -4.34955e-05 0)
(0.0251877 -5.03299e-05 0)
(0.0252497 -5.61451e-05 0)
(0.0253174 -6.08395e-05 0)
(0.0253895 -6.43479e-05 0)
(0.0254644 -6.66419e-05 0)
(0.0255408 -6.77293e-05 0)
(0.0256172 -6.7652e-05 0)
(0.0256922 -6.64826e-05 0)
(0.0257648 -6.4321e-05 0)
(0.0258338 -6.12892e-05 0)
(0.0258984 -5.75265e-05 0)
(0.0259578 -5.31837e-05 0)
(0.0260116 -4.84181e-05 0)
(0.0260594 -4.33888e-05 0)
(0.026101 -3.82427e-05 0)
(0.0261366 -3.31513e-05 0)
(0.0261661 -2.81604e-05 0)
(0.0261902 -2.35835e-05 0)
(0.026209 -1.90709e-05 0)
(0.0262234 -1.52772e-05 0)
(0.0262336 -1.14573e-05 0)
(0.0262416 -7.42116e-06 0)
(-0.000179167 0.000645207 0)
(-0.00104436 0.00125417 0)
(-0.00217065 0.00153384 0)
(-0.00331046 0.00157673 0)
(-0.0044027 0.00157407 0)
(-0.0054371 0.00153356 0)
(-0.00639812 0.00149341 0)
(-0.00729711 0.00144536 0)
(-0.00813093 0.0013975 0)
(-0.00890806 0.00134841 0)
(-0.00963021 0.00130088 0)
(-0.0103029 0.00125535 0)
(-0.0109288 0.0012129 0)
(-0.0115116 0.00117393 0)
(-0.0120538 0.00113876 0)
(-0.0125576 0.00110743 0)
(-0.0130244 0.00107978 0)
(-0.0134552 0.00105539 0)
(-0.0138502 0.00103363 0)
(-0.0142089 0.00101358 0)
(-0.01453 0.000994066 0)
(-0.0148113 0.000973666 0)
(-0.0150501 0.000950728 0)
(-0.0152425 0.000923407 0)
(-0.0153839 0.000889726 0)
(-0.0154694 0.000847643 0)
(-0.015493 0.000795133 0)
(-0.0154487 0.000730272 0)
(-0.0153301 0.000651325 0)
(-0.0151306 0.000556824 0)
(-0.014844 0.000445634 0)
(-0.0144641 0.000317009 0)
(-0.0139852 0.000170624 0)
(-0.0134023 6.59513e-06 0)
(-0.012711 -0.000174527 0)
(-0.0119078 -0.000371773 0)
(-0.01099 -0.00058378 0)
(-0.00995586 -0.000808841 0)
(-0.00880457 -0.00104494 0)
(-0.00753637 -0.00128981 0)
(-0.00615248 -0.00154098 0)
(-0.00465509 -0.0017958 0)
(-0.00304741 -0.00205151 0)
(-0.0013336 -0.0023053 0)
(0.000481227 -0.00255429 0)
(0.00239101 -0.0027956 0)
(0.0043888 -0.0030264 0)
(0.00646676 -0.00324391 0)
(0.00861626 -0.00344543 0)
(0.0108279 -0.00362841 0)
(0.0130914 -0.00379044 0)
(0.015396 -0.0039293 0)
(0.0177303 -0.00404301 0)
(0.0200823 -0.00412981 0)
(0.0224398 -0.00418828 0)
(0.0247901 -0.00421731 0)
(0.0271204 -0.00421615 0)
(0.029418 -0.00418447 0)
(0.0316702 -0.00412236 0)
(0.0338646 -0.00403034 0)
(0.0359892 -0.00390937 0)
(0.0380329 -0.00376089 0)
(0.039985 -0.0035867 0)
(0.0418358 -0.00338904 0)
(0.0435768 -0.00317045 0)
(0.0452003 -0.00293376 0)
(0.0466999 -0.002682 0)
(0.0480703 -0.00241835 0)
(0.0493076 -0.00214601 0)
(0.0504088 -0.00186821 0)
(0.0513721 -0.00158806 0)
(0.0521967 -0.00130853 0)
(0.0528828 -0.00103239 0)
(0.0534315 -0.000762184 0)
(0.0538446 -0.000500185 0)
(0.0541245 -0.000248395 0)
(0.0542743 -8.54199e-06 0)
(0.0542976 0.000217915 0)
(0.0541985 0.00042977 0)
(0.0539814 0.000626049 0)
(0.0536511 0.000805983 0)
(0.0532129 0.000968985 0)
(0.0526721 0.00111463 0)
(0.0520348 0.00124261 0)
(0.0513071 0.00135277 0)
(0.0504957 0.00144504 0)
(0.0496076 0.00151946 0)
(0.0486503 0.00157619 0)
(0.0476319 0.00161552 0)
(0.0465607 0.00163789 0)
(0.0454458 0.0016439 0)
(0.0442963 0.00163435 0)
(0.0431221 0.00161025 0)
(0.0419331 0.0015728 0)
(0.0407395 0.00152341 0)
(0.0395513 0.00146366 0)
(0.0383783 0.00139525 0)
(0.03723 0.00131995 0)
(0.036115 0.0012395 0)
(0.0350413 0.00115559 0)
(0.0340157 0.00106977 0)
(0.0330439 0.000983431 0)
(0.0321305 0.000897725 0)
(0.0312787 0.000813598 0)
(0.0304909 0.000731771 0)
(0.0297681 0.000652758 0)
(0.0291106 0.000576891 0)
(0.0285179 0.00050435 0)
(0.0279888 0.000435197 0)
(0.0275219 0.000369397 0)
(0.0271151 0.000306841 0)
(0.0267662 0.00024736 0)
(0.0264731 0.000190731 0)
(0.0262335 0.000136687 0)
(0.0260451 8.49211e-05 0)
(0.0259057 3.50954e-05 0)
(0.0258134 -1.31482e-05 0)
(0.0257663 -6.01759e-05 0)
(0.0257627 -0.000106348 0)
(0.025801 -0.000152005 0)
(0.0258799 -0.00019745 0)
(0.0259982 -0.000242936 0)
(0.0261548 -0.000288653 0)
(0.0263486 -0.000334715 0)
(0.0265786 -0.000381153 0)
(0.0268439 -0.000427908 0)
(0.0271434 -0.000474828 0)
(0.0274761 -0.000521668 0)
(0.0278406 -0.000568092 0)
(0.0282357 -0.000613682 0)
(0.0286598 -0.000657943 0)
(0.0291111 -0.000700316 0)
(0.0295874 -0.000740188 0)
(0.0300866 -0.000776913 0)
(0.030606 -0.000809822 0)
(0.0311428 -0.000838245 0)
(0.0316938 -0.000861532 0)
(0.0322556 -0.000879064 0)
(0.0328246 -0.000890284 0)
(0.0333969 -0.00089471 0)
(0.0339685 -0.000891957 0)
(0.0345351 -0.000881755 0)
(0.0350924 -0.000863968 0)
(0.0356361 -0.000838605 0)
(0.036162 -0.000805836 0)
(0.0366657 -0.000765998 0)
(0.0371433 -0.000719597 0)
(0.037591 -0.000667307 0)
(0.0380054 -0.00060996 0)
(0.0383834 -0.000548531 0)
(0.0387226 -0.000484115 0)
(0.0390211 -0.000417898 0)
(0.0392775 -0.000351123 0)
(0.0394914 -0.000285047 0)
(0.0396629 -0.000220907 0)
(0.039793 -0.00015987 0)
(0.0398833 -0.000103001 0)
(0.0399363 -5.12204e-05 0)
(0.0399549 -5.28594e-06 0)
(0.0399429 3.42335e-05 0)
(0.0399043 6.69641e-05 0)
(0.0398435 9.27277e-05 0)
(0.0397651 0.000111533 0)
(0.0396739 0.000123562 0)
(0.0395745 0.000129146 0)
(0.0394712 0.000128745 0)
(0.0393684 0.000122921 0)
(0.0392697 0.000112317 0)
(0.0391784 9.76312e-05 0)
(0.0390975 7.95959e-05 0)
(0.0390291 5.89614e-05 0)
(0.038975 3.64773e-05 0)
(0.0389364 1.28783e-05 0)
(0.0389139 -1.11293e-05 0)
(0.0389078 -3.48803e-05 0)
(0.0389177 -5.77612e-05 0)
(0.038943 -7.92206e-05 0)
(0.0389826 -9.8778e-05 0)
(0.0390351 -0.000116031 0)
(0.0390991 -0.000130662 0)
(0.0391727 -0.00014244 0)
(0.0392541 -0.000151225 0)
(0.0393412 -0.000156965 0)
(0.0394322 -0.000159694 0)
(0.039525 -0.000159527 0)
(0.0396178 -0.000156652 0)
(0.0397089 -0.00015132 0)
(0.0397968 -0.000143835 0)
(0.0398802 -0.000134543 0)
(0.0399577 -0.000123817 0)
(0.0400287 -0.000112044 0)
(0.0400924 -9.96133e-05 0)
(0.0401485 -8.69093e-05 0)
(0.0401967 -7.42893e-05 0)
(0.0402371 -6.20723e-05 0)
(0.0402701 -5.06153e-05 0)
(0.040296 -3.99725e-05 0)
(0.0403157 -3.06821e-05 0)
(0.0403296 -2.23554e-05 0)
(0.0403408 -1.55259e-05 0)
(-0.000306404 0.00126228 0)
(-0.00152004 0.00231628 0)
(-0.00287691 0.0027261 0)
(-0.0041473 0.0027388 0)
(-0.00524983 0.00267038 0)
(-0.00623381 0.00254531 0)
(-0.00708519 0.0024212 0)
(-0.0078374 0.00229178 0)
(-0.00849167 0.00216823 0)
(-0.00906443 0.0020493 0)
(-0.00956048 0.00193749 0)
(-0.00998827 0.00183254 0)
(-0.0103519 0.00173467 0)
(-0.0106559 0.00164343 0)
(-0.0109028 0.00155832 0)
(-0.0110944 0.00147858 0)
(-0.0112318 0.00140326 0)
(-0.0113151 0.00133119 0)
(-0.0113437 0.00126099 0)
(-0.0113163 0.00119103 0)
(-0.011231 0.00111946 0)
(-0.0110852 0.00104422 0)
(-0.0108759 0.000963073 0)
(-0.0105996 0.000873692 0)
(-0.0102525 0.000773693 0)
(-0.00983048 0.000660738 0)
(-0.00932939 0.00053262 0)
(-0.00874499 0.00038735 0)
(-0.00807319 0.000223242 0)
(-0.00731011 3.89903e-05 0)
(-0.00645217 -0.00016628 0)
(-0.00549625 -0.000392964 0)
(-0.0044397 -0.000640957 0)
(-0.00328044 -0.000909653 0)
(-0.00201703 -0.00119795 0)
(-0.000648663 -0.00150429 0)
(0.000824763 -0.00182667 0)
(0.00240264 -0.00216272 0)
(0.00408362 -0.00250973 0)
(0.00586563 -0.00286469 0)
(0.00774582 -0.00322438 0)
(0.00972059 -0.00358537 0)
(0.0117856 -0.00394411 0)
(0.0139356 -0.00429691 0)
(0.0161647 -0.00464006 0)
(0.0184662 -0.00496982 0)
(0.0208326 -0.00528246 0)
(0.0232557 -0.00557432 0)
(0.0257263 -0.00584185 0)
(0.0282349 -0.00608163 0)
(0.0307711 -0.00629044 0)
(0.0333239 -0.0064653 0)
(0.0358819 -0.00660353 0)
(0.0384332 -0.00670278 0)
(0.0409655 -0.0067611 0)
(0.0434665 -0.00677702 0)
(0.0459238 -0.00674957 0)
(0.0483252 -0.00667834 0)
(0.0506586 -0.00656355 0)
(0.0529127 -0.00640603 0)
(0.0550767 -0.00620725 0)
(0.0571405 -0.00596932 0)
(0.0590955 -0.00569496 0)
(0.0609337 -0.0053874 0)
(0.0626486 -0.00505035 0)
(0.0642351 -0.0046879 0)
(0.0656891 -0.00430438 0)
(0.0670079 -0.0039043 0)
(0.0681902 -0.00349218 0)
(0.0692356 -0.00307247 0)
(0.0701447 -0.00264946 0)
(0.0709192 -0.00222716 0)
(0.0715612 -0.00180928 0)
(0.0720736 -0.00139914 0)
(0.0724596 -0.000999679 0)
(0.0727229 -0.000613424 0)
(0.0728671 -0.000242508 0)
(0.0728963 0.000111305 0)
(0.0728143 0.000446591 0)
(0.0726249 0.000762226 0)
(0.0723321 0.00105733 0)
(0.0719396 0.00133125 0)
(0.071451 0.00158347 0)
(0.07087 0.00181359 0)
(0.0702003 0.00202132 0)
(0.0694455 0.0022064 0)
(0.0686095 0.00236863 0)
(0.0676962 0.0025078 0)
(0.0667099 0.00262378 0)
(0.0656551 0.00271644 0)
(0.0645368 0.00278575 0)
(0.0633606 0.00283177 0)
(0.0621325 0.0028547 0)
(0.0608593 0.00285493 0)
(0.0595485 0.00283308 0)
(0.0582082 0.00279 0)
(0.0568472 0.00272687 0)
(0.055475 0.00264514 0)
(0.0541013 0.00254657 0)
(0.0527365 0.00243317 0)
(0.0513906 0.00230718 0)
(0.0500737 0.002171 0)
(0.0487956 0.00202709 0)
(0.0475651 0.00187789 0)
(0.0463904 0.00172572 0)
(0.0452784 0.00157269 0)
(0.0442349 0.00142065 0)
(0.0432644 0.0012711 0)
(0.0423702 0.00112525 0)
(0.0415543 0.000983935 0)
(0.0408176 0.000847714 0)
(0.0401603 0.000716864 0)
(0.0395814 0.000591433 0)
(0.0390795 0.000471287 0)
(0.0386527 0.00035615 0)
(0.0382987 0.000245641 0)
(0.038015 0.00013931 0)
(0.037799 3.66655e-05 0)
(0.037648 -6.27934e-05 0)
(0.0375592 -0.000159554 0)
(0.03753 -0.000254066 0)
(0.0375579 -0.000346717 0)
(0.0376402 -0.000437812 0)
(0.0377746 -0.00052756 0)
(0.0379586 -0.000616055 0)
(0.0381899 -0.00070327 0)
(0.0384661 -0.000789048 0)
(0.0387848 -0.000873101 0)
(0.0391436 -0.000955018 0)
(0.0395401 -0.00103426 0)
(0.0399715 -0.00111019 0)
(0.0404354 -0.00118208 0)
(0.0409286 -0.00124909 0)
(0.0414483 -0.00131038 0)
(0.0419912 -0.00136503 0)
(0.042554 -0.00141213 0)
(0.0431331 -0.00145078 0)
(0.0437248 -0.00148013 0)
(0.0443251 -0.00149939 0)
(0.04493 -0.00150787 0)
(0.0455354 -0.00150502 0)
(0.0461369 -0.00149041 0)
(0.0467302 -0.00146381 0)
(0.047311 -0.00142517 0)
(0.0478749 -0.00137468 0)
(0.0484178 -0.00131274 0)
(0.0489355 -0.00124 0)
(0.0494242 -0.00115733 0)
(0.0498802 -0.00106589 0)
(0.0503004 -0.000967009 0)
(0.0506817 -0.000862255 0)
(0.0510219 -0.000753355 0)
(0.0513192 -0.000642171 0)
(0.0515722 -0.000530651 0)
(0.0517805 -0.000420771 0)
(0.051944 -0.000314481 0)
(0.0520637 -0.000213639 0)
(0.0521411 -0.000119957 0)
(0.0521783 -3.49425e-05 0)
(0.0521784 4.01482e-05 0)
(0.0521449 0.000104348 0)
(0.0520818 0.000157002 0)
(0.0519936 0.000197782 0)
(0.051885 0.000226678 0)
(0.0517612 0.000243984 0)
(0.0516269 0.000250274 0)
(0.0514872 0.000246359 0)
(0.0513467 0.000233248 0)
(0.0512097 0.000212102 0)
(0.05108 0.000184189 0)
(0.050961 0.00015084 0)
(0.0508554 0.000113411 0)
(0.0507655 7.32437e-05 0)
(0.0506927 3.16365e-05 0)
(0.0506381 -1.01821e-05 0)
(0.0506021 -5.10765e-05 0)
(0.0505845 -9.00228e-05 0)
(0.0505847 -0.000126124 0)
(0.0506018 -0.000158619 0)
(0.0506343 -0.000186898 0)
(0.0506808 -0.000210497 0)
(0.0507392 -0.000229111 0)
(0.0508076 -0.000242581 0)
(0.050884 -0.0002509 0)
(0.0509661 -0.000254195 0)
(0.051052 -0.000252722 0)
(0.0511395 -0.000246848 0)
(0.0512267 -0.000237037 0)
(0.0513121 -0.000223829 0)
(0.0513939 -0.000207821 0)
(0.0514709 -0.000189646 0)
(0.0515421 -0.000169955 0)
(0.0516065 -0.000149393 0)
(0.0516637 -0.000128589 0)
(0.0517133 -0.000108126 0)
(0.0517553 -8.85575e-05 0)
(0.0517898 -7.03378e-05 0)
(0.0518172 -5.3925e-05 0)
(0.0518381 -3.96945e-05 0)
(0.0518551 -2.80905e-05 0)
(-0.000406111 0.00247406 0)
(-0.0017229 0.00380162 0)
(-0.00299324 0.00414762 0)
(-0.00405727 0.00389807 0)
(-0.00483358 0.00362765 0)
(-0.0054329 0.00332827 0)
(-0.00585164 0.0030678 0)
(-0.00614887 0.00282514 0)
(-0.00633314 0.00260543 0)
(-0.00642981 0.0024025 0)
(-0.00644638 0.00221521 0)
(-0.0063937 0.00204105 0)
(-0.00627624 0.00187832 0)
(-0.00609854 0.00172523 0)
(-0.00586258 0.0015801 0)
(-0.00556973 0.00144125 0)
(-0.00522013 0.00130692 0)
(-0.00481332 0.00117527 0)
(-0.00434809 0.0010443 0)
(-0.0038228 0.00091191 0)
(-0.00323531 0.000775816 0)
(-0.00258322 0.000633627 0)
(-0.00186384 0.000482862 0)
(-0.00107436 0.00032101 0)
(-0.000211922 0.000145602 0)
(0.000726332 -4.57172e-05 0)
(0.00174314 -0.000255096 0)
(0.00284106 -0.000484398 0)
(0.0040224 -0.000735125 0)
(0.00528919 -0.00100835 0)
(0.00664305 -0.00130468 0)
(0.00808526 -0.00162418 0)
(0.00961661 -0.00196641 0)
(0.0112375 -0.00233039 0)
(0.0129476 -0.00271463 0)
(0.0147465 -0.00311714 0)
(0.0166328 -0.00353548 0)
(0.0186047 -0.00396678 0)
(0.0206599 -0.00440783 0)
(0.0227952 -0.00485506 0)
(0.0250072 -0.00530465 0)
(0.0272914 -0.00575254 0)
(0.0296428 -0.00619448 0)
(0.0320556 -0.00662608 0)
(0.0345233 -0.00704284 0)
(0.0370387 -0.00744021 0)
(0.0395937 -0.00781364 0)
(0.0421796 -0.00815862 0)
(0.0447869 -0.00847075 0)
(0.0474053 -0.00874577 0)
(0.050024 -0.00897968 0)
(0.0526317 -0.00916874 0)
(0.0552166 -0.0093096 0)
(0.0577666 -0.00939935 0)
(0.0602694 -0.0094356 0)
(0.0627128 -0.0094166 0)
(0.0650847 -0.00934126 0)
(0.0673736 -0.00920927 0)
(0.0695686 -0.00902117 0)
(0.0716595 -0.00877832 0)
(0.0736376 -0.00848297 0)
(0.075495 -0.0081382 0)
(0.0772257 -0.00774787 0)
(0.078825 -0.00731655 0)
(0.0802897 -0.00684936 0)
(0.0816182 -0.00635186 0)
(0.0828104 -0.00582986 0)
(0.0838677 -0.0052893 0)
(0.0847923 -0.00473603 0)
(0.0855878 -0.00417574 0)
(0.0862582 -0.00361375 0)
(0.0868085 -0.00305498 0)
(0.0872435 -0.00250384 0)
(0.0875688 -0.00196418 0)
(0.0877895 -0.0014393 0)
(0.0879108 -0.000931943 0)
(0.0879377 -0.000444338 0)
(0.0878747 2.17788e-05 0)
(0.0877263 0.00046509 0)
(0.0874962 0.000884636 0)
(0.0871878 0.00127975 0)
(0.0868043 0.00164999 0)
(0.0863484 0.00199508 0)
(0.0858223 0.00231483 0)
(0.0852282 0.00260913 0)
(0.0845679 0.00287785 0)
(0.0838431 0.00312087 0)
(0.0830553 0.00333801 0)
(0.082206 0.00352906 0)
(0.0812969 0.00369375 0)
(0.0803297 0.00383181 0)
(0.0793064 0.00394294 0)
(0.0782293 0.00402692 0)
(0.0771011 0.00408355 0)
(0.0759253 0.00411281 0)
(0.0747055 0.00411482 0)
(0.0734465 0.00408991 0)
(0.0721536 0.00403867 0)
(0.0708328 0.003962 0)
(0.0694911 0.00386108 0)
(0.068136 0.00373744 0)
(0.0667758 0.00359292 0)
(0.0654194 0.00342968 0)
(0.064076 0.00325011 0)
(0.0627549 0.00305683 0)
(0.0614655 0.00285256 0)
(0.0602168 0.00264008 0)
(0.0590175 0.00242209 0)
(0.0578754 0.00220117 0)
(0.0567974 0.00197965 0)
(0.0557893 0.00175959 0)
(0.054856 0.00154269 0)
(0.054001 0.00133031 0)
(0.0532268 0.00112345 0)
(0.0525348 0.000922755 0)
(0.0519253 0.000728577 0)
(0.051398 0.000541009 0)
(0.0509518 0.000359937 0)
(0.0505847 0.000185101 0)
(0.0502947 1.61445e-05 0)
(0.0500791 -0.000147328 0)
(0.0499349 -0.000305709 0)
(0.0498592 -0.000459343 0)
(0.0498486 -0.000608495 0)
(0.0498999 -0.000753321 0)
(0.0500097 -0.000893848 0)
(0.0501744 -0.00102996 0)
(0.0503908 -0.0011614 0)
(0.0506552 -0.00128775 0)
(0.0509641 -0.00140844 0)
(0.051314 -0.0015228 0)
(0.0517013 -0.00163001 0)
(0.0521222 -0.00172916 0)
(0.0525731 -0.00181927 0)
(0.05305 -0.0018993 0)
(0.0535491 -0.00196821 0)
(0.0540665 -0.00202495 0)
(0.0545979 -0.00206852 0)
(0.0551394 -0.002098 0)
(0.0556868 -0.00211258 0)
(0.0562358 -0.00211159 0)
(0.0567822 -0.00209453 0)
(0.0573219 -0.00206111 0)
(0.0578506 -0.00201129 0)
(0.0583643 -0.00194528 0)
(0.0588591 -0.00186355 0)
(0.0593313 -0.00176689 0)
(0.0597772 -0.00165638 0)
(0.0601936 -0.0015334 0)
(0.0605776 -0.00139962 0)
(0.0609265 -0.00125697 0)
(0.0612381 -0.00110761 0)
(0.0615107 -0.000953901 0)
(0.061743 -0.000798343 0)
(0.0619341 -0.000643512 0)
(0.062084 -0.000491995 0)
(0.0621928 -0.000346327 0)
(0.0622614 -0.000208907 0)
(0.0622915 -8.19371e-05 0)
(0.0622849 3.26493e-05 0)
(0.0622442 0.000133243 0)
(0.0621726 0.000218605 0)
(0.0620735 0.000287904 0)
(0.061951 0.000340725 0)
(0.0618091 0.000377081 0)
(0.0616523 0.000397389 0)
(0.0614852 0.000402447 0)
(0.0613121 0.000393387 0)
(0.0611375 0.000371622 0)
(0.0609654 0.000338789 0)
(0.0607997 0.000296685 0)
(0.0606435 0.000247204 0)
(0.0604998 0.000192279 0)
(0.0603709 0.000133824 0)
(0.0602585 7.36854e-05 0)
(0.0601638 1.3603e-05 0)
(0.0600876 -4.48293e-05 0)
(0.06003 -0.000100189 0)
(0.0599906 -0.000151248 0)
(0.0599687 -0.000196985 0)
(0.0599633 -0.000236597 0)
(0.0599731 -0.000269503 0)
(0.0599962 -0.000295339 0)
(0.0600311 -0.000313957 0)
(0.0600759 -0.000325408 0)
(0.0601284 -0.00032993 0)
(0.0601869 -0.000327928 0)
(0.0602494 -0.000319955 0)
(0.0603142 -0.000306682 0)
(0.0603794 -0.000288878 0)
(0.0604436 -0.000267377 0)
(0.0605055 -0.000243056 0)
(0.0605638 -0.000216804 0)
(0.0606177 -0.000189504 0)
(0.0606665 -0.000161997 0)
(0.0607096 -0.000135094 0)
(0.0607468 -0.000109522 0)
(0.0607781 -8.59e-05 0)
(0.0608038 -6.52573e-05 0)
(0.0608246 -4.64684e-05 0)
(-0.000695351 0.00309771 0)
(-0.00209571 0.00472686 0)
(-0.00255624 0.00495622 0)
(-0.00278941 0.00450928 0)
(-0.0026158 0.00403724 0)
(-0.00235493 0.00357064 0)
(-0.00194418 0.00316633 0)
(-0.00146742 0.00280755 0)
(-0.000914951 0.00248979 0)
(-0.000311306 0.00220439 0)
(0.000342813 0.00194465 0)
(0.00103951 0.00170558 0)
(0.00177777 0.00148264 0)
(0.00255552 0.00127242 0)
(0.003373 0.00107176 0)
(0.00423065 0.000877973 0)
(0.00512988 0.000688486 0)
(0.00607242 0.000500862 0)
(0.00706048 0.000312664 0)
(0.0080965 0.000121455 0)
(0.0091831 -7.52442e-05 0)
(0.010323 -0.000279935 0)
(0.0115189 -0.000495125 0)
(0.0127736 -0.000723281 0)
(0.0140895 -0.000966778 0)
(0.0154691 -0.00122783 0)
(0.0169144 -0.00150841 0)
(0.0184272 -0.00181019 0)
(0.0200091 -0.00213449 0)
(0.0216611 -0.00248216 0)
(0.0233841 -0.0028536 0)
(0.0251783 -0.00324869 0)
(0.0270436 -0.00366674 0)
(0.0289796 -0.00410656 0)
(0.0309851 -0.00456638 0)
(0.0330588 -0.00504392 0)
(0.0351984 -0.00553643 0)
(0.0374016 -0.00604065 0)
(0.0396649 -0.00655294 0)
(0.0419847 -0.00706925 0)
(0.0443563 -0.00758519 0)
(0.0467748 -0.0080961 0)
(0.0492341 -0.00859704 0)
(0.0517276 -0.00908288 0)
(0.0542479 -0.00954832 0)
(0.0567867 -0.00998797 0)
(0.0593352 -0.0103964 0)
(0.0618834 -0.0107682 0)
(0.0644209 -0.011098 0)
(0.0669366 -0.0113808 0)
(0.0694187 -0.0116118 0)
(0.0718552 -0.0117863 0)
(0.0742336 -0.0119007 0)
(0.0765416 -0.0119513 0)
(0.0787669 -0.0119357 0)
(0.0808977 -0.0118519 0)
(0.0829228 -0.0116991 0)
(0.0848323 -0.0114776 0)
(0.0866173 -0.0111885 0)
(0.0882707 -0.0108343 0)
(0.0897871 -0.0104187 0)
(0.0911631 -0.0099461 0)
(0.0923972 -0.00942224 0)
(0.0934901 -0.00885344 0)
(0.0944444 -0.00824669 0)
(0.0952641 -0.00760934 0)
(0.0959552 -0.00694888 0)
(0.0965246 -0.00627274 0)
(0.0969799 -0.00558805 0)
(0.0973296 -0.00490149 0)
(0.0975821 -0.00421915 0)
(0.0977458 -0.00354641 0)
(0.097829 -0.0028879 0)
(0.0978392 -0.0022475 0)
(0.0977835 -0.00162831 0)
(0.097668 -0.00103276 0)
(0.0974982 -0.000462622 0)
(0.0972787 8.08868e-05 0)
(0.0970133 0.000597015 0)
(0.0967051 0.00108539 0)
(0.0963566 0.00154593 0)
(0.0959693 0.00197875 0)
(0.0955445 0.00238409 0)
(0.0950829 0.00276227 0)
(0.0945846 0.00311358 0)
(0.0940497 0.00343827 0)
(0.0934777 0.00373652 0)
(0.0928681 0.00400839 0)
(0.0922202 0.00425382 0)
(0.0915332 0.00447261 0)
(0.0908064 0.00466449 0)
(0.0900391 0.00482905 0)
(0.0892309 0.00496584 0)
(0.0883814 0.00507438 0)
(0.0874907 0.00515419 0)
(0.0865593 0.00520488 0)
(0.0855882 0.00522616 0)
(0.084579 0.00521791 0)
(0.0835338 0.00518024 0)
(0.0824556 0.0051135 0)
(0.081348 0.00501836 0)
(0.0802154 0.00489581 0)