/*--------------------------------*- C++ -*----------------------------------*\
| =========                 |                                                 |
| \\      /  F ield         | OpenFOAM: The Open Source CFD Toolbox           |
|  \\    /   O peration     | Version:  4.1                                   |
|   \\  /    A nd           | Web:      www.OpenFOAM.org                      |
|    \\/     M anipulation  |                                                 |
\*---------------------------------------------------------------------------*/
FoamFile
{
    version     2.0;
    format      ascii;
    class       volVectorField;
    location    "31";
    object      U;
}
// * * * * * * * * * * * * * * * * * * * * * * * * * * * * * * * * * * * * * //

dimensions      [0 1 -1 0 0 0 0];

internalField   nonuniform List<vector> 
3264
(
(-0.000535835 0.000436117 0)
(-0.00295489 0.000764266 0)
(-0.00607439 0.00104989 0)
(-0.00936438 0.00127926 0)
(-0.0126282 0.00137854 0)
(-0.0154457 0.00130899 0)
(-0.017523 0.00108537 0)
(-0.0186516 0.000741654 0)
(-0.0187358 0.00032414 0)
(-0.0177715 -0.000120975 0)
(-0.0158307 -0.000545785 0)
(-0.0130568 -0.000907232 0)
(-0.00964657 -0.00117154 0)
(-0.00583555 -0.00132197 0)
(-0.00186727 -0.0013601 0)
(0.00203082 -0.00130294 0)
(0.00567073 -0.00117623 0)
(0.00891514 -0.00100789 0)
(0.0116822 -0.000823329 0)
(0.013943 -0.000642651 0)
(0.0157133 -0.000479602 0)
(0.0170422 -0.000341696 0)
(0.0179979 -0.000231282 0)
(0.0186549 -0.000147075 0)
(0.0190844 -8.56978e-05 0)
(0.0193483 -4.29291e-05 0)
(0.0194968 -1.45414e-05 0)
(0.0195681 3.22739e-06 0)
(0.0195901 1.3478e-05 0)
(0.0195825 1.86245e-05 0)
(0.0195585 2.04616e-05 0)
(0.0195266 2.02702e-05 0)
(0.0194923 1.89302e-05 0)
(0.0194586 1.70228e-05 0)
(0.0194274 1.49152e-05 0)
(0.0193993 1.28272e-05 0)
(0.0193747 1.08804e-05 0)
(0.0193535 9.13305e-06 0)
(0.0193355 7.60459e-06 0)
(0.0193202 6.29179e-06 0)
(0.0193074 5.17916e-06 0)
(0.0192968 4.24561e-06 0)
(0.019288 3.46831e-06 0)
(0.0192807 2.82498e-06 0)
(0.0192746 2.2951e-06 0)
(0.0192697 1.86037e-06 0)
(0.0192657 1.50485e-06 0)
(0.0192623 1.21492e-06 0)
(0.0192596 9.79058e-07 0)
(0.0192574 7.87589e-07 0)
(0.0192557 6.32465e-07 0)
(0.0192542 5.07021e-07 0)
(0.019253 4.05754e-07 0)
(0.0192521 3.24144e-07 0)
(0.0192513 2.58484e-07 0)
(0.0192507 2.05745e-07 0)
(0.0192502 1.63454e-07 0)
(0.0192498 1.29597e-07 0)
(0.0192495 1.02539e-07 0)
(0.0192492 8.09531e-08 0)
(0.019249 6.37627e-08 0)
(0.0192488 5.00987e-08 0)
(0.0192487 3.92588e-08 0)
(0.0192486 3.06768e-08 0)
(0.0192485 2.3897e-08 0)
(0.0192484 1.8553e-08 0)
(0.0192484 1.4351e-08 0)
(0.0192483 1.10554e-08 0)
(0.0192483 8.47779e-09 0)
(0.0192483 6.46781e-09 0)
(0.0192483 4.90554e-09 0)
(0.0192482 3.69557e-09 0)
(0.0192482 2.76216e-09 0)
(0.0192482 2.04524e-09 0)
(0.0192482 1.4973e-09 0)
(0.0192482 1.08083e-09 0)
(0.0192482 7.66311e-10 0)
(0.0192482 5.30548e-10 0)
(0.0192482 3.55366e-10 0)
(0.0192482 2.26565e-10 0)
(0.0192482 1.33087e-10 0)
(0.0192482 6.63495e-11 0)
(0.0192482 1.97168e-11 0)
(0.0192482 -1.19277e-11 0)
(0.0192482 -3.25143e-11 0)
(0.0192482 -4.50393e-11 0)
(0.0192482 -5.17763e-11 0)
(0.0192482 -5.44296e-11 0)
(0.0192482 -5.42734e-11 0)
(0.0192482 -5.22569e-11 0)
(0.0192482 -4.90782e-11 0)
(0.0192482 -4.52477e-11 0)
(0.0192482 -4.1122e-11 0)
(0.0192482 -3.69427e-11 0)
(0.0192482 -3.28701e-11 0)
(0.0192482 -2.90044e-11 0)
(0.0192482 -2.54152e-11 0)
(0.0192482 -2.21411e-11 0)
(0.0192482 -1.9195e-11 0)
(0.0192482 -1.65711e-11 0)
(0.0192482 -1.42512e-11 0)
(0.0192482 -1.22076e-11 0)
(0.0192482 -1.04163e-11 0)
(0.0192482 -8.85697e-12 0)
(0.0192482 -7.50838e-12 0)
(0.0192482 -6.35105e-12 0)
(0.0192482 -5.35951e-12 0)
(0.0192482 -4.51241e-12 0)
(0.0192482 -3.79221e-12 0)
(0.0192482 -3.18169e-12 0)
(0.0192482 -2.66868e-12 0)
(0.0192482 -2.2358e-12 0)
(0.0192482 -1.86833e-12 0)
(0.0192482 -1.55759e-12 0)
(0.0192482 -1.293e-12 0)
(0.0192482 -1.07241e-12 0)
(0.0192482 -8.88185e-13 0)
(0.0192482 -7.36958e-13 0)
(0.0192482 -6.13108e-13 0)
(0.0192482 -5.10439e-13 0)
(0.0192482 -4.21326e-13 0)
(0.0192482 -3.44925e-13 0)
(0.0192482 -2.83025e-13 0)
(0.0192482 -2.34574e-13 0)
(0.0192482 -1.97155e-13 0)
(0.0192482 -1.68592e-13 0)
(0.0192482 -1.39981e-13 0)
(0.0192482 -1.11228e-13 0)
(0.0192482 -8.2604e-14 0)
(0.0192482 -5.86813e-14 0)
(0.0192482 -4.42521e-14 0)
(0.0192482 -3.70938e-14 0)
(0.0192482 -3.64247e-14 0)
(0.0192482 -3.55048e-14 0)
(0.0192482 -3.02797e-14 0)
(0.0192482 -2.17456e-14 0)
(0.0192482 -1.01724e-14 0)
(0.0192482 -1.82372e-15 0)
(0.0192482 6.45752e-16 0)
(0.0192482 -3.69702e-15 0)
(0.0192482 -1.34145e-14 0)
(0.0192482 -2.15672e-14 0)
(0.0192482 -2.36274e-14 0)
(0.0192482 -1.95151e-14 0)
(0.0192482 -9.06034e-15 0)
(0.0192482 1.87483e-15 0)
(0.0192482 1.28445e-14 0)
(0.0192482 1.90435e-14 0)
(0.0192482 1.97305e-14 0)
(0.0192482 1.58059e-14 0)
(0.0192482 7.5881e-15 0)
(0.0192482 -6.78626e-16 0)
(0.0192482 -8.87695e-15 0)
(0.0192482 -1.57087e-14 0)
(0.0192482 -1.99448e-14 0)
(0.0192482 -2.08827e-14 0)
(0.0192482 -1.76317e-14 0)
(0.0192482 -1.00982e-14 0)
(0.0192482 -9.67889e-16 0)
(0.0192482 7.26233e-15 0)
(0.0192482 1.21045e-14 0)
(0.0192482 1.28546e-14 0)
(0.0192482 1.03231e-14 0)
(0.0192482 4.65932e-15 0)
(0.0192482 -6.92495e-16 0)
(0.0192482 -5.37779e-15 0)
(0.0192482 -6.40301e-15 0)
(0.0192482 -4.09488e-15 0)
(0.0192482 1.00859e-15 0)
(0.0192482 6.02853e-15 0)
(0.0192482 1.00886e-14 0)
(0.0192482 1.27269e-14 0)
(0.0192482 1.45832e-14 0)
(0.0192482 1.61898e-14 0)
(0.0192482 1.65882e-14 0)
(0.0192482 1.75922e-14 0)
(0.0192482 1.86431e-14 0)
(0.0192482 2.0794e-14 0)
(0.0192482 2.34592e-14 0)
(0.0192482 2.84077e-14 0)
(0.0192482 3.64103e-14 0)
(0.0192482 4.80101e-14 0)
(0.0192482 6.5167e-14 0)
(0.0192482 8.69907e-14 0)
(0.0192482 1.1356e-13 0)
(0.0192482 1.45273e-13 0)
(0.0192482 1.82941e-13 0)
(0.0192482 2.29229e-13 0)
(0.0192482 2.87436e-13 0)
(0.0192482 3.65107e-13 0)
(0.0192482 4.66933e-13 0)
(0.0192482 6.02227e-13 0)
(0.0192482 7.80652e-13 0)
(0.0192482 9.32725e-13 0)
(0.0192482 1.25593e-12 0)
(0.0192482 9.57483e-13 0)
(0.0192482 7.52693e-13 0)
(0.0192482 7.04932e-13 0)
(0.0192482 -1.45296e-11 0)
(0.0192482 -1.02462e-11 0)
(-0.00110893 0.00295805 0)
(-0.00578415 0.00477707 0)
(-0.0107821 0.00520522 0)
(-0.01517 0.00512626 0)
(-0.0187016 0.00455109 0)
(-0.021083 0.00348403 0)
(-0.022201 0.00205205 0)
(-0.0220255 0.000384834 0)
(-0.020588 -0.00138602 0)
(-0.01797 -0.00313841 0)
(-0.0142837 -0.00474802 0)
(-0.00968725 -0.00609495 0)
(-0.00437319 -0.00707623 0)
(0.00142158 -0.00762626 0)
(0.00743532 -0.00773161 0)
(0.0133977 -0.00743173 0)
(0.0190598 -0.0068067 0)
(0.0242177 -0.00595905 0)
(0.0287302 -0.00499652 0)
(0.0325255 -0.00401774 0)
(0.0355973 -0.00310125 0)
(0.0379929 -0.00229926 0)
(0.0397959 -0.00163707 0)
(0.0411078 -0.00111748 0)
(0.0420318 -0.000727936 0)
(0.0426625 -0.000447763 0)
(0.0430794 -0.000254021 0)
(0.0433454 -0.000125226 0)
(0.0435082 -4.3222e-05 0)
(0.043602 6.29185e-06 0)
(0.0436511 3.40068e-05 0)
(0.0436719 4.75937e-05 0)
(0.0436755 5.23722e-05 0)
(0.0436692 5.19226e-05 0)
(0.0436575 4.85862e-05 0)
(0.0436435 4.3849e-05 0)
(0.0436289 3.86216e-05 0)
(0.0436147 3.34369e-05 0)
(0.0436015 2.85855e-05 0)
(0.0435896 2.42069e-05 0)
(0.0435791 2.03491e-05 0)
(0.0435699 1.70073e-05 0)
(0.0435619 1.41479e-05 0)
(0.0435551 1.17238e-05 0)
(0.0435493 9.68355e-06 0)
(0.0435444 7.97593e-06 0)
(0.0435402 6.55326e-06 0)
(0.0435368 5.37247e-06 0)
(0.0435339 4.39556e-06 0)
(0.0435315 3.58957e-06 0)
(0.0435295 2.92621e-06 0)
(0.0435278 2.38144e-06 0)
(0.0435264 1.93496e-06 0)
(0.0435253 1.56972e-06 0)
(0.0435244 1.27146e-06 0)
(0.0435236 1.02831e-06 0)
(0.043523 8.30398e-07 0)
(0.0435225 6.69568e-07 0)
(0.0435221 5.39071e-07 0)
(0.0435217 4.33346e-07 0)
(0.0435214 3.47818e-07 0)
(0.0435212 2.78732e-07 0)
(0.043521 2.2301e-07 0)
(0.0435209 1.78134e-07 0)
(0.0435208 1.42048e-07 0)
(0.0435207 1.13074e-07 0)
(0.0435206 8.98466e-08 0)
(0.0435205 7.12553e-08 0)
(0.0435205 5.63988e-08 0)
(0.0435204 4.45468e-08 0)
(0.0435204 3.51078e-08 0)
(0.0435204 2.76041e-08 0)
(0.0435204 2.16498e-08 0)
(0.0435203 1.69343e-08 0)
(0.0435203 1.32074e-08 0)
(0.0435203 1.02682e-08 0)
(0.0435203 7.95552e-09 0)
(0.0435203 6.14024e-09 0)
(0.0435203 4.71912e-09 0)
(0.0435203 3.6097e-09 0)
(0.0435203 2.74625e-09 0)
(0.0435203 2.07648e-09 0)
(0.0435203 1.55886e-09 0)
(0.0435203 1.16045e-09 0)
(0.0435203 8.55192e-10 0)
(0.0435203 6.22517e-10 0)
(0.0435203 4.46191e-10 0)
(0.0435203 3.13463e-10 0)
(0.0435203 2.14337e-10 0)
(0.0435203 1.41007e-10 0)
(0.0435203 8.73852e-11 0)
(0.0435203 4.87325e-11 0)
(0.0435203 2.13711e-11 0)
(0.0435203 2.45957e-12 0)
(0.0435203 -1.0184e-11 0)
(0.0435203 -1.8224e-11 0)
(0.0435203 -2.29286e-11 0)
(0.0435203 -2.5256e-11 0)
(0.0435203 -2.59288e-11 0)
(0.0435203 -2.54804e-11 0)
(0.0435203 -2.42994e-11 0)
(0.0435203 -2.26619e-11 0)
(0.0435203 -2.0766e-11 0)
(0.0435203 -1.87556e-11 0)
(0.0435203 -1.67422e-11 0)
(0.0435203 -1.48075e-11 0)
(0.0435203 -1.30038e-11 0)
(0.0435203 -1.13578e-11 0)
(0.0435203 -9.86876e-12 0)
(0.0435203 -8.5296e-12 0)
(0.0435203 -7.33462e-12 0)
(0.0435203 -6.2783e-12 0)
(0.0435203 -5.35624e-12 0)
(0.0435203 -4.56083e-12 0)
(0.0435203 -3.87874e-12 0)
(0.0435203 -3.29699e-12 0)
(0.0435203 -2.79802e-12 0)
(0.0435203 -2.36891e-12 0)
(0.0435203 -2.0008e-12 0)
(0.0435203 -1.68848e-12 0)
(0.0435203 -1.42479e-12 0)
(0.0435203 -1.20609e-12 0)
(0.0435203 -1.0244e-12 0)
(0.0435203 -8.7565e-13 0)
(0.0435203 -7.51479e-13 0)
(0.0435203 -6.41402e-13 0)
(0.0435203 -5.39691e-13 0)
(0.0435203 -4.41322e-13 0)
(0.0435203 -3.4917e-13 0)
(0.0435203 -2.66495e-13 0)
(0.0435203 -1.97291e-13 0)
(0.0435203 -1.46597e-13 0)
(0.0435203 -1.13152e-13 0)
(0.0435203 -9.25802e-14 0)
(0.0435203 -7.57435e-14 0)
(0.0435203 -5.40211e-14 0)
(0.0435203 -2.90522e-14 0)
(0.0435203 -4.29552e-15 0)
(0.0435203 1.03044e-14 0)
(0.0435203 9.01411e-15 0)
(0.0435203 -5.51644e-15 0)
(0.0435203 -2.97564e-14 0)
(0.0435203 -5.60069e-14 0)
(0.0435203 -7.8146e-14 0)
(0.0435203 -8.82444e-14 0)
(0.0435203 -8.5241e-14 0)
(0.0435203 -7.09266e-14 0)
(0.0435203 -4.95577e-14 0)
(0.0435203 -2.79211e-14 0)
(0.0435203 -9.3955e-15 0)
(0.0435203 4.41286e-15 0)
(0.0435203 9.03872e-15 0)
(0.0435203 4.74188e-15 0)
(0.0435203 -8.97177e-15 0)
(0.0435203 -2.58443e-14 0)
(0.0435203 -4.13722e-14 0)
(0.0435203 -5.10716e-14 0)
(0.0435203 -5.0757e-14 0)
(0.0435203 -4.20541e-14 0)
(0.0435203 -2.84722e-14 0)
(0.0435203 -1.62711e-14 0)
(0.0435203 -9.77657e-15 0)
(0.0435203 -8.03683e-15 0)
(0.0435203 -1.06632e-14 0)
(0.0435203 -1.33011e-14 0)
(0.0435203 -1.31078e-14 0)
(0.0435203 -6.29975e-15 0)
(0.0435203 7.55994e-15 0)
(0.0435203 2.6028e-14 0)
(0.0435203 4.44329e-14 0)
(0.0435203 5.7406e-14 0)
(0.0435203 6.45255e-14 0)
(0.0435203 6.60316e-14 0)
(0.0435203 6.71692e-14 0)
(0.0435203 6.9427e-14 0)
(0.0435203 7.76382e-14 0)
(0.0435203 9.34217e-14 0)
(0.0435203 1.15429e-13 0)
(0.0435203 1.44696e-13 0)
(0.0435203 1.78114e-13 0)
(0.0435203 2.17584e-13 0)
(0.0435203 2.63134e-13 0)
(0.0435203 3.16903e-13 0)
(0.0435203 3.86515e-13 0)
(0.0435203 4.7502e-13 0)
(0.0435203 5.91974e-13 0)
(0.0435203 7.44228e-13 0)
(0.0435203 9.39441e-13 0)
(0.0435203 1.19081e-12 0)
(0.0435203 1.51394e-12 0)
(0.0435203 1.92888e-12 0)
(0.0435203 2.4717e-12 0)
(0.0435203 3.1699e-12 0)
(0.0435203 4.03366e-12 0)
(0.0435203 5.33136e-12 0)
(0.0435203 6.15332e-12 0)
(0.0435203 8.46076e-12 0)
(0.0435203 9.18726e-12 0)
(0.0435203 1.95326e-12 0)
(0.0435203 6.34436e-12 0)
(-0.00113952 0.00645177 0)
(-0.00603564 0.0096445 0)
(-0.0108666 0.00965631 0)
(-0.0146394 0.00868122 0)
(-0.0172262 0.00702192 0)
(-0.0185479 0.00476393 0)
(-0.0186787 0.00211906 0)
(-0.0177116 -0.000758637 0)
(-0.0157421 -0.00371929 0)
(-0.0128716 -0.00662314 0)
(-0.00918546 -0.00931868 0)
(-0.00477799 -0.0116412 0)
(0.000255543 -0.0134273 0)
(0.00579017 -0.0145415 0)
(0.0116646 -0.0149113 0)
(0.0176708 -0.014549 0)
(0.0235701 -0.0135533 0)
(0.0291246 -0.0120873 0)
(0.0341366 -0.0103442 0)
(0.0384781 -0.00851269 0)
(0.0420988 -0.00674984 0)
(0.045017 -0.00516626 0)
(0.0472986 -0.00382315 0)
(0.0490353 -0.00273879 0)
(0.0503267 -0.00190019 0)
(0.0512677 -0.00127581 0)
(0.0519413 -0.000826406 0)
(0.0524163 -0.000512779 0)
(0.0527467 -0.000300182 0)
(0.0529737 -0.000160195 0)
(0.0531276 -7.08737e-05 0)
(0.0532305 -1.60006e-05 0)
(0.0532981 1.60086e-05 0)
(0.0533415 3.32034e-05 0)
(0.0533684 4.1051e-05 0)
(0.0533842 4.31911e-05 0)
(0.0533927 4.20022e-05 0)
(0.0533964 3.90087e-05 0)
(0.053397 3.51666e-05 0)
(0.0533957 3.10586e-05 0)
(0.0533934 2.70259e-05 0)
(0.0533905 2.32561e-05 0)
(0.0533874 1.984e-05 0)
(0.0533843 1.68098e-05 0)
(0.0533814 1.41628e-05 0)
(0.0533787 1.1877e-05 0)
(0.0533762 9.92058e-06 0)
(0.053374 8.25784e-06 0)
(0.0533721 6.85284e-06 0)
(0.0533705 5.67133e-06 0)
(0.053369 4.68183e-06 0)
(0.0533678 3.85609e-06 0)
(0.0533667 3.16918e-06 0)
(0.0533658 2.59938e-06 0)
(0.0533651 2.12794e-06 0)
(0.0533645 1.7388e-06 0)
(0.0533639 1.41831e-06 0)
(0.0533635 1.15491e-06 0)
(0.0533631 9.38848e-07 0)
(0.0533628 7.61954e-07 0)
(0.0533626 6.17389e-07 0)
(0.0533623 4.9945e-07 0)
(0.0533622 4.03397e-07 0)
(0.053362 3.25297e-07 0)
(0.0533619 2.61899e-07 0)
(0.0533618 2.10516e-07 0)
(0.0533617 1.68939e-07 0)
(0.0533617 1.35348e-07 0)
(0.0533616 1.08253e-07 0)
(0.0533616 8.6432e-08 0)
(0.0533616 6.88863e-08 0)
(0.0533615 5.4801e-08 0)
(0.0533615 4.35121e-08 0)
(0.0533615 3.44795e-08 0)
(0.0533615 2.72646e-08 0)
(0.0533615 2.15116e-08 0)
(0.0533615 1.69327e-08 0)
(0.0533614 1.32952e-08 0)
(0.0533614 1.04111e-08 0)
(0.0533614 8.12922e-09 0)
(0.0533614 6.32759e-09 0)
(0.0533614 4.90841e-09 0)
(0.0533614 3.79321e-09 0)
(0.0533614 2.91916e-09 0)
(0.0533614 2.23606e-09 0)
(0.0533614 1.70381e-09 0)
(0.0533614 1.29045e-09 0)
(0.0533614 9.70586e-10 0)
(0.0533614 7.24044e-10 0)
(0.0533614 5.34866e-10 0)
(0.0533614 3.90443e-10 0)
(0.0533614 2.80832e-10 0)
(0.0533614 1.98198e-10 0)
(0.0533614 1.36372e-10 0)
(0.0533614 9.05265e-11 0)
(0.0533614 5.68856e-11 0)
(0.0533614 3.25263e-11 0)
(0.0533614 1.5181e-11 0)
(0.0533614 3.10197e-12 0)
(0.0533614 -5.05463e-12 0)
(0.0533614 -1.03084e-11 0)
(0.0533614 -1.3438e-11 0)
(0.0533614 -1.50266e-11 0)
(0.0533614 -1.55236e-11 0)
(0.0533614 -1.52822e-11 0)
(0.0533614 -1.45659e-11 0)
(0.0533614 -1.3577e-11 0)
(0.0533614 -1.24479e-11 0)
(0.0533614 -1.1259e-11 0)
(0.0533614 -1.00634e-11 0)
(0.0533614 -8.89555e-12 0)
(0.0533614 -7.79355e-12 0)
(0.0533614 -6.78607e-12 0)
(0.0533614 -5.88809e-12 0)
(0.0533614 -5.10389e-12 0)
(0.0533614 -4.41615e-12 0)
(0.0533614 -3.8127e-12 0)
(0.0533614 -3.27703e-12 0)
(0.0533614 -2.80213e-12 0)
(0.0533614 -2.38837e-12 0)
(0.0533614 -2.04159e-12 0)
(0.0533614 -1.75612e-12 0)
(0.0533614 -1.52328e-12 0)
(0.0533614 -1.32772e-12 0)
(0.0533614 -1.15537e-12 0)
(0.0533614 -9.96958e-13 0)
(0.0533614 -8.46198e-13 0)
(0.0533614 -7.03795e-13 0)
(0.0533614 -5.71982e-13 0)
(0.0533614 -4.5434e-13 0)
(0.0533614 -3.5312e-13 0)
(0.0533614 -2.68046e-13 0)
(0.0533614 -1.97373e-13 0)
(0.0533614 -1.37566e-13 0)
(0.0533614 -8.65382e-14 0)
(0.0533614 -4.40346e-14 0)
(0.0533614 -8.92463e-15 0)
(0.0533614 1.67039e-14 0)
(0.0533614 3.18529e-14 0)
(0.0533614 3.49156e-14 0)
(0.0533614 2.32584e-14 0)
(0.0533614 -1.36028e-15 0)
(0.0533614 -3.87283e-14 0)
(0.0533614 -8.27831e-14 0)
(0.0533614 -1.27389e-13 0)
(0.0533614 -1.64643e-13 0)
(0.0533614 -1.8523e-13 0)
(0.0533614 -1.8438e-13 0)
(0.0533614 -1.61307e-13 0)
(0.0533614 -1.21112e-13 0)
(0.0533614 -7.51686e-14 0)
(0.0533614 -3.2784e-14 0)
(0.0533614 -5.00108e-15 0)
(0.0533614 5.3993e-15 0)
(0.0533614 -1.80313e-15 0)
(0.0533614 -1.94448e-14 0)
(0.0533614 -4.19769e-14 0)
(0.0533614 -6.30348e-14 0)
(0.0533614 -7.71732e-14 0)
(0.0533614 -8.14381e-14 0)
(0.0533614 -7.88837e-14 0)
(0.0533614 -7.20294e-14 0)
(0.0533614 -6.31483e-14 0)
(0.0533614 -5.10987e-14 0)
(0.0533614 -3.45674e-14 0)
(0.0533614 -1.18767e-14 0)
(0.0533614 1.34577e-14 0)
(0.0533614 4.12487e-14 0)
(0.0533614 6.62429e-14 0)
(0.0533614 8.61065e-14 0)
(0.0533614 9.81744e-14 0)
(0.0533614 1.01193e-13 0)
(0.0533614 9.98544e-14 0)
(0.0533614 9.88373e-14 0)
(0.0533614 1.04517e-13 0)
(0.0533614 1.23616e-13 0)
(0.0533614 1.58165e-13 0)
(0.0533614 2.08602e-13 0)
(0.0533614 2.71669e-13 0)
(0.0533614 3.42441e-13 0)
(0.0533614 4.18655e-13 0)
(0.0533614 4.97599e-13 0)
(0.0533614 5.83121e-13 0)
(0.0533614 6.83106e-13 0)
(0.0533614 8.09606e-13 0)
(0.0533614 9.80247e-13 0)
(0.0533614 1.20904e-12 0)
(0.0533614 1.51549e-12 0)
(0.0533614 1.91714e-12 0)
(0.0533614 2.43711e-12 0)
(0.0533614 3.10585e-12 0)
(0.0533614 3.97087e-12 0)
(0.0533614 5.07927e-12 0)
(0.0533614 6.57766e-12 0)
(0.0533614 8.54279e-12 0)
(0.0533614 1.09806e-11 0)
(0.0533614 1.57485e-11 0)
(0.0533614 1.7222e-11 0)
(0.0533614 3.2693e-11 0)
(0.0533614 3.96363e-11 0)
(-0.000851143 0.00930665 0)
(-0.00498452 0.0137463 0)
(-0.00868561 0.0131742 0)
(-0.0110769 0.0112327 0)
(-0.0121917 0.00855056 0)
(-0.012185 0.00531777 0)
(-0.0112226 0.00176601 0)
(-0.00947659 -0.00195592 0)
(-0.00707064 -0.00571348 0)
(-0.0041273 -0.00938153 0)
(-0.000723201 -0.0128266 0)
(0.00308214 -0.0158919 0)
(0.0072649 -0.0184028 0)
(0.0118106 -0.0201791 0)
(0.0166933 -0.021068 0)
(0.021836 -0.0209834 0)
(0.0270856 -0.0199465 0)
(0.0322182 -0.0181063 0)
(0.0369881 -0.01572 0)
(0.0411943 -0.0130914 0)
(0.0447284 -0.010497 0)
(0.0475799 -0.00813624 0)
(0.0498097 -0.00611844 0)
(0.0515137 -0.00447754 0)
(0.0527947 -0.00319623 0)
(0.0537468 -0.00222895 0)
(0.0544482 -0.00151939 0)
(0.0549616 -0.00101162 0)
(0.0553353 -0.00065608 0)
(0.0556058 -0.000412024 0)
(0.0558007 -0.000247633 0)
(0.0559403 -0.000139024 0)
(0.0560397 -6.88025e-05 0)
(0.0561101 -2.45931e-05 0)
(0.0561594 2.24566e-06 0)
(0.0561936 1.76573e-05 0)
(0.0562169 2.56792e-05 0)
(0.0562326 2.90238e-05 0)
(0.0562428 2.94941e-05 0)
(0.0562492 2.82757e-05 0)
(0.0562529 2.6138e-05 0)
(0.0562548 2.3572e-05 0)
(0.0562555 2.08835e-05 0)
(0.0562555 1.82567e-05 0)
(0.0562549 1.57957e-05 0)
(0.0562541 1.35537e-05 0)
(0.0562531 1.15512e-05 0)
(0.0562521 9.78854e-06 0)
(0.056251 8.2546e-06 0)
(0.0562501 6.93163e-06 0)
(0.0562492 5.79899e-06 0)
(0.0562484 4.83523e-06 0)
(0.0562477 4.01946e-06 0)
(0.0562471 3.33207e-06 0)
(0.0562465 2.75517e-06 0)
(0.056246 2.27272e-06 0)
(0.0562456 1.87055e-06 0)
(0.0562453 1.53628e-06 0)
(0.056245 1.25919e-06 0)
(0.0562447 1.03009e-06 0)
(0.0562445 8.41094e-07 0)
(0.0562443 6.85535e-07 0)
(0.0562442 5.57762e-07 0)
(0.0562441 4.53023e-07 0)
(0.056244 3.67328e-07 0)
(0.0562439 2.97346e-07 0)
(0.0562438 2.40296e-07 0)
(0.0562438 1.93871e-07 0)
(0.0562437 1.56156e-07 0)
(0.0562437 1.25568e-07 0)
(0.0562436 1.00802e-07 0)
(0.0562436 8.07821e-08 0)
(0.0562436 6.46255e-08 0)
(0.0562436 5.1608e-08 0)
(0.0562436 4.11369e-08 0)
(0.0562436 3.27282e-08 0)
(0.0562436 2.5987e-08 0)
(0.0562435 2.05919e-08 0)
(0.0562435 1.62817e-08 0)
(0.0562435 1.28445e-08 0)
(0.0562435 1.01085e-08 0)
(0.0562435 7.93482e-09 0)
(0.0562435 6.21144e-09 0)
(0.0562435 4.84794e-09 0)
(0.0562435 3.77157e-09 0)
(0.0562435 2.92387e-09 0)
(0.0562435 2.25791e-09 0)
(0.0562435 1.73611e-09 0)
(0.0562435 1.32844e-09 0)
(0.0562435 1.01093e-09 0)
(0.0562435 7.64483e-10 0)
(0.0562435 5.73927e-10 0)
(0.0562435 4.27197e-10 0)
(0.0562435 3.14728e-10 0)
(0.0562435 2.28955e-10 0)
(0.0562435 1.63918e-10 0)
(0.0562435 1.14933e-10 0)
(0.0562435 7.83308e-11 0)
(0.0562435 5.12395e-11 0)
(0.0562435 3.14212e-11 0)
(0.0562435 1.71387e-11 0)
(0.0562435 7.05135e-12 0)
(0.0562435 1.20765e-13 0)
(0.0562435 -4.46188e-12 0)
(0.0562435 -7.32606e-12 0)
(0.0562435 -8.95814e-12 0)
(0.0562435 -9.72185e-12 0)
(0.0562435 -9.88047e-12 0)
(0.0562435 -9.62741e-12 0)
(0.0562435 -9.10193e-12 0)
(0.0562435 -8.41308e-12 0)
(0.0562435 -7.64541e-12 0)
(0.0562435 -6.86724e-12 0)
(0.0562435 -6.12109e-12 0)
(0.0562435 -5.42551e-12 0)
(0.0562435 -4.78421e-12 0)
(0.0562435 -4.19213e-12 0)
(0.0562435 -3.65025e-12 0)
(0.0562435 -3.16213e-12 0)
(0.0562435 -2.73517e-12 0)
(0.0562435 -2.3712e-12 0)
(0.0562435 -2.06739e-12 0)
(0.0562435 -1.81426e-12 0)
(0.0562435 -1.59608e-12 0)
(0.0562435 -1.4014e-12 0)
(0.0562435 -1.22046e-12 0)
(0.0562435 -1.05062e-12 0)
(0.0562435 -8.92615e-13 0)
(0.0562435 -7.46514e-13 0)
(0.0562435 -6.14316e-13 0)
(0.0562435 -4.92935e-13 0)
(0.0562435 -3.83438e-13 0)
(0.0562435 -2.84348e-13 0)
(0.0562435 -1.98179e-13 0)
(0.0562435 -1.25402e-13 0)
(0.0562435 -6.7384e-14 0)
(0.0562435 -2.20689e-14 0)
(0.0562435 9.91445e-15 0)
(0.0562435 3.26598e-14 0)
(0.0562435 4.40322e-14 0)
(0.0562435 4.16082e-14 0)
(0.0562435 2.1022e-14 0)
(0.0562435 -1.96088e-14 0)
(0.0562435 -7.70987e-14 0)
(0.0562435 -1.44749e-13 0)
(0.0562435 -2.07059e-13 0)
(0.0562435 -2.51255e-13 0)
(0.0562435 -2.66394e-13 0)
(0.0562435 -2.47608e-13 0)
(0.0562435 -2.0194e-13 0)
(0.0562435 -1.40352e-13 0)
(0.0562435 -7.95145e-14 0)
(0.0562435 -3.3916e-14 0)
(0.0562435 -1.22743e-14 0)
(0.0562435 -1.51168e-14 0)
(0.0562435 -3.45437e-14 0)
(0.0562435 -6.33271e-14 0)
(0.0562435 -9.09767e-14 0)
(0.0562435 -1.09806e-13 0)
(0.0562435 -1.18782e-13 0)
(0.0562435 -1.15532e-13 0)
(0.0562435 -1.03933e-13 0)
(0.0562435 -8.50764e-14 0)
(0.0562435 -5.95624e-14 0)
(0.0562435 -2.92345e-14 0)
(0.0562435 5.13925e-15 0)
(0.0562435 3.94961e-14 0)
(0.0562435 6.95753e-14 0)
(0.0562435 9.37172e-14 0)
(0.0562435 1.07801e-13 0)
(0.0562435 1.14225e-13 0)
(0.0562435 1.12646e-13 0)
(0.0562435 1.09044e-13 0)
(0.0562435 1.12936e-13 0)
(0.0562435 1.30818e-13 0)
(0.0562435 1.67404e-13 0)
(0.0562435 2.24053e-13 0)
(0.0562435 2.98153e-13 0)
(0.0562435 3.86734e-13 0)
(0.0562435 4.83263e-13 0)
(0.0562435 5.81649e-13 0)
(0.0562435 6.81506e-13 0)
(0.0562435 7.8669e-13 0)
(0.0562435 9.10531e-13 0)
(0.0562435 1.06842e-12 0)
(0.0562435 1.27931e-12 0)
(0.0562435 1.5635e-12 0)
(0.0562435 1.94281e-12 0)
(0.0562435 2.44151e-12 0)
(0.0562435 3.08549e-12 0)
(0.0562435 3.91214e-12 0)
(0.0562435 4.97025e-12 0)
(0.0562435 6.35415e-12 0)
(0.0562435 8.1814e-12 0)
(0.0562435 1.06123e-11 0)
(0.0562435 1.41071e-11 0)
(0.0562435 1.89846e-11 0)
(0.0562435 2.40197e-11 0)
(0.0562435 4.49276e-11 0)
(0.0562435 4.96602e-11 0)
(-0.000198771 0.0115936 0)
(-0.00257571 0.0168598 0)
(-0.00441534 0.0155842 0)
(-0.00486918 0.0125397 0)
(-0.00422265 0.00892823 0)
(-0.00272652 0.00492173 0)
(-0.000575021 0.000741287 0)
(0.00203971 -0.00349123 0)
(0.00498608 -0.00767001 0)
(0.00813626 -0.0116981 0)
(0.0114093 -0.0154804 0)
(0.014753 -0.0189034 0)
(0.018161 -0.0218316 0)
(0.0216643 -0.0241022 0)
(0.0253182 -0.025535 0)
(0.0291657 -0.0259548 0)
(0.0331891 -0.0252431 0)
(0.0372716 -0.0234133 0)
(0.0412045 -0.0206715 0)
(0.0447544 -0.0173939 0)
(0.0477499 -0.0140102 0)
(0.0501309 -0.01087 0)
(0.0519389 -0.00817668 0)
(0.0532721 -0.00599737 0)
(0.0542417 -0.00430826 0)
(0.0549456 -0.0030406 0)
(0.0554595 -0.00211234 0)
(0.0558378 -0.0014456 0)
(0.0561182 -0.00097414 0)
(0.056327 -0.000645147 0)
(0.0564829 -0.000418276 0)
(0.056599 -0.000263597 0)
(0.0566853 -0.000159378 0)
(0.056749 -9.01e-05 0)
(0.0567958 -4.48112e-05 0)
(0.0568298 -1.58599e-05 0)
(0.0568544 2.06058e-06 0)
(0.0568718 1.26079e-05 0)
(0.056884 1.82895e-05 0)
(0.0568924 2.08149e-05 0)
(0.0568981 2.13433e-05 0)
(0.0569017 2.06549e-05 0)
(0.0569039 1.92703e-05 0)
(0.0569051 1.75317e-05 0)
(0.0569056 1.56606e-05 0)
(0.0569057 1.37957e-05 0)
(0.0569055 1.20206e-05 0)
(0.0569051 1.03815e-05 0)
(0.0569046 8.90035e-06 0)
(0.0569041 7.5834e-06 0)
(0.0569036 6.42699e-06 0)
(0.0569031 5.42165e-06 0)
(0.0569026 4.55479e-06 0)
(0.0569022 3.81247e-06 0)
(0.0569018 3.18052e-06 0)
(0.0569014 2.64526e-06 0)
(0.0569011 2.19392e-06 0)
(0.0569009 1.81485e-06 0)
(0.0569006 1.49763e-06 0)
(0.0569005 1.23303e-06 0)
(0.0569003 1.01297e-06 0)
(0.0569002 8.30469e-07 0)
(0.0569 6.79495e-07 0)
(0.0568999 5.54905e-07 0)
(0.0568999 4.52321e-07 0)
(0.0568998 3.68037e-07 0)
(0.0568997 2.9893e-07 0)
(0.0568997 2.42379e-07 0)
(0.0568996 1.9619e-07 0)
(0.0568996 1.58533e-07 0)
(0.0568996 1.27887e-07 0)
(0.0568996 1.02991e-07 0)
(0.0568995 8.28e-08 0)
(0.0568995 6.64527e-08 0)
(0.0568995 5.32396e-08 0)
(0.0568995 4.25777e-08 0)
(0.0568995 3.39888e-08 0)
(0.0568995 2.70814e-08 0)
(0.0568995 2.15359e-08 0)
(0.0568995 1.70913e-08 0)
(0.0568995 1.35353e-08 0)
(0.0568995 1.06953e-08 0)
(0.0568995 8.43148e-09 0)
(0.0568995 6.63029e-09 0)
(0.0568995 5.20006e-09 0)
(0.0568995 4.06673e-09 0)
(0.0568995 3.17061e-09 0)
(0.0568995 2.46366e-09 0)
(0.0568995 1.90729e-09 0)
(0.0568995 1.47057e-09 0)
(0.0568995 1.12871e-09 0)
(0.0568995 8.61909e-10 0)
(0.0568995 6.54358e-10 0)
(0.0568995 4.93464e-10 0)
(0.0568995 3.69216e-10 0)
(0.0568995 2.73676e-10 0)
(0.0568995 2.00566e-10 0)
(0.0568995 1.44927e-10 0)
(0.0568995 1.02852e-10 0)
(0.0568995 7.12711e-11 0)
(0.0568995 4.77807e-11 0)
(0.0568995 3.05008e-11 0)
(0.0568995 1.79641e-11 0)
(0.0568995 9.02107e-12 0)
(0.0568995 2.77884e-12 0)
(0.0568995 -1.45436e-12 0)
(0.0568995 -4.20749e-12 0)
(0.0568995 -5.87551e-12 0)
(0.0568995 -6.75946e-12 0)
(0.0568995 -7.08793e-12 0)
(0.0568995 -7.03724e-12 0)
(0.0568995 -6.74559e-12 0)
(0.0568995 -6.31302e-12 0)
(0.0568995 -5.81119e-12 0)
(0.0568995 -5.27974e-12 0)
(0.0568995 -4.74428e-12 0)
(0.0568995 -4.22111e-12 0)
(0.0568995 -3.7241e-12 0)
(0.0568995 -3.26994e-12 0)
(0.0568995 -2.86649e-12 0)
(0.0568995 -2.51851e-12 0)
(0.0568995 -2.22199e-12 0)
(0.0568995 -1.96792e-12 0)
(0.0568995 -1.74381e-12 0)
(0.0568995 -1.53968e-12 0)
(0.0568995 -1.35263e-12 0)
(0.0568995 -1.17909e-12 0)
(0.0568995 -1.02016e-12 0)
(0.0568995 -8.7211e-13 0)
(0.0568995 -7.33573e-13 0)
(0.0568995 -6.02894e-13 0)
(0.0568995 -4.78056e-13 0)
(0.0568995 -3.62433e-13 0)
(0.0568995 -2.59511e-13 0)
(0.0568995 -1.72175e-13 0)
(0.0568995 -1.02509e-13 0)
(0.0568995 -4.78621e-14 0)
(0.0568995 -5.4689e-15 0)
(0.0568995 2.89255e-14 0)
(0.0568995 5.33998e-14 0)
(0.0568995 6.21744e-14 0)
(0.0568995 4.88206e-14 0)
(0.0568995 8.008e-15 0)
(0.0568995 -5.69436e-14 0)
(0.0568995 -1.36933e-13 0)
(0.0568995 -2.16748e-13 0)
(0.0568995 -2.76629e-13 0)
(0.0568995 -3.04199e-13 0)
(0.0568995 -2.92728e-13 0)
(0.0568995 -2.49398e-13 0)
(0.0568995 -1.90226e-13 0)
(0.0568995 -1.31974e-13 0)
(0.0568995 -8.79993e-14 0)
(0.0568995 -6.67206e-14 0)
(0.0568995 -6.63688e-14 0)
(0.0568995 -8.24137e-14 0)
(0.0568995 -1.05333e-13 0)
(0.0568995 -1.24836e-13 0)
(0.0568995 -1.365e-13 0)
(0.0568995 -1.3876e-13 0)
(0.0568995 -1.29379e-13 0)
(0.0568995 -1.1144e-13 0)
(0.0568995 -8.38627e-14 0)
(0.0568995 -5.09513e-14 0)
(0.0568995 -1.47335e-14 0)
(0.0568995 2.2177e-14 0)
(0.0568995 5.61191e-14 0)
(0.0568995 8.50249e-14 0)
(0.0568995 1.03755e-13 0)
(0.0568995 1.11217e-13 0)
(0.0568995 1.09773e-13 0)
(0.0568995 1.04538e-13 0)
(0.0568995 1.05033e-13 0)
(0.0568995 1.15943e-13 0)
(0.0568995 1.47011e-13 0)
(0.0568995 2.00295e-13 0)
(0.0568995 2.75891e-13 0)
(0.0568995 3.72355e-13 0)
(0.0568995 4.79583e-13 0)
(0.0568995 5.92056e-13 0)
(0.0568995 7.04314e-13 0)
(0.0568995 8.15434e-13 0)
(0.0568995 9.34548e-13 0)
(0.0568995 1.0719e-12 0)
(0.0568995 1.24814e-12 0)
(0.0568995 1.48305e-12 0)
(0.0568995 1.79973e-12 0)
(0.0568995 2.22292e-12 0)
(0.0568995 2.77328e-12 0)
(0.0568995 3.47893e-12 0)
(0.0568995 4.3749e-12 0)
(0.0568995 5.52027e-12 0)
(0.0568995 7.00634e-12 0)
(0.0568995 8.93894e-12 0)
(0.0568995 1.16023e-11 0)
(0.0568995 1.50837e-11 0)
(0.0568995 2.01837e-11 0)
(0.0568995 2.64986e-11 0)
(0.0568995 4.15294e-11 0)
(0.0568995 4.66326e-11 0)
(0.000308114 0.0115426 0)
(0.000116479 0.0176168 0)
(0.00110286 0.0157336 0)
(0.00294378 0.0118725 0)
(0.00562993 0.00766533 0)
(0.00875043 0.00325143 0)
(0.0121839 -0.00120923 0)
(0.0157477 -0.00561251 0)
(0.0193282 -0.00987858 0)
(0.0228215 -0.0139355 0)
(0.0261608 -0.017719 0)
(0.0293075 -0.0211553 0)
(0.0322564 -0.0241532 0)
(0.0350329 -0.0265932 0)
(0.0376897 -0.0283194 0)
(0.0402912 -0.0291376 0)
(0.0428857 -0.0288403 0)
(0.045468 -0.0272854 0)
(0.0479574 -0.0245227 0)
(0.0502157 -0.0208786 0)
(0.0521094 -0.0168814 0)
(0.0535712 -0.0130545 0)
(0.0546192 -0.00974438 0)
(0.0553303 -0.007084 0)
(0.0557997 -0.00505268 0)
(0.0561112 -0.00355446 0)
(0.0563255 -0.00247431 0)
(0.0564808 -0.00170697 0)
(0.0565993 -0.00116711 0)
(0.0566928 -0.000789896 0)
(0.0567678 -0.000527804 0)
(0.0568281 -0.000346682 0)
(0.0568762 -0.000222273 0)
(0.0569142 -0.000137456 0)
(0.0569438 -8.01961e-05 0)
(0.0569665 -4.20503e-05 0)
(0.0569837 -1.71085e-05 0)
(0.0569964 -1.23835e-06 0)
(0.0570058 8.44469e-06 0)
(0.0570125 1.39507e-05 0)
(0.0570172 1.66767e-05 0)
(0.0570204 1.75903e-05 0)
(0.0570225 1.73579e-05 0)
(0.0570238 1.64354e-05 0)
(0.0570245 1.51308e-05 0)
(0.0570248 1.36494e-05 0)
(0.0570249 1.21248e-05 0)
(0.0570248 1.0641e-05 0)
(0.0570246 9.24793e-06 0)
(0.0570243 7.97257e-06 0)
(0.057024 6.82639e-06 0)
(0.0570237 5.81091e-06 0)
(0.0570234 4.92136e-06 0)
(0.0570231 4.1493e-06 0)
(0.0570228 3.48438e-06 0)
(0.0570226 2.91546e-06 0)
(0.0570224 2.43143e-06 0)
(0.0570222 2.02166e-06 0)
(0.057022 1.67627e-06 0)
(0.0570219 1.38629e-06 0)
(0.0570218 1.14369e-06 0)
(0.0570217 9.41384e-07 0)
(0.0570216 7.7318e-07 0)
(0.0570215 6.33714e-07 0)
(0.0570215 5.18372e-07 0)
(0.0570214 4.2321e-07 0)
(0.0570214 3.44876e-07 0)
(0.0570214 2.80532e-07 0)
(0.0570213 2.27788e-07 0)
(0.0570213 1.84639e-07 0)
(0.0570213 1.49405e-07 0)
(0.0570213 1.20688e-07 0)
(0.0570213 9.73246e-08 0)
(0.0570212 7.83498e-08 0)
(0.0570212 6.29659e-08 0)
(0.0570212 5.05146e-08 0)
(0.0570212 4.04538e-08 0)
(0.0570212 3.23384e-08 0)
(0.0570212 2.58031e-08 0)
(0.0570212 2.05493e-08 0)
(0.0570212 1.63328e-08 0)
(0.0570212 1.29549e-08 0)
(0.0570212 1.02535e-08 0)
(0.0570212 8.097e-09 0)
(0.0570212 6.3788e-09 0)
(0.0570212 5.01243e-09 0)
(0.0570212 3.92805e-09 0)
(0.0570212 3.06926e-09 0)
(0.0570212 2.39063e-09 0)
(0.0570212 1.85561e-09 0)
(0.0570212 1.43485e-09 0)
(0.0570212 1.10482e-09 0)
(0.0570212 8.46682e-10 0)
(0.0570212 6.45387e-10 0)
(0.0570212 4.88941e-10 0)
(0.0570212 3.67798e-10 0)
(0.0570212 2.74372e-10 0)
(0.0570212 2.02649e-10 0)
(0.0570212 1.47868e-10 0)
(0.0570212 1.06271e-10 0)
(0.0570212 7.49026e-11 0)
(0.0570212 5.14363e-11 0)
(0.0570212 3.40489e-11 0)
(0.0570212 2.13107e-11 0)
(0.0570212 1.21079e-11 0)
(0.0570212 5.57591e-12 0)
(0.0570212 1.05105e-12 0)
(0.0570212 -1.9776e-12 0)
(0.0570212 -3.901e-12 0)
(0.0570212 -5.02299e-12 0)
(0.0570212 -5.5755e-12 0)
(0.0570212 -5.73632e-12 0)