/*--------------------------------*- C++ -*----------------------------------*\
| =========                 |                                                 |
| \\      /  F ield         | OpenFOAM: The Open Source CFD Toolbox           |
|  \\    /   O peration     | Version:  4.1                                   |
|   \\  /    A nd           | Web:      www.OpenFOAM.org                      |
|    \\/     M anipulation  |                                                 |
\*---------------------------------------------------------------------------*/
FoamFile
{
    version     2.0;
    format      ascii;
    class       volScalarField;
    location    "4440";
    object      p;
}
// * * * * * * * * * * * * * * * * * * * * * * * * * * * * * * * * * * * * * //

dimensions      [1 -1 -2 0 0 0 0];

internalField   nonuniform List<scalar> 
1275
(
0.712254
0.712206
0.712199
0.712156
0.712144
0.7121
0.712084
0.712034
0.712018
0.71195
0.712266
0.712214
0.712208
0.712163
0.712153
0.712109
0.712096
0.71205
0.712042
0.711996
0.712283
0.712229
0.712224
0.712177
0.712168
0.712124
0.712112
0.712069
0.712057
0.712019
0.712303
0.712247
0.712243
0.712196
0.712188
0.712145
0.712136
0.712096
0.712089
0.712055
0.712322
0.712266
0.712263
0.712216
0.712208
0.712167
0.712157
0.712121
0.712111
0.712081
0.712338
0.712283
0.712279
0.712234
0.712226
0.712188
0.712178
0.712144
0.712134
0.712106
0.712346
0.712294
0.712289
0.712247
0.712238
0.712202
0.712191
0.712159
0.712148
0.712121
0.712349
0.7123
0.712295
0.712255
0.712245
0.71221
0.712199
0.712168
0.712156
0.71213
0.712343
0.7123
0.712294
0.712256
0.712246
0.712211
0.712199
0.712169
0.712156
0.71213
0.712073
0.712079
0.712085
0.712091
0.712097
0.712104
0.712111
0.712118
0.712125
0.712133
0.712141
0.712149
0.712158
0.712166
0.712176
0.712186
0.712196
0.712206
0.712218
0.712229
0.712241
0.712254
0.712268
0.712282
0.712297
0.712312
0.712329
0.712346
0.712365
0.712384
0.712405
0.712427
0.71245
0.712474
0.7125
0.712527
0.712555
0.712585
0.712616
0.712649
0.712682
0.712717
0.712752
0.712789
0.712825
0.712862
0.712898
0.712934
0.712969
0.713003
0.713035
0.713065
0.713094
0.71312
0.713144
0.713166
0.713185
0.713201
0.713216
0.713228
0.713238
0.713246
0.713252
0.713258
0.713262
0.713265
0.713268
0.71327
0.713271
0.713273
0.713274
0.713275
0.713276
0.713278
0.713279
0.713281
0.713283
0.713285
0.711926
0.711977
0.71197
0.711992
0.711987
0.711996
0.711992
0.711995
0.711993
0.711994
0.711993
0.711993
0.711992
0.711993
0.711992
0.711993
0.711993
0.711994
0.711994
0.711995
0.711996
0.711997
0.711998
0.712
0.712001
0.712003
0.712005
0.712007
0.71201
0.712012
0.712015
0.712018
0.712021
0.712024
0.712028
0.712031
0.712035
0.712039
0.712043
0.712048
0.712053
0.712058
0.712063
0.712069
0.712073
0.712081
0.712086
0.712093
0.712099
0.712106
0.712113
0.712121
0.712129
0.712137
0.712146
0.712155
0.712164
0.712174
0.712184
0.712195
0.712206
0.712218
0.71223
0.712243
0.712257
0.712271
0.712286
0.712301
0.712317
0.712334
0.712352
0.712371
0.712391
0.712411
0.712433
0.712455
0.712479
0.712504
0.712529
0.712556
0.712584
0.712613
0.712642
0.712673
0.712704
0.712736
0.712768
0.712801
0.712833
0.712865
0.712897
0.712928
0.712958
0.712987
0.713014
0.713039
0.713063
0.713084
0.713104
0.713121
0.713137
0.713151
0.713163
0.713173
0.713182
0.713189
0.713196
0.713201
0.713206
0.71321
0.713213
0.713217
0.71322
0.713223
0.713226
0.713229
0.713232
0.713235
0.713238
0.713242
0.713246
0.71325
0.713254
0.711999
0.712003
0.711998
0.712003
0.711996
0.711999
0.711994
0.711996
0.711993
0.711993
0.711992
0.711992
0.711991
0.711992
0.711991
0.711992
0.711992
0.711993
0.711994
0.711995
0.711996
0.711998
0.711999
0.712001
0.712003
0.712005
0.712007
0.712009
0.712012
0.712015
0.712018
0.712021
0.712025
0.712028
0.712032
0.712036
0.71204
0.712045
0.71205
0.712055
0.71206
0.712066
0.712071
0.712077
0.712084
0.71209
0.712097
0.712105
0.712112
0.71212
0.712129
0.712138
0.712147
0.712156
0.712166
0.712177
0.712188
0.712199
0.712211
0.712224
0.712237
0.71225
0.712265
0.71228
0.712295
0.712311
0.712329
0.712346
0.712365
0.712384
0.712404
0.712425
0.712447
0.712469
0.712493
0.712517
0.712542
0.712568
0.712594
0.712622
0.712649
0.712678
0.712706
0.712735
0.712764
0.712794
0.712823
0.712851
0.712879
0.712906
0.712932
0.712958
0.712981
0.713004
0.713025
0.713044
0.713062
0.713078
0.713093
0.713106
0.713117
0.713127
0.713136
0.713144
0.713151
0.713157
0.713163
0.713168
0.713173
0.713178
0.713182
0.713187
0.713191
0.713195
0.7132
0.713204
0.713209
0.713213
0.713218
0.713223
0.713228
0.713233
0.713238
0.712008
0.712008
0.712002
0.712007
0.712003
0.712006
0.712002
0.712003
0.712
0.712
0.711997
0.711997
0.711996
0.711996
0.711995
0.711995
0.711995
0.711995
0.711996
0.711997
0.711998
0.711999
0.712001
0.712003
0.712005
0.712007
0.712009
0.712012
0.712015
0.712018
0.712021
0.712025
0.712029
0.712033
0.712037
0.712042
0.712047
0.712052
0.712057
0.712063
0.712069
0.712076
0.712082
0.712089
0.712096
0.712104
0.712112
0.71212
0.712129
0.712138
0.712148
0.712158
0.712169
0.71218
0.712191
0.712203
0.712216
0.712229
0.712243
0.712257
0.712272
0.712288
0.712304
0.712321
0.712339
0.712357
0.712377
0.712396
0.712417
0.712438
0.71246
0.712483
0.712506
0.71253
0.712555
0.71258
0.712606
0.712632
0.712658
0.712685
0.712712
0.712738
0.712765
0.712792
0.712818
0.712844
0.712869
0.712893
0.712917
0.712939
0.712961
0.712981
0.713
0.713017
0.713034
0.713048
0.713062
0.713074
0.713085
0.713095
0.713104
0.713113
0.71312
0.713128
0.713134
0.713141
0.713147
0.713152
0.713158
0.713163
0.713169
0.713174
0.713179
0.713184
0.713189
0.713194
0.713199
0.713204
0.71321
0.713215
0.71322
0.713226
0.713231
0.712053
0.71204
0.712035
0.712029
0.712023
0.712019
0.712013
0.71201
0.712006
0.712004
0.712001
0.711999
0.711997
0.711996
0.711995
0.711995
0.711995
0.711996
0.711996
0.711997
0.711998
0.712
0.712002
0.712004
0.712006
0.712009
0.712012
0.712015
0.712018
0.712022
0.712026
0.71203
0.712034
0.712039
0.712044
0.712049
0.712055
0.71206
0.712066
0.712073
0.71208
0.712087
0.712094
0.712102
0.71211
0.712119
0.712128
0.712138
0.712148
0.712158
0.712169
0.71218
0.712192
0.712205
0.712218
0.712232
0.712246
0.712261
0.712276
0.712293
0.712309
0.712327
0.712345
0.712364
0.712384
0.712404
0.712425
0.712446
0.712468
0.712491
0.712514
0.712538
0.712562
0.712587
0.712612
0.712637
0.712662
0.712688
0.712713
0.712739
0.712764
0.712789
0.712813
0.712837
0.71286
0.712883
0.712904
0.712925
0.712945
0.712963
0.71298
0.712996
0.713012
0.713026
0.713039
0.713051
0.713062
0.713072
0.713082
0.713091
0.713099
0.713107
0.713115
0.713121
0.713128
0.713134
0.71314
0.713146
0.713152
0.713158
0.713163
0.713169
0.713175
0.71318
0.713186
0.713191
0.713197
0.713202
0.713208
0.713213
0.713219
0.713224
0.71323
0.712073
0.712055
0.712048
0.712039
0.712033
0.712026
0.712021
0.712016
0.712012
0.712008
0.712005
0.712002
0.712
0.711998
0.711997
0.711997
0.711996
0.711996
0.711997
0.711998
0.711999
0.712001
0.712003
0.712005
0.712008
0.712011
0.712014
0.712017
0.712021
0.712025
0.712029
0.712034
0.712039
0.712044
0.712049
0.712055
0.712061
0.712068
0.712074
0.712081
0.712089
0.712097
0.712105
0.712114
0.712123
0.712132
0.712142
0.712153
0.712164
0.712175
0.712187
0.7122
0.712213
0.712227
0.712241
0.712256
0.712271
0.712288
0.712305
0.712322
0.71234
0.712359
0.712379
0.712399
0.712419
0.712441
0.712463
0.712485
0.712508
0.712532
0.712555
0.71258
0.712604
0.712629
0.712653
0.712678
0.712703
0.712727
0.712751
0.712775
0.712798
0.712821
0.712843
0.712865
0.712885
0.712905
0.712923
0.712941
0.712958
0.712974
0.712989
0.713004
0.713017
0.713029
0.713041
0.713052
0.713062
0.713071
0.71308
0.713088
0.713096
0.713104
0.713111
0.713118
0.713125
0.713132
0.713138
0.713145
0.713151
0.713157
0.713163
0.713169
0.713174
0.71318
0.713185
0.713191
0.713196
0.713202
0.713207
0.713213
0.713218
0.713224
0.71323
0.712098
0.712078
0.71207
0.712056
0.712048
0.712038
0.712031
0.712023
0.712018
0.712012
0.712008
0.712004
0.712002
0.711999
0.711998
0.711997
0.711997
0.711997
0.711997
0.711998
0.712
0.712001
0.712004
0.712006
0.712009
0.712012
0.712016
0.712019
0.712023
0.712028
0.712032
0.712037
0.712043
0.712048
0.712054
0.71206
0.712067
0.712074
0.712081
0.712089
0.712097
0.712105
0.712114
0.712123
0.712133
0.712143
0.712154
0.712165
0.712177
0.712189
0.712202
0.712215
0.712229
0.712244
0.712259
0.712275
0.712291
0.712308
0.712326
0.712344
0.712363
0.712383
0.712403
0.712424
0.712445
0.712467
0.71249
0.712513
0.712536
0.712559
0.712583
0.712607
0.712631
0.712655
0.712679
0.712703
0.712726
0.71275
0.712772
0.712795
0.712817
0.712838
0.712858
0.712878
0.712897
0.712915
0.712932
0.712948
0.712964
0.712978
0.712992
0.713005
0.713017
0.713028
0.713039
0.71305
0.71306
0.713069
0.713078
0.713087
0.713096
0.713103
0.713111
0.713118
0.713125
0.713132
0.713138
0.713144
0.71315
0.713156
0.713162
0.713168
0.713174
0.713179
0.713185
0.713191
0.713196
0.713202
0.713207
0.713213
0.713218
0.713224
0.71323
0.71211
0.712089
0.712079
0.712062
0.712054
0.712041
0.712034
0.712025
0.712019
0.712013
0.712009
0.712004
0.712001
0.711999
0.711997
0.711996
0.711996
0.711996
0.711996
0.711997
0.711999
0.712001
0.712003
0.712006
0.712009
0.712012
0.712016
0.71202
0.712024
0.712029
0.712033
0.712039
0.712044
0.71205
0.712056
0.712063
0.712069
0.712077
0.712084
0.712092
0.7121
0.712109
0.712118
0.712128
0.712138
0.712149
0.71216
0.712171
0.712183
0.712196
0.712209
0.712223
0.712237
0.712252
0.712268
0.712284
0.712301
0.712318
0.712336
0.712355
0.712374
0.712394
0.712414
0.712435
0.712456
0.712478
0.712501
0.712523
0.712546
0.71257
0.712593
0.712617
0.71264
0.712664
0.712687
0.712711
0.712734
0.712756
0.712778
0.7128
0.71282
0.712841
0.71286
0.712879
0.712897
0.712914
0.712931
0.712946
0.712961
0.712976
0.71299
0.713003
0.713015
0.713027
0.713038
0.713049
0.713059
0.713069
0.713077
0.713086
0.713094
0.713102
0.71311
0.713117
0.713124
0.713131
0.713137
0.713144
0.71315
0.713156
0.713162
0.713168
0.713174
0.713179
0.713185
0.71319
0.713196
0.713202
0.713207
0.713213
0.713218
0.713224
0.71323
0.712118
0.712096
0.712085
0.712068
0.712059
0.712046
0.712038
0.712028
0.712021
0.712014
0.71201
0.712005
0.712002
0.711999
0.711998
0.711996
0.711996
0.711996
0.711996
0.711997
0.711999
0.712001
0.712003
0.712006
0.712009
0.712012
0.712016
0.71202
0.712025
0.712029
0.712034
0.71204
0.712045
0.712051
0.712057
0.712064
0.712071
0.712078
0.712086
0.712094
0.712102
0.712111
0.71212
0.71213
0.71214
0.712151
0.712162
0.712174
0.712186
0.712199
0.712212
0.712226
0.712241
0.712256
0.712271
0.712288
0.712304
0.712322
0.71234
0.712359
0.712378
0.712398
0.712418
0.712439
0.712461
0.712482
0.712505
0.712527
0.71255
0.712573
0.712596
0.71262
0.712643
0.712666
0.712689
0.712712
0.712734
0.712756
0.712778
0.712799
0.71282
0.71284
0.712859
0.712878
0.712896
0.712914
0.71293
0.712946
0.712961
0.712976
0.712989
0.713002
0.713014
0.713026
0.713037
0.713048
0.713058
0.713067
0.713077
0.713085
0.713094
0.713102
0.713109
0.713117
0.713124
0.713131
0.713137
0.713143
0.71315
0.713156
0.713162
0.713168
0.713173
0.713179
0.713185
0.71319
0.713196
0.713202
0.713207
0.713213
0.713218
0.713224
0.71323
0.712118
0.712096
0.712085
0.712068
0.712057
0.712044
0.712036
0.712026
0.712019
0.712012
0.712008
0.712003
0.712
0.711997
0.711995
0.711994
0.711994
0.711994
0.711994
0.711995
0.711997
0.711999
0.712001
0.712004
0.712007
0.712011
0.712015
0.712019
0.712023
0.712028
0.712033
0.712038
0.712044
0.71205
0.712056
0.712062
0.712069
0.712077
0.712084
0.712092
0.712101
0.71211
0.712119
0.712129
0.712139
0.71215
0.712161
0.712172
0.712184
0.712197
0.71221
0.712224
0.712239
0.712254
0.712269
0.712285
0.712302
0.712319
0.712337
0.712356
0.712375
0.712395
0.712415
0.712436
0.712457
0.712479
0.712501
0.712523
0.712546
0.712569
0.712592
0.712615
0.712639
0.712662
0.712685
0.712708
0.71273
0.712753
0.712774
0.712796
0.712817
0.712837
0.712856
0.712875
0.712893
0.712911
0.712927
0.712943
0.712959
0.712973
0.712987
0.713
0.713013
0.713025
0.713036
0.713047
0.713057
0.713067
0.713076
0.713085
0.713093
0.713101
0.713109
0.713116
0.713123
0.71313
0.713137
0.713143
0.713149
0.713155
0.713161
0.713167
0.713173
0.713179
0.713184
0.71319
0.713196
0.713201
0.713207
0.713212
0.713218
0.713224
0.71323
)
;

boundaryField
{
    inlet
    {
        type            zeroGradient;
    }
    outlet
    {
        type            fixedValue;
        value           nonuniform 0();
    }
    walls
    {
        type            zeroGradient;
    }
    symwall
    {
        type            empty;
    }
    procBoundary2to0
    {
        type            processor;
        value           nonuniform List<scalar> 
133
(
0.71207
0.712075
0.712081
0.712086
0.712092
0.712098
0.712105
0.712111
0.712118
0.712125
0.712132
0.71214
0.712148
0.712156
0.712164
0.712173
0.712182
0.712192
0.712202
0.712212
0.712223
0.712234
0.712246
0.712259
0.712272
0.712286
0.7123
0.712316
0.712332
0.71235
0.712368
0.712388
0.712409
0.712432
0.712456
0.712482
0.712509
0.712538
0.712569
0.712602
0.712636
0.712672
0.71271
0.712748
0.712788
0.712829
0.71287
0.712911
0.712952
0.712993
0.713032
0.713069
0.713105
0.713139
0.71317
0.713198
0.713224
0.713247
0.713266
0.713283
0.713298
0.713309
0.713319
0.713326
0.713332
0.713335
0.713338
0.713339
0.71334
0.71334
0.713339
0.713338
0.713337
0.713336
0.713336
0.713335
0.713335
0.712245
0.712203
0.712195
0.712154
0.712142
0.712098
0.712083
0.712032
0.712022
0.71195
0.711967
0.711993
0.711987
0.711993
0.711987
0.71199
0.711986
0.711988
0.711986
0.711988
0.711987
0.711988
0.711988
0.711989
0.711989
0.71199
0.71199
0.711991
0.711992
0.711993
0.711994
0.711995
0.711997
0.711998
0.712
0.712002
0.712004
0.712006
0.712008
0.71201
0.712013
0.712016
0.712019
0.712022
0.712025
0.712029
0.712032
0.712036
0.71204
0.712044
0.712049
0.712053
0.712058
0.712063
0.712068
0.712068
)
;
    }
    procBoundary2to1
    {
        type            processor;
        value           uniform 0.713335;
    }
    procBoundary2to3
    {
        type            processor;
        value           nonuniform List<scalar> 10(0.713288 0.713258 0.713243 0.713237 0.713236 0.713235 0.713236 0.713236 0.713236 0.713235);
    }
}


// ************************************************************************* //
