/*--------------------------------*- C++ -*----------------------------------*\
| =========                 |                                                 |
| \\      /  F ield         | OpenFOAM: The Open Source CFD Toolbox           |
|  \\    /   O peration     | Version:  4.1                                   |
|   \\  /    A nd           | Web:      www.OpenFOAM.org                      |
|    \\/     M anipulation  |                                                 |
\*---------------------------------------------------------------------------*/
FoamFile
{
    version     2.0;
    format      ascii;
    class       volVectorField;
    location    "3750";
    object      U;
}
// * * * * * * * * * * * * * * * * * * * * * * * * * * * * * * * * * * * * * //

dimensions      [0 1 -1 0 0 0 0];

internalField   nonuniform List<vector> 
1275
(
(0.07641 -5.70368e-05 0)
(0.0766115 -0.000118174 0)
(0.0764735 -0.000216668 0)
(0.0767148 -0.000275258 0)
(0.0767025 -0.000328464 0)
(0.0770167 -0.000420691 0)
(0.0771238 -0.000440556 0)
(0.0775469 -0.000603719 0)
(0.0777891 -0.000627864 0)
(0.0784339 -0.000855862 0)
(0.112436 -3.97755e-05 0)
(0.112616 -0.000130084 0)
(0.112484 -0.000258874 0)
(0.112671 -0.000342125 0)
(0.112622 -0.000452437 0)
(0.112852 -0.000552802 0)
(0.112874 -0.000666411 0)
(0.113169 -0.000802455 0)
(0.113243 -0.000981724 0)
(0.113588 -0.00113047 0)
(0.136447 -3.24105e-05 0)
(0.136616 -0.00014961 0)
(0.136478 -0.000281993 0)
(0.13663 -0.000401429 0)
(0.136549 -0.000520182 0)
(0.136712 -0.000663014 0)
(0.136681 -0.000778049 0)
(0.136871 -0.000963768 0)
(0.136876 -0.00110043 0)
(0.137074 -0.00131707 0)
(0.148452 -2.81049e-05 0)
(0.148612 -0.000150537 0)
(0.14846 -0.000281691 0)
(0.148579 -0.000406741 0)
(0.14846 -0.000538779 0)
(0.148557 -0.000678399 0)
(0.14846 -0.000822797 0)
(0.148547 -0.000985856 0)
(0.148447 -0.0011661 0)
(0.148509 -0.00134039 0)
(0.148453 -2.29675e-05 0)
(0.148607 -0.000147308 0)
(0.148438 -0.000259114 0)
(0.148526 -0.000392789 0)
(0.148369 -0.000508006 0)
(0.14841 -0.000657539 0)
(0.148255 -0.000779768 0)
(0.148255 -0.000949612 0)
(0.148086 -0.00108692 0)
(0.148035 -0.00126175 0)
(0.136449 -1.57297e-05 0)
(0.136598 -0.000124455 0)
(0.136407 -0.000208909 0)
(0.136467 -0.000329184 0)
(0.136271 -0.000426743 0)
(0.136259 -0.000557645 0)
(0.136045 -0.000668356 0)
(0.135968 -0.000809756 0)
(0.135716 -0.000936426 0)
(0.135569 -0.00107865 0)
(0.112439 -3.37576e-06 0)
(0.112585 -9.52298e-05 0)
(0.112369 -0.000141449 0)
(0.112403 -0.000248266 0)
(0.11217 -0.000312159 0)
(0.112114 -0.000426343 0)
(0.111849 -0.000499982 0)
(0.111707 -0.000618286 0)
(0.111391 -0.000699409 0)
(0.111161 -0.000811078 0)
(0.0764173 2.71647e-05 0)
(0.076563 -3.48836e-05 0)
(0.076316 -3.75421e-05 0)
(0.0763444 -0.000115057 0)
(0.0760815 -0.000145828 0)
(0.0760101 -0.000224857 0)
(0.0757051 -0.000266271 0)
(0.0755344 -0.000343294 0)
(0.0751663 -0.00039009 0)
(0.074895 -0.000460278 0)
(0.0284323 6.12595e-05 0)
(0.0286344 3.07074e-05 0)
(0.028483 4.73778e-05 0)
(0.0286012 2.89093e-06 0)
(0.0284146 -6.80925e-08 0)
(0.0284234 -3.75568e-05 0)
(0.0281863 -4.11147e-05 0)
(0.0280928 -7.10779e-05 0)
(0.0277984 -7.25106e-05 0)
(0.0276144 -9.37397e-05 0)
(0.076079 -0.00237294 0)
(0.0768422 -0.00246312 0)
(0.0776159 -0.00256297 0)
(0.0784028 -0.00266763 0)
(0.0792016 -0.00278125 0)
(0.0800163 -0.00290193 0)
(0.0808461 -0.00303203 0)
(0.0816941 -0.0031709 0)
(0.0825602 -0.00332017 0)
(0.083447 -0.00347979 0)
(0.084355 -0.00365105 0)
(0.0852862 -0.00383429 0)
(0.0862413 -0.00403061 0)
(0.0872219 -0.00424057 0)
(0.0882289 -0.0044652 0)
(0.0892636 -0.00470517 0)
(0.0903267 -0.00496146 0)
(0.091419 -0.00523482 0)
(0.0925411 -0.00552615 0)
(0.0936931 -0.00583618 0)
(0.0948752 -0.00616572 0)
(0.0960871 -0.00651542 0)
(0.097328 -0.0068859 0)
(0.0985968 -0.00727762 0)
(0.0998919 -0.00769093 0)
(0.101211 -0.00812596 0)
(0.102552 -0.00858267 0)
(0.103911 -0.00906071 0)
(0.105283 -0.00955945 0)
(0.106665 -0.0100779 0)
(0.10805 -0.0106146 0)
(0.109432 -0.0111678 0)
(0.110804 -0.011735 0)
(0.112157 -0.0123134 0)
(0.113482 -0.0128995 0)
(0.11477 -0.0134891 0)
(0.116011 -0.0140775 0)
(0.117193 -0.0146595 0)
(0.118306 -0.0152291 0)
(0.119336 -0.0157799 0)
(0.120274 -0.0163051 0)
(0.121106 -0.0167976 0)
(0.121822 -0.01725 0)
(0.122411 -0.0176551 0)
(0.122864 -0.0180057 0)
(0.12317 -0.0182951 0)
(0.123325 -0.0185171 0)
(0.12332 -0.0186661 0)
(0.123154 -0.0187378 0)
(0.122823 -0.0187287 0)
(0.122329 -0.0186369 0)
(0.121673 -0.0184615 0)
(0.120861 -0.0182035 0)
(0.119899 -0.0178649 0)
(0.118797 -0.0174497 0)
(0.117566 -0.0169628 0)
(0.116219 -0.0164103 0)
(0.11477 -0.0157996 0)
(0.113235 -0.0151385 0)
(0.111631 -0.0144355 0)
(0.109973 -0.0136993 0)
(0.108281 -0.0129383 0)
(0.10657 -0.0121612 0)
(0.104857 -0.0113759 0)
(0.103159 -0.0105898 0)
(0.101489 -0.00980978 0)
(0.0998629 -0.00904173 0)
(0.098291 -0.00829082 0)
(0.0967851 -0.0075613 0)
(0.0953531 -0.00685673 0)
(0.094004 -0.00617931 0)
(0.0927408 -0.00553163 0)
(0.0915723 -0.0049133 0)
(0.0904938 -0.00432749 0)
(0.0895176 -0.00376942 0)
(0.0886283 -0.00324676 0)
(0.0878454 -0.00274493 0)
(0.0871437 -0.00228572 0)
(0.0789173 -0.00117705 0)
(0.0787294 -0.00130285 0)
(0.0792076 -0.00139185 0)
(0.0794473 -0.00149418 0)
(0.0800006 -0.0015602 0)
(0.0804472 -0.00163979 0)
(0.0810394 -0.00169289 0)
(0.0815792 -0.00174964 0)
(0.0821903 -0.00178952 0)
(0.0827719 -0.00182859 0)
(0.0833894 -0.00185748 0)
(0.0839871 -0.00188436 0)
(0.084602 -0.00190526 0)
(0.0852018 -0.00192431 0)
(0.0858082 -0.00193999 0)
(0.0864019 -0.00195441 0)
(0.0869963 -0.00196714 0)
(0.0875794 -0.00197927 0)
(0.08816 -0.00199084 0)
(0.0887305 -0.00200244 0)
(0.0892966 -0.00201429 0)
(0.0898538 -0.0020267 0)
(0.0904059 -0.00203998 0)
(0.0909501 -0.00205429 0)
(0.0914893 -0.00206995 0)
(0.0920217 -0.00208706 0)
(0.0925494 -0.00210595 0)
(0.0930715 -0.00212665 0)
(0.0935896 -0.00214954 0)
(0.0941033 -0.00217457 0)
(0.0946139 -0.00220222 0)
(0.0951215 -0.00223233 0)
(0.0956267 -0.0022655 0)
(0.0961307 -0.00230147 0)
(0.0966326 -0.00234097 0)
(0.0971361 -0.00238367 0)
(0.0976363 -0.00243037 0)
(0.0981435 -0.00248084 0)
(0.0986423 -0.00253561 0)
(0.0991599 -0.00259517 0)
(0.0996538 -0.00265876 0)
(0.100195 -0.00272932 0)
(0.100671 -0.00280195 0)
(0.101263 -0.00288678 0)
(0.101685 -0.00296644 0)
(0.102281 -0.0030669 0)
(0.102834 -0.00316682 0)
(0.103382 -0.00327578 0)
(0.103947 -0.00339188 0)
(0.104518 -0.00351759 0)
(0.105102 -0.00365189 0)
(0.105695 -0.00379655 0)
(0.106302 -0.00395127 0)
(0.106921 -0.00411736 0)
(0.107555 -0.00429497 0)
(0.108201 -0.00448516 0)
(0.108863 -0.00468831 0)
(0.109539 -0.00490535 0)
(0.110231 -0.0051368 0)
(0.110938 -0.00538349 0)
(0.11166 -0.00564599 0)
(0.112396 -0.00592504 0)
(0.113147 -0.00622119 0)
(0.113911 -0.00653506 0)
(0.114688 -0.00686708 0)
(0.115476 -0.00721769 0)
(0.116273 -0.00758716 0)
(0.117077 -0.00797564 0)
(0.117884 -0.00838309 0)
(0.118693 -0.00880931 0)
(0.119498 -0.00925383 0)
(0.120296 -0.00971592 0)
(0.121082 -0.0101946 0)
(0.121849 -0.0106884 0)
(0.122591 -0.0111956 0)
(0.123301 -0.011714 0)
(0.123972 -0.012241 0)
(0.124594 -0.0127735 0)
(0.12516 -0.0133079 0)
(0.125658 -0.0138399 0)
(0.126079 -0.0143651 0)
(0.126414 -0.0148781 0)
(0.12665 -0.0153734 0)
(0.126777 -0.0158451 0)
(0.126786 -0.0162866 0)
(0.126666 -0.0166916 0)
(0.126407 -0.0170533 0)
(0.126001 -0.017365 0)
(0.12544 -0.0176206 0)
(0.124719 -0.0178141 0)
(0.123834 -0.0179402 0)
(0.122781 -0.0179946 0)
(0.12156 -0.0179736 0)
(0.120173 -0.0178752 0)
(0.118623 -0.0176982 0)
(0.116918 -0.0174432 0)
(0.115066 -0.0171119 0)
(0.113077 -0.0167073 0)
(0.110964 -0.016234 0)
(0.108742 -0.0156974 0)
(0.106428 -0.0151041 0)
(0.10404 -0.0144617 0)
(0.101597 -0.0137781 0)
(0.0991194 -0.013062 0)
(0.0966265 -0.0123222 0)
(0.094139 -0.0115676 0)
(0.0916767 -0.0108065 0)
(0.0892582 -0.0100471 0)
(0.0869012 -0.0092965 0)
(0.0846215 -0.00856117 0)
(0.0824334 -0.00784643 0)
(0.0803491 -0.00715665 0)
(0.0783784 -0.00649513 0)
(0.0765301 -0.00586419 0)
(0.0748093 -0.00526541 0)
(0.0732213 -0.00469915 0)
(0.0717664 -0.00416607 0)
(0.0704478 -0.00366437 0)
(0.0692607 -0.00319525 0)
(0.0682076 -0.00275375 0)
(0.0672795 -0.00234382 0)
(0.0664775 -0.00195604 0)
(0.0657932 -0.00159642 0)
(0.113676 -0.00165183 0)
(0.113781 -0.00175613 0)
(0.114011 -0.0019454 0)
(0.11417 -0.00199421 0)
(0.11444 -0.0020743 0)
(0.11465 -0.00210993 0)
(0.114929 -0.00215543 0)
(0.115169 -0.00218432 0)
(0.115451 -0.00221511 0)
(0.115708 -0.00223768 0)
(0.115989 -0.00225967 0)
(0.116254 -0.00227657 0)
(0.116532 -0.00229245 0)
(0.116799 -0.00230494 0)
(0.117072 -0.0023167 0)
(0.117337 -0.00232631 0)
(0.117604 -0.00233569 0)
(0.117864 -0.00234396 0)
(0.118124 -0.00235253 0)
(0.118378 -0.00236084 0)
(0.118631 -0.00236998 0)
(0.118878 -0.00237959 0)
(0.119124 -0.00239051 0)
(0.119365 -0.00240249 0)
(0.119604 -0.00241622 0)
(0.119839 -0.00243153 0)
(0.120073 -0.002449 0)
(0.120303 -0.00246849 0)
(0.120531 -0.00249057 0)
(0.120757 -0.00251504 0)
(0.120983 -0.00254257 0)
(0.121205 -0.0025728 0)
(0.121428 -0.00260664 0)
(0.121649 -0.00264342 0)
(0.121871 -0.00268453 0)
(0.122091 -0.00272867 0)
(0.122315 -0.00277812 0)
(0.122534 -0.00283043 0)
(0.12276 -0.00288957 0)
(0.12298 -0.00295079 0)
(0.123212 -0.00302134 0)
(0.123432 -0.00309202 0)
(0.123671 -0.00317621 0)
(0.123895 -0.0032569 0)
(0.124135 -0.00335609 0)
(0.124373 -0.00345154 0)
(0.124615 -0.00356122 0)
(0.124859 -0.00367628 0)
(0.125109 -0.0038012 0)
(0.125361 -0.00393472 0)
(0.125619 -0.00407802 0)
(0.12588 -0.00423147 0)
(0.126145 -0.00439557 0)
(0.126414 -0.00457101 0)
(0.126686 -0.00475822 0)
(0.126962 -0.00495792 0)
(0.127241 -0.00517053 0)
(0.127522 -0.00539673 0)
(0.127804 -0.00563695 0)
(0.128087 -0.00589179 0)
(0.128369 -0.00616164 0)
(0.128648 -0.00644696 0)
(0.128924 -0.00674805 0)
(0.129194 -0.00706519 0)
(0.129455 -0.00739849 0)
(0.129706 -0.00774799 0)
(0.129942 -0.00811355 0)
(0.13016 -0.00849486 0)
(0.130356 -0.00889139 0)
(0.130526 -0.0093024 0)
(0.130664 -0.00972686 0)
(0.130766 -0.0101635 0)
(0.130824 -0.0106106 0)
(0.130832 -0.0110663 0)
(0.130783 -0.0115281 0)
(0.13067 -0.0119933 0)
(0.130483 -0.0124586 0)
(0.130215 -0.0129205 0)
(0.129857 -0.0133748 0)
(0.129398 -0.0138171 0)
(0.128831 -0.0142425 0)
(0.128147 -0.0146457 0)
(0.127335 -0.0150211 0)
(0.126387 -0.0153631 0)
(0.125297 -0.0156658 0)
(0.124056 -0.0159234 0)
(0.122659 -0.0161304 0)
(0.121101 -0.0162815 0)
(0.11938 -0.016372 0)
(0.117493 -0.0163976 0)
(0.115442 -0.0163552 0)
(0.113229 -0.0162423 0)
(0.11086 -0.0160578 0)
(0.108341 -0.0158013 0)
(0.105684 -0.0154742 0)
(0.1029 -0.0150789 0)
(0.100004 -0.0146193 0)
(0.097013 -0.0141005 0)
(0.0939461 -0.013529 0)
(0.090824 -0.0129124 0)
(0.0876685 -0.0122588 0)
(0.0845023 -0.0115772 0)
(0.0813485 -0.0108766 0)
(0.07823 -0.0101661 0)
(0.075169 -0.00945417 0)
(0.0721868 -0.00874883 0)
(0.0693032 -0.0080572 0)
(0.0665363 -0.0073855 0)
(0.0639017 -0.00673886 0)
(0.0614128 -0.00612145 0)
(0.0590802 -0.00553629 0)
(0.0569119 -0.00498549 0)
(0.0549123 -0.00447007 0)
(0.0530845 -0.00399025 0)
(0.0514269 -0.0035455 0)
(0.0499386 -0.00313432 0)
(0.048613 -0.0027555 0)
(0.047447 -0.00240584 0)
(0.0464299 -0.00208477 0)
(0.045558 -0.00178685 0)
(0.0448187 -0.00151418 0)
(0.0442074 -0.00125755 0)
(0.0437135 -0.00102398 0)
(0.13712 -0.00155025 0)
(0.137107 -0.00167961 0)
(0.137153 -0.00184344 0)
(0.137139 -0.00193854 0)
(0.137203 -0.00205228 0)
(0.137223 -0.00212638 0)
(0.137297 -0.00220609 0)
(0.137341 -0.00226127 0)
(0.137416 -0.00231604 0)
(0.137471 -0.0023546 0)
(0.137543 -0.00239091 0)
(0.1376 -0.00241626 0)
(0.137665 -0.00243937 0)
(0.137719 -0.00245519 0)
(0.137775 -0.00246943 0)
(0.137823 -0.00247906 0)
(0.13787 -0.00248794 0)
(0.13791 -0.0024942 0)
(0.137948 -0.00250052 0)
(0.137979 -0.00250572 0)
(0.138008 -0.00251167 0)
(0.138031 -0.00251765 0)
(0.13805 -0.00252498 0)
(0.138064 -0.00253323 0)
(0.138075 -0.00254333 0)
(0.138082 -0.00255504 0)
(0.138085 -0.00256907 0)
(0.138084 -0.00258528 0)
(0.13808 -0.00260421 0)
(0.138072 -0.00262583 0)
(0.138061 -0.00265057 0)
(0.138047 -0.00267847 0)
(0.13803 -0.00270987 0)
(0.138009 -0.00274493 0)
(0.137986 -0.00278384 0)
(0.137961 -0.00282703 0)
(0.137932 -0.00287432 0)
(0.137901 -0.00292672 0)
(0.137866 -0.00298327 0)
(0.13783 -0.00304615 0)
(0.13779 -0.00311288 0)
(0.137748 -0.00318765 0)
(0.137703 -0.00326566 0)
(0.137654 -0.00335359 0)
(0.137605 -0.00344473 0)
(0.137547 -0.00354584 0)
(0.13749 -0.00365413 0)
(0.137426 -0.00376992 0)
(0.13736 -0.00389459 0)
(0.137287 -0.00402778 0)
(0.13721 -0.00417057 0)
(0.137126 -0.00432301 0)
(0.137035 -0.00448583 0)
(0.136936 -0.00465931 0)
(0.136829 -0.00484399 0)
(0.136711 -0.00504026 0)
(0.136583 -0.00524854 0)
(0.136441 -0.0054692 0)
(0.136284 -0.00570256 0)
(0.136111 -0.00594892 0)
(0.13592 -0.00620848 0)
(0.135707 -0.00648137 0)
(0.135471 -0.00676762 0)
(0.135207 -0.00706715 0)
(0.134914 -0.00737975 0)
(0.134586 -0.00770504 0)
(0.134221 -0.00804247 0)
(0.133813 -0.00839128 0)
(0.133358 -0.0087505 0)
(0.13285 -0.00911888 0)
(0.132284 -0.00949492 0)
(0.131654 -0.00987682 0)
(0.130953 -0.0102625 0)
(0.130175 -0.0106494 0)
(0.129312 -0.0110348 0)
(0.128357 -0.0114155 0)
(0.127302 -0.011788 0)
(0.12614 -0.0121486 0)
(0.124863 -0.012493 0)
(0.123464 -0.0128168 0)
(0.121935 -0.0131153 0)
(0.120269 -0.0133837 0)
(0.118461 -0.0136171 0)
(0.116505 -0.0138103 0)
(0.114397 -0.0139586 0)
(0.112134 -0.0140573 0)
(0.109714 -0.014102 0)
(0.107138 -0.0140891 0)
(0.104408 -0.0140155 0)
(0.10153 -0.013879 0)
(0.0985089 -0.0136785 0)
(0.0953556 -0.0134141 0)
(0.0920819 -0.0130871 0)
(0.0887023 -0.0127002 0)
(0.085234 -0.0122573 0)
(0.0816963 -0.0117639 0)
(0.0781103 -0.011226 0)
(0.0744993 -0.0106511 0)
(0.0708875 -0.010047 0)
(0.0673003 -0.00942195 0)
(0.0637639 -0.00878452 0)
(0.060304 -0.00814325 0)
(0.0569459 -0.00750649 0)
(0.0537136 -0.00688222 0)
(0.0506286 -0.0062778 0)
(0.0477097 -0.00569972 0)
(0.0449722 -0.00515332 0)
(0.0424272 -0.00464268 0)
(0.0400812 -0.00417032 0)
(0.0379371 -0.00373741 0)
(0.035993 -0.00334364 0)
(0.0342445 -0.00298761 0)
(0.0326836 -0.00266699 0)
(0.0313014 -0.00237869 0)
(0.0300859 -0.00211957 0)
(0.0290274 -0.00188579 0)
(0.0281121 -0.00167464 0)
(0.0273316 -0.00148192 0)
(0.0266715 -0.00130633 0)
(0.026126 -0.00114319 0)
(0.0256815 -0.000993136 0)
(0.0253338 -0.00085108 0)
(0.0250721 -0.00071855 0)
(0.148385 -0.00159627 0)
(0.148329 -0.00174243 0)
(0.14823 -0.00192614 0)
(0.148136 -0.00202243 0)
(0.148047 -0.00213738 0)
(0.147943 -0.00219872 0)
(0.147849 -0.00226882 0)
(0.147738 -0.00230701 0)
(0.147634 -0.0023488 0)
(0.147515 -0.00237111 0)
(0.1474 -0.00239464 0)
(0.147272 -0.00240603 0)
(0.147144 -0.00241778 0)
(0.147007 -0.00242199 0)
(0.146868 -0.00242651 0)
(0.146721 -0.00242654 0)
(0.146571 -0.00242717 0)
(0.146415 -0.00242546 0)
(0.146254 -0.00242475 0)
(0.146088 -0.00242324 0)
(0.145918 -0.00242316 0)
(0.145742 -0.00242339 0)
(0.145562 -0.00242546 0)
(0.145377 -0.00242867 0)
(0.145188 -0.0024341 0)
(0.144993 -0.00244131 0)
(0.144795 -0.00245109 0)
(0.144591 -0.00246313 0)
(0.144383 -0.00247812 0)
(0.144169 -0.00249576 0)
(0.143951 -0.00251673 0)
(0.143728 -0.00254068 0)
(0.1435 -0.0025684 0)
(0.143266 -0.00259936 0)
(0.143027 -0.00263466 0)
(0.142782 -0.00267334 0)
(0.142531 -0.00271711 0)
(0.142273 -0.00276427 0)
(0.142009 -0.00281751 0)
(0.141738 -0.00287394 0)
(0.141459 -0.00293781 0)
(0.141172 -0.00300441 0)
(0.140877 -0.00308005 0)
(0.140573 -0.00315808 0)
(0.140258 -0.00324615 0)
(0.139934 -0.00333789 0)
(0.139598 -0.00343867 0)
(0.139249 -0.0035454 0)
(0.138888 -0.00366087 0)
(0.138512 -0.00378366 0)
(0.138121 -0.00391538 0)
(0.137713 -0.00405545 0)
(0.137287 -0.00420484 0)
(0.136841 -0.00436342 0)
(0.136374 -0.00453178 0)
(0.135883 -0.00470996 0)
(0.135367 -0.00489835 0)
(0.134823 -0.005097 0)
(0.134249 -0.00530611 0)
(0.133642 -0.00552567 0)
(0.132999 -0.00575567 0)
(0.132317 -0.00599596 0)
(0.131593 -0.00624631 0)
(0.130822 -0.00650631 0)
(0.130002 -0.00677546 0)
(0.129127 -0.00705303 0)
(0.128194 -0.00733817 0)
(0.127196 -0.00762977 0)
(0.12613 -0.00792652 0)
(0.12499 -0.00822686 0)
(0.12377 -0.00852896 0)
(0.122464 -0.00883073 0)
(0.121067 -0.0091298 0)
(0.119572 -0.00942348 0)
(0.117973 -0.00970881 0)
(0.116264 -0.00998255 0)
(0.114438 -0.0102412 0)
(0.112491 -0.010481 0)
(0.110417 -0.010698 0)
(0.108211 -0.0108881 0)
(0.105869 -0.0110472 0)
(0.103388 -0.0111711 0)
(0.100767 -0.0112558 0)
(0.0980036 -0.0112975 0)
(0.0951004 -0.0112928 0)
(0.09206 -0.0112387 0)
(0.0888874 -0.0111332 0)
(0.0855898 -0.0109747 0)
(0.0821768 -0.0107627 0)
(0.0786604 -0.0104978 0)
(0.0750552 -0.0101815 0)
(0.0713786 -0.00981632 0)
(0.0676502 -0.00940593 0)
(0.0638925 -0.00895501 0)
(0.0601299 -0.00846929 0)
(0.0563893 -0.00795554 0)
(0.0526989 -0.00742147 0)
(0.0490879 -0.00687562 0)
(0.0455853 -0.00632707 0)
(0.0422192 -0.00578507 0)
(0.0390149 -0.00525861 0)
(0.0359941 -0.00475588 0)
(0.0331736 -0.00428379 0)
(0.0305645 -0.00384755 0)
(0.0281719 -0.00345041 0)
(0.0259956 -0.0030936 0)
(0.0240299 -0.0027764 0)
(0.0222655 -0.00249655 0)
(0.0206901 -0.00225065 0)
(0.0192899 -0.00203472 0)
(0.0180499 -0.00184458 0)
(0.0169563 -0.00167629 0)
(0.0159946 -0.00152639 0)
(0.015153 -0.00139176 0)
(0.014419 -0.00127021 0)
(0.0137839 -0.0011593 0)
(0.0132371 -0.00105809 0)
(0.0127728 -0.000964215 0)
(0.0123819 -0.000877964 0)
(0.0120609 -0.000796353 0)
(0.0118024 -0.000721054 0)
(0.0116034 -0.000648034 0)
(0.0114592 -0.000580257 0)
(0.147835 -0.00142733 0)
(0.147685 -0.00155407 0)
(0.147457 -0.00169064 0)
(0.147245 -0.00177872 0)
(0.147 -0.00187868 0)
(0.146754 -0.00193982 0)
(0.146494 -0.00200854 0)
(0.146228 -0.00204943 0)
(0.145953 -0.00209375 0)
(0.14567 -0.00211884 0)
(0.14538 -0.00214495 0)
(0.145083 -0.00215806 0)
(0.14478 -0.0021712 0)
(0.14447 -0.00217581 0)
(0.144154 -0.0021803 0)
(0.143832 -0.00217949 0)
(0.143504 -0.00217885 0)
(0.143171 -0.00217523 0)
(0.142832 -0.00217222 0)
(0.142488 -0.00216792 0)
(0.14214 -0.00216471 0)
(0.141786 -0.00216143 0)
(0.141427 -0.00215968 0)
(0.141063 -0.00215878 0)
(0.140694 -0.0021598 0)
(0.14032 -0.00216234 0)
(0.139941 -0.00216716 0)
(0.139556 -0.00217402 0)
(0.139166 -0.00218349 0)
(0.138769 -0.00219544 0)
(0.138367 -0.00221027 0)
(0.137958 -0.002228 0)
(0.137542 -0.00224888 0)
(0.137118 -0.00227305 0)
(0.136687 -0.00230065 0)
(0.136248 -0.00233195 0)
(0.135799 -0.00236691 0)
(0.135341 -0.00240611 0)
(0.134874 -0.00244913 0)
(0.134395 -0.002497 0)
(0.133904 -0.00254886 0)
(0.133401 -0.00260622 0)
(0.132885 -0.00266786 0)
(0.132354 -0.00273537 0)
(0.131809 -0.00280801 0)
(0.131245 -0.00288627 0)
(0.130665 -0.00297112 0)
(0.130065 -0.00306143 0)
(0.129445 -0.00315885 0)
(0.128802 -0.0032623 0)
(0.128135 -0.00337312 0)
(0.127443 -0.00349061 0)
(0.126723 -0.00361568 0)
(0.125972 -0.00374792 0)
(0.12519 -0.00388789 0)
(0.124373 -0.00403536 0)
(0.123519 -0.0041906 0)
(0.122625 -0.00435341 0)
(0.121688 -0.00452384 0)
(0.120705 -0.00470159 0)
(0.119672 -0.0048865 0)
(0.118587 -0.00507811 0)
(0.117444 -0.005276 0)
(0.116241 -0.00547948 0)
(0.114974 -0.0056878 0)
(0.113637 -0.0059 0)
(0.112227 -0.00611497 0)
(0.110739 -0.00633136 0)
(0.109169 -0.00654766 0)
(0.107511 -0.00676211 0)
(0.10576 -0.00697274 0)
(0.103914 -0.00717736 0)
(0.101965 -0.00737355 0)
(0.0999117 -0.00755869 0)
(0.0977485 -0.00772997 0)
(0.0954721 -0.00788444 0)
(0.0930797 -0.00801901 0)
(0.0905689 -0.00813055 0)
(0.0879385 -0.00821592 0)
(0.0851883 -0.00827202 0)
(0.0823192 -0.00829592 0)
(0.0793339 -0.00828486 0)
(0.0762366 -0.00823642 0)
(0.0730334 -0.00814857 0)
(0.0697325 -0.00801976 0)
(0.0663446 -0.00784911 0)
(0.0628826 -0.00763648 0)
(0.0593623 -0.00738263 0)
(0.0558024 -0.00708935 0)
(0.052224 -0.00675961 0)
(0.0486515 -0.00639761 0)
(0.0451112 -0.00600879 0)
(0.0416314 -0.00559983 0)
(0.0382411 -0.00517844 0)
(0.0349688 -0.0047531 0)
(0.0318414 -0.00433265 0)
(0.0288822 -0.00392574 0)
(0.0261101 -0.00354017 0)
(0.0235382 -0.00318223 0)
(0.0211733 -0.00285626 0)
(0.019016 -0.00256426 0)
(0.0170611 -0.00230608 0)
(0.0152988 -0.00207968 0)
(0.0137162 -0.00188175 0)
(0.0122985 -0.0017084 0)
(0.0110306 -0.00155577 0)
(0.0098975 -0.00142042 0)
(0.00888562 -0.00129969 0)
(0.007982 -0.00119156 0)
(0.0071755 -0.0010947 0)
(0.0064556 -0.00100819 0)
(0.00581389 -0.000931291 0)
(0.00524209 -0.000863432 0)
(0.00473436 -0.0008037 0)
(0.00428412 -0.000751501 0)
(0.00388759 -0.000705438 0)
(0.00353921 -0.000665076 0)
(0.00323674 -0.000628561 0)
(0.00297527 -0.000595999 0)
(0.00275357 -0.000565206 0)
(0.0025675 -0.000536935 0)
(0.00241614 -0.000509011 0)
(0.00229676 -0.000482312 0)
(0.135263 -0.00122193 0)
(0.135022 -0.00134085 0)
(0.134678 -0.00146223 0)
(0.134367 -0.00154504 0)
(0.133993 -0.00163029 0)
(0.133631 -0.00168089 0)
(0.13323 -0.00173323 0)
(0.132831 -0.00175969 0)
(0.132407 -0.00178709 0)
(0.13198 -0.00179675 0)
(0.131534 -0.00180688 0)
(0.131085 -0.00180547 0)
(0.130623 -0.00180447 0)
(0.130157 -0.00179634 0)
(0.129681 -0.00178881 0)
(0.129201 -0.00177722 0)
(0.128714 -0.00176654 0)
(0.128223 -0.0017539 0)
(0.127726 -0.0017425 0)
(0.127225 -0.00173058 0)
(0.126719 -0.00172021 0)
(0.12621 -0.0017103 0)
(0.125696 -0.00170221 0)
(0.125178 -0.00169526 0)
(0.124655 -0.00169035 0)
(0.124128 -0.00168704 0)
(0.123596 -0.00168597 0)
(0.123059 -0.00168685 0)
(0.122516 -0.00169016 0)
(0.121968 -0.00169565 0)
(0.121413 -0.00170379 0)
(0.120852 -0.00171429 0)
(0.120283 -0.00172768 0)
(0.119707 -0.00174357 0)
(0.119121 -0.00176265 0)
(0.118526 -0.00178431 0)
(0.117922 -0.00180954 0)
(0.117306 -0.00183737 0)
(0.116678 -0.00186927 0)
(0.116037 -0.00190371 0)
(0.115383 -0.00194281 0)
(0.114713 -0.00198438 0)
(0.114027 -0.00203118 0)
(0.113324 -0.00208055 0)
(0.112601 -0.0021354 0)
(0.111858 -0.00219337 0)
(0.111094 -0.00225669 0)
(0.110305 -0.0023237 0)
(0.109492 -0.00239608 0)
(0.10865 -0.00247262 0)
(0.10778 -0.00255451 0)
(0.106878 -0.00264092 0)
(0.105943 -0.00273263 0)
(0.104972 -0.00282906 0)
(0.103962 -0.00293064 0)
(0.102911 -0.00303694 0)
(0.101816 -0.00314811 0)
(0.100674 -0.00326375 0)
(0.0994821 -0.00338378 0)
(0.0982374 -0.00350772 0)
(0.0969365 -0.00363526 0)
(0.095576 -0.00376579 0)
(0.0941527 -0.00389875 0)
(0.0926629 -0.00403334 0)
(0.0911033 -0.00416871 0)
(0.0894704 -0.00430383 0)
(0.0877607 -0.00443757 0)
(0.0859711 -0.00456858 0)
(0.0840983 -0.00469543 0)
(0.0821395 -0.00481648 0)
(0.0800922 -0.00492997 0)
(0.0779541 -0.00503398 0)
(0.0757236 -0.00512648 0)
(0.0733998 -0.00520532 0)
(0.0709823 -0.00526828 0)
(0.0684718 -0.00531313 0)
(0.0658702 -0.00533763 0)
(0.0631804 -0.00533964 0)
(0.0604069 -0.00531719 0)
(0.057556 -0.00526853 0)
(0.0546357 -0.00519226 0)
(0.0516562 -0.00508743 0)
(0.0486299 -0.00495364 0)
(0.0455716 -0.00479121 0)
(0.0424985 -0.00460125 0)
(0.03943 -0.00438582 0)
(0.0363875 -0.00414803 0)
(0.0333937 -0.00389203 0)
(0.0304724 -0.00362298 0)
(0.0276468 -0.00334683 0)
(0.024939 -0.00306998 0)
(0.0223688 -0.00279883 0)
(0.019952 -0.00253925 0)
(0.0176999 -0.00229607 0)
(0.0156186 -0.00207262 0)
(0.0137087 -0.00187056 0)
(0.0119665 -0.00168985 0)
(0.0103848 -0.00152903 0)
(0.00895408 -0.00138564 0)
(0.00766352 -0.0012568 0)
(0.00650151 -0.00113974 0)
(0.00545606 -0.00103238 0)
(0.00451512 -0.000933668 0)
(0.0036673 -0.000843614 0)
(0.0029021 -0.000762924 0)
(0.00221058 -0.000692462 0)
(0.00158494 -0.000632631 0)
(0.00101887 -0.00058314 0)
(0.000506477 -0.000542997 0)
(4.28979e-05 -0.000510798 0)
(-0.000376979 -0.000485081 0)
(-0.000757222 -0.000464435 0)
(-0.00110249 -0.000447862 0)
(-0.00141598 -0.000434311 0)
(-0.00170173 -0.000423369 0)
(-0.00196185 -0.000414086 0)
(-0.00219963 -0.000406546 0)
(-0.0024162 -0.000399613 0)
(-0.00261402 -0.000393892 0)
(-0.00279363 -0.000387914 0)
(-0.00295657 -0.000382799 0)
(-0.00310334 -0.00037679 0)
(-0.00323444 -0.000371276 0)
(0.110779 -0.000897912 0)
(0.110453 -0.000981185 0)
(0.11001 -0.00105295 0)
(0.109601 -0.0011065 0)
(0.10911 -0.00115681 0)
(0.108637 -0.00118753 0)
(0.10811 -0.00121812 0)
(0.107591 -0.00123263 0)
(0.107036 -0.00124757 0)
(0.106485 -0.00125074 0)
(0.10591 -0.00125419 0)
(0.105336 -0.00124959 0)
(0.104746 -0.00124517 0)
(0.104157 -0.0012356 0)
(0.103558 -0.00122629 0)
(0.102959 -0.00121394 0)
(0.102353 -0.00120209 0)
(0.101748 -0.00118874 0)
(0.101139 -0.00117616 0)
(0.10053 -0.00116316 0)
(0.0999177 -0.0011512 0)
(0.0993059 -0.00113958 0)
(0.098692 -0.00112925 0)
(0.0980778 -0.00111978 0)
(0.0974615 -0.0011118 0)
(0.0968443 -0.00110504 0)
(0.0962247 -0.00109993 0)
(0.0956032 -0.00109631 0)
(0.0949787 -0.00109446 0)
(0.0943511 -0.0010943 0)
(0.0937195 -0.00109602 0)
(0.0930835 -0.0010996 0)
(0.0924421 -0.00110514 0)
(0.0917949 -0.00111271 0)
(0.0911407 -0.0011223 0)
(0.0904788 -0.00113409 0)
(0.0898081 -0.00114795 0)
(0.0891278 -0.00116421 0)
(0.0884366 -0.00118258 0)
(0.0877335 -0.00120353 0)
(0.0870171 -0.00122667 0)
(0.0862864 -0.00125251 0)
(0.0855398 -0.00128072 0)
(0.0847759 -0.0013116 0)
(0.0839934 -0.00134521 0)
(0.0831903 -0.00138125 0)
(0.0823654 -0.00142046 0)
(0.0815165 -0.00146197 0)
(0.0806423 -0.00150672 0)
(0.0797402 -0.00155381 0)
(0.078809 -0.00160404 0)
(0.0778459 -0.00165665 0)
(0.0768492 -0.00171219 0)
(0.0758164 -0.00177004 0)
(0.0747456 -0.0018305 0)
(0.0736339 -0.00189305 0)
(0.0724795 -0.00195773 0)
(0.0712795 -0.00202406 0)
(0.0700318 -0.00209188 0)
(0.0687337 -0.00216066 0)
(0.0673832 -0.00223003 0)
(0.0659776 -0.00229937 0)
(0.0645151 -0.00236813 0)
(0.0629933 -0.00243554 0)
(0.0614107 -0.00250085 0)
(0.0597654 -0.00256315 0)
(0.0580565 -0.00262149 0)
(0.056283 -0.00267479 0)
(0.0544447 -0.00272193 0)
(0.0525419 -0.0027617 0)
(0.0505755 -0.00279287 0)
(0.0485475 -0.00281414 0)
(0.0464606 -0.00282427 0)
(0.0443186 -0.00282204 0)
(0.0421266 -0.00280636 0)
(0.039891 -0.00277632 0)
(0.0376194 -0.00273122 0)
(0.0353213 -0.00267073 0)
(0.0330072 -0.0025949 0)
(0.0306894 -0.00250426 0)
(0.0283815 -0.00239985 0)
(0.0260983 -0.00228328 0)
(0.023855 -0.00215666 0)
(0.0216674 -0.0020226 0)
(0.0195507 -0.00188404 0)
(0.0175189 -0.00174411 0)
(0.0155841 -0.00160595 0)
(0.0137559 -0.00147239 0)
(0.012041 -0.00134578 0)
(0.0104436 -0.00122773 0)
(0.00896504 -0.00111888 0)
(0.00760463 -0.00101887 0)
(0.0063596 -0.000926372 0)
(0.00522535 -0.000839453 0)
(0.00419562 -0.000756276 0)
(0.00326283 -0.000675895 0)
(0.00241866 -0.000598788 0)
(0.00165475 -0.00052675 0)
(0.000963333 -0.000462089 0)
(0.000337587 -0.000406607 0)
(-0.000228385 -0.000360872 0)
(-0.000739684 -0.000324205 0)
(-0.00120111 -0.00029516 0)
(-0.00161726 -0.0002722 0)
(-0.00199301 -0.000254066 0)
(-0.00233312 -0.000239881 0)
(-0.00264258 -0.000228971 0)
(-0.00292579 -0.000220746 0)
(-0.00318703 -0.000214649 0)
(-0.00342951 -0.00021019 0)
(-0.00365643 -0.000207074 0)
(-0.00386974 -0.000205082 0)
(-0.00407177 -0.000204262 0)
(-0.0042636 -0.000204469 0)
(-0.0044471 -0.000205882 0)
(-0.00462272 -0.000208126 0)
(-0.004792 -0.000211414 0)
(-0.00495499 -0.000215065 0)
(-0.00511284 -0.000219412 0)
(-0.0052654 -0.000223579 0)
(-0.0054133 -0.000228035 0)
(-0.00555649 -0.000231944 0)
(-0.00569491 -0.000235705 0)
(0.0744531 -0.000508946 0)
(0.0740799 -0.000562838 0)
(0.0735733 -0.000602342 0)
(0.0731145 -0.000635104 0)
(0.0725594 -0.00065879 0)
(0.0720371 -0.000672227 0)
(0.0714493 -0.000680259 0)
(0.0708844 -0.000679225 0)
(0.0702774 -0.000675227 0)
(0.0696874 -0.000664818 0)
(0.0690721 -0.000653074 0)
(0.0684705 -0.000637485 0)
(0.0678552 -0.000621663 0)
(0.0672518 -0.000603971 0)
(0.0666425 -0.00058678 0)
(0.0660439 -0.000569077 0)
(0.0654444 -0.00055234 0)
(0.0648547 -0.00053595 0)
(0.064267 -0.000520796 0)
(0.0636881 -0.000506491 0)
(0.0631128 -0.000493552 0)
(0.0625452 -0.000481727 0)
(0.0619816 -0.000471305 0)
(0.0614243 -0.000462112 0)
(0.0608707 -0.000454305 0)
(0.060322 -0.000447752 0)
(0.0597761 -0.000442543 0)
(0.0592335 -0.000438563 0)
(0.0586923 -0.000435879 0)
(0.0581528 -0.000434372 0)
(0.0576131 -0.000434126 0)
(0.0570732 -0.000434989 0)
(0.0565314 -0.0004371 0)
(0.0559873 -0.000440237 0)
(0.0554395 -0.000444646 0)
(0.0548873 -0.000449978 0)
(0.0543292 -0.000456649 0)
(0.0537645 -0.000464112 0)
(0.0531917 -0.000473022 0)
(0.05261 -0.000482572 0)
(0.0520178 -0.000493698 0)
(0.0514143 -0.000505321 0)
(0.0507977 -0.000518596 0)
(0.0501673 -0.000532315 0)
(0.0495211 -0.000547617 0)
(0.0488584 -0.000563436 0)
(0.0481773 -0.000580651 0)
(0.0474767 -0.000598419 0)
(0.046755 -0.000617422 0)
(0.0460106 -0.000636966 0)
(0.0452424 -0.00065754 0)
(0.0444485 -0.000678581 0)
(0.043628 -0.000700389 0)
(0.0427789 -0.000722502 0)
(0.0419002 -0.000745051 0)
(0.0409904 -0.000767638 0)
(0.0400484 -0.000790252 0)
(0.0390729 -0.000812517 0)
(0.0380631 -0.000834305 0)
(0.037018 -0.000855236 0)
(0.0359372 -0.000875082 0)
(0.0348202 -0.000893442 0)
(0.033667 -0.000910013 0)
(0.0324779 -0.00092437 0)
(0.0312537 -0.000936159 0)
(0.0299955 -0.000944951 0)
(0.028705 -0.000950377 0)
(0.0273845 -0.000952037 0)
(0.0260369 -0.0009496 0)
(0.0246659 -0.000942753 0)
(0.0232756 -0.000931272 0)
(0.0218711 -0.000915003 0)
(0.020458 -0.000893918 0)
(0.0190426 -0.000868109 0)
(0.0176317 -0.000837834 0)
(0.0162326 -0.000803517 0)
(0.0148527 -0.000765771 0)
(0.0134995 -0.000725382 0)
(0.0121803 -0.000683296 0)
(0.0109021 -0.000640551 0)
(0.0096715 -0.000598195 0)
(0.00849412 -0.000557146 0)
(0.00737492 -0.000518038 0)
(0.00631783 -0.000481052 0)
(0.00532576 -0.000445831 0)
(0.00440051 -0.000411509 0)
(0.00354272 -0.000376955 0)
(0.00275187 -0.000341184 0)
(0.0020263 -0.000303837 0)
(0.00136338 -0.000265477 0)
(0.00075968 -0.000227544 0)
(0.000211309 -0.000191931 0)
(-0.00028568 -0.000160355 0)
(-0.000734916 -0.000133843 0)
(-0.0011395 -0.000112567 0)
(-0.00150205 -9.60576e-05 0)
(-0.00182515 -8.35885e-05 0)
(-0.00211173 -7.44556e-05 0)
(-0.00236551 -6.80002e-05 0)
(-0.00259073 -6.34948e-05 0)
(-0.00279191 -6.00768e-05 0)
(-0.00297313 -5.68972e-05 0)
(-0.00313786 -5.33738e-05 0)
(-0.00328877 -4.9408e-05 0)
(-0.00342812 -4.5369e-05 0)
(-0.00355773 -4.18942e-05 0)
(-0.00367951 -3.95969e-05 0)
(-0.00379495 -3.88453e-05 0)
(-0.00390572 -3.9712e-05 0)
(-0.00401283 -4.19902e-05 0)
(-0.00411759 -4.53926e-05 0)
(-0.00422057 -4.95268e-05 0)
(-0.00432285 -5.41715e-05 0)