/*--------------------------------*- C++ -*----------------------------------*\
| =========                 |                                                 |
| \\      /  F ield         | OpenFOAM: The Open Source CFD Toolbox           |
|  \\    /   O peration     | Version:  4.1                                   |
|   \\  /    A nd           | Web:      www.OpenFOAM.org                      |
|    \\/     M anipulation  |                                                 |
\*---------------------------------------------------------------------------*/
FoamFile
{
    version     2.0;
    format      ascii;
    class       volVectorField;
    location    "108";
    object      U;
}
// * * * * * * * * * * * * * * * * * * * * * * * * * * * * * * * * * * * * * //

dimensions      [0 1 -1 0 0 0 0];

internalField   nonuniform List<vector> 
3264
(
(8.38168e-05 -9.79035e-05 0)
(0.000176686 -7.96485e-05 0)
(8.70902e-05 -4.73567e-05 0)
(-0.00016034 -2.25581e-05 0)
(-0.000552375 1.27551e-06 0)
(-0.00107123 2.58903e-05 0)
(-0.00170041 5.67876e-05 0)
(-0.00242878 9.24491e-05 0)
(-0.0032419 0.000132507 0)
(-0.00412906 0.000174478 0)
(-0.00507673 0.000216782 0)
(-0.00607191 0.00025763 0)
(-0.00709934 0.000295576 0)
(-0.00814264 0.000329152 0)
(-0.00918368 0.000356985 0)
(-0.0102031 0.000377803 0)
(-0.0111809 0.000390551 0)
(-0.0120965 0.000394458 0)
(-0.0129302 0.000389089 0)
(-0.0136629 0.00037436 0)
(-0.0142776 0.000350514 0)
(-0.0147589 0.000318083 0)
(-0.0150942 0.000277837 0)
(-0.0152734 0.000230744 0)
(-0.015289 0.000177921 0)
(-0.0151368 0.000120605 0)
(-0.0148153 6.01256e-05 0)
(-0.014326 -2.11615e-06 0)
(-0.0136735 -6.46679e-05 0)
(-0.0128653 -0.000126044 0)
(-0.0119119 -0.000184747 0)
(-0.0108265 -0.000239289 0)
(-0.00962527 -0.000288227 0)
(-0.0083268 -0.0003302 0)
(-0.00695227 -0.000363975 0)
(-0.00552489 -0.000388514 0)
(-0.0040696 -0.000403035 0)
(-0.00261248 -0.000407097 0)
(-0.00118006 -0.00040067 0)
(0.000201557 -0.000384207 0)
(0.00150772 -0.00035868 0)
(0.00271626 -0.000325573 0)
(0.00380866 -0.000286819 0)
(0.00477093 -0.000244653 0)
(0.00559444 -0.000201405 0)
(0.00627631 -0.000159243 0)
(0.00681945 -0.000119931 0)
(0.00723222 -8.4679e-05 0)
(0.00752766 -5.41332e-05 0)
(0.00772257 -2.85425e-05 0)
(0.00783631 -8.01245e-06 0)
(0.0078896 7.27903e-06 0)
(0.0079034 1.70335e-05 0)
(0.00789784 2.09713e-05 0)
(0.00789142 1.90591e-05 0)
(0.00790031 1.16828e-05 0)
(0.00793785 -3.21737e-07 0)
(0.00801402 -1.5762e-05 0)
(0.00813501 -3.323e-05 0)
(0.00830288 -5.12276e-05 0)
(0.00851549 -6.82706e-05 0)
(0.00876682 -8.29988e-05 0)
(0.00904771 -9.43063e-05 0)
(0.00934694 -0.000101473 0)
(0.00965256 -0.000104251 0)
(0.00995324 -0.000102873 0)
(0.0102393 -9.79665e-05 0)
(0.0105035 -9.04074e-05 0)
(0.0107412 -8.11524e-05 0)
(0.0109501 -7.10952e-05 0)
(0.01113 -6.09724e-05 0)
(0.0112822 -5.13229e-05 0)
(0.011409 -4.24911e-05 0)
(0.0115131 -3.46571e-05 0)
(0.0115974 -2.78775e-05 0)
(0.0116649 -2.21254e-05 0)
(0.0117182 -1.73242e-05 0)
(0.0117597 -1.33727e-05 0)
(0.0117916 -1.01616e-05 0)
(0.0118157 -7.58381e-06 0)
(0.0118335 -5.53972e-06 0)
(0.0118465 -3.93994e-06 0)
(0.0118556 -2.70583e-06 0)
(0.0118618 -1.76929e-06 0)
(0.0118657 -1.07205e-06 0)
(0.011868 -5.64788e-07 0)
(0.0118692 -2.06249e-07 0)
(0.0118695 3.77127e-08 0)
(0.0118693 1.94984e-07 0)
(0.0118687 2.88036e-07 0)
(0.011868 3.34703e-07 0)
(0.0118671 3.48911e-07 0)
(0.0118662 3.41337e-07 0)
(0.0118654 3.20007e-07 0)
(0.0118646 2.9081e-07 0)
(0.0118639 2.57955e-07 0)
(0.0118633 2.24342e-07 0)
(0.0118628 1.91881e-07 0)
(0.0118623 1.61747e-07 0)
(0.0118619 1.34577e-07 0)
(0.0118616 1.10636e-07 0)
(0.0118613 8.9932e-08 0)
(0.0118611 7.23116e-08 0)
(0.0118609 5.75237e-08 0)
(0.0118608 4.52683e-08 0)
(0.0118607 3.52288e-08 0)
(0.0118606 2.70945e-08 0)
(0.0118606 2.05732e-08 0)
(0.0118605 1.53997e-08 0)
(0.0118605 1.13387e-08 0)
(0.0118604 8.18575e-09 0)
(0.0118604 5.76619e-09 0)
(0.0118604 3.93283e-09 0)
(0.0118604 2.56328e-09 0)
(0.0118604 1.55688e-09 0)
(0.0118604 8.31762e-10 0)
(0.0118604 3.22022e-10 0)
(0.0118604 -2.4872e-11 0)
(0.0118604 -2.50373e-10 0)
(0.0118604 -3.86852e-10 0)
(0.0118604 -4.59326e-10 0)
(0.0118604 -4.86908e-10 0)
(0.0118604 -4.8402e-10 0)
(0.0118604 -4.61388e-10 0)
(0.0118604 -4.2686e-10 0)
(0.0118604 -3.86067e-10 0)
(0.0118604 -3.42943e-10 0)
(0.0118604 -3.00158e-10 0)
(0.0118604 -2.59435e-10 0)
(0.0118604 -2.21804e-10 0)
(0.0118604 -1.87805e-10 0)
(0.0118604 -1.57629e-10 0)
(0.0118604 -1.31236e-10 0)
(0.0118604 -1.08438e-10 0)
(0.0118604 -8.89569e-11 0)
(0.0118604 -7.24703e-11 0)
(0.0118604 -5.86375e-11 0)
(0.0118604 -4.71243e-11 0)
(0.0118604 -3.76132e-11 0)
(0.0118604 -2.98112e-11 0)
(0.0118604 -2.34571e-11 0)
(0.0118604 -1.83148e-11 0)
(0.0118604 -1.41821e-11 0)
(0.0118604 -1.08849e-11 0)
(0.0118604 -8.27226e-12 0)
(0.0118604 -6.21727e-12 0)
(0.0118604 -4.61119e-12 0)
(0.0118604 -3.36719e-12 0)
(0.0118604 -2.41125e-12 0)
(0.0118604 -1.68299e-12 0)
(0.0118604 -1.13508e-12 0)
(0.0118604 -7.25966e-13 0)
(0.0118604 -4.26733e-13 0)
(0.0118604 -2.11157e-13 0)
(0.0118604 -6.07667e-14 0)
(0.0118604 3.97491e-14 0)
(0.0118604 1.03964e-13 0)
(0.0118604 1.41728e-13 0)
(0.0118604 1.59045e-13 0)
(0.0118604 1.62106e-13 0)
(0.0118604 1.56602e-13 0)
(0.0118604 1.46319e-13 0)
(0.0118604 1.3531e-13 0)
(0.0118604 1.2311e-13 0)
(0.0118604 1.10544e-13 0)
(0.0118604 9.8517e-14 0)
(0.0118604 8.7502e-14 0)
(0.0118604 7.71276e-14 0)
(0.0118604 6.77552e-14 0)
(0.0118604 5.76948e-14 0)
(0.0118604 4.81061e-14 0)
(0.0118604 3.94094e-14 0)
(0.0118604 3.31672e-14 0)
(0.0118604 2.71136e-14 0)
(0.0118604 2.1631e-14 0)
(0.0118604 1.65497e-14 0)
(0.0118604 1.19991e-14 0)
(0.0118604 7.52985e-15 0)
(0.0118604 3.01587e-15 0)
(0.0118604 -1.57034e-15 0)
(0.0118604 -5.65605e-15 0)
(0.0118604 -9.04491e-15 0)
(0.0118604 -1.1105e-14 0)
(0.0118604 -1.22364e-14 0)
(0.0118604 -1.23335e-14 0)
(0.0118604 -1.07054e-14 0)
(0.0118604 -8.52304e-15 0)
(0.0118604 -5.01887e-15 0)
(0.0118604 -1.47853e-15 0)
(0.0118604 3.46582e-15 0)
(0.0118604 9.22026e-15 0)
(0.0118604 1.28518e-14 0)
(0.0118604 1.93802e-14 0)
(0.0118604 -2.17217e-15 0)
(0.0118604 -1.88438e-14 0)
(0.0118604 -1.46469e-13 0)
(0.0118604 -3.90659e-13 0)
(0.0118604 -6.34924e-13 0)
(0.0118604 -2.7553e-12 0)
(0.0118604 -1.89398e-12 0)
(-4.03575e-05 -0.000158374 0)
(-0.000516244 8.3983e-05 0)
(-0.00142822 0.000409063 0)
(-0.00263214 0.000699974 0)
(-0.0040763 0.000962403 0)
(-0.00568867 0.00118334 0)
(-0.00740055 0.00137107 0)
(-0.0091611 0.00152277 0)
(-0.0109241 0.00164377 0)
(-0.0126571 0.00173491 0)
(-0.0143302 0.00179763 0)
(-0.0159186 0.00183135 0)
(-0.017399 0.00183511 0)
(-0.0187496 0.00180755 0)
(-0.0199498 0.00174762 0)
(-0.0209806 0.0016548 0)
(-0.0218248 0.00152937 0)
(-0.0224672 0.00137244 0)
(-0.0228947 0.00118592 0)
(-0.023097 0.00097244 0)
(-0.0230663 0.000735215 0)
(-0.0227973 0.0004779 0)
(-0.0222874 0.000204491 0)
(-0.0215369 -8.07708e-05 0)
(-0.0205485 -0.000373458 0)
(-0.0193277 -0.000669004 0)
(-0.0178827 -0.000962731 0)
(-0.0162243 -0.00124987 0)
(-0.0143662 -0.00152559 0)
(-0.0123249 -0.00178501 0)
(-0.0101196 -0.00202328 0)
(-0.00777247 -0.00223556 0)
(-0.00530854 -0.0024172 0)
(-0.00275555 -0.00256379 0)
(-0.000143926 -0.00267132 0)
(0.00249349 -0.00273638 0)
(0.00512188 -0.00275641 0)
(0.00770502 -0.00272994 0)
(0.0102061 -0.00265686 0)
(0.0125889 -0.00253867 0)
(0.0148192 -0.00237869 0)
(0.016866 -0.00218206 0)
(0.0187038 -0.0019557 0)
(0.0203135 -0.00170804 0)
(0.0216844 -0.00144862 0)
(0.0228147 -0.00118761 0)
(0.0237115 -0.000935252 0)
(0.0243908 -0.000701267 0)
(0.0248757 -0.000494213 0)
(0.0251946 -0.000320835 0)
(0.0253796 -0.000185494 0)
(0.0254646 -8.98185e-05 0)
(0.0254843 -3.27649e-05 0)
(0.0254721 -1.11373e-05 0)
(0.0254596 -2.03884e-05 0)
(0.0254742 -5.53284e-05 0)
(0.0255382 -0.000110436 0)
(0.0256673 -0.000179793 0)
(0.0258702 -0.00025694 0)
(0.0261483 -0.000334956 0)
(0.0264962 -0.000406902 0)
(0.0269025 -0.000466525 0)
(0.0273511 -0.000509034 0)
(0.0278232 -0.000531701 0)
(0.0282999 -0.000534126 0)
(0.0287635 -0.000518079 0)
(0.0291998 -0.000486966 0)
(0.0295988 -0.00044508 0)
(0.0299544 -0.000396847 0)
(0.0302648 -0.000346226 0)
(0.0305306 -0.000296356 0)
(0.0307547 -0.000249449 0)
(0.030941 -0.000206852 0)
(0.031094 -0.000169207 0)
(0.0312182 -0.000136651 0)
(0.0313178 -0.000108985 0)
(0.0313968 -8.58198e-05 0)
(0.0314586 -6.66734e-05 0)
(0.0315063 -5.10387e-05 0)
(0.0315425 -3.84217e-05 0)
(0.0315695 -2.83625e-05 0)
(0.0315892 -2.04451e-05 0)
(0.0316032 -1.43005e-05 0)
(0.0316128 -9.60612e-06 0)
(0.0316191 -6.08369e-06 0)
(0.0316229 -3.49593e-06 0)
(0.0316249 -1.64311e-06 0)
(0.0316257 -3.59227e-07 0)
(0.0316256 4.91823e-07 0)
(0.031625 1.02002e-06 0)
(0.031624 1.31288e-06 0)
(0.0316229 1.43895e-06 0)
(0.0316218 1.45097e-06 0)
(0.0316206 1.38875e-06 0)
(0.0316196 1.28171e-06 0)
(0.0316186 1.15105e-06 0)
(0.0316178 1.01159e-06 0)
(0.031617 8.73295e-07 0)
(0.0316164 7.42498e-07 0)
(0.0316159 6.22884e-07 0)
(0.0316154 5.16257e-07 0)
(0.031615 4.23127e-07 0)
(0.0316147 3.43154e-07 0)
(0.0316145 2.75473e-07 0)
(0.0316143 2.18927e-07 0)
(0.0316142 1.72231e-07 0)
(0.031614 1.34084e-07 0)
(0.0316139 1.03239e-07 0)
(0.0316139 7.8545e-08 0)
(0.0316138 5.89694e-08 0)
(0.0316138 4.3605e-08 0)
(0.0316137 3.16698e-08 0)
(0.0316137 2.2499e-08 0)
(0.0316137 1.55356e-08 0)
(0.0316137 1.03176e-08 0)
(0.0316137 6.46636e-09 0)
(0.0316137 3.67456e-09 0)
(0.0316137 1.69511e-09 0)
(0.0316137 3.31258e-10 0)
(0.0316137 -5.72194e-10 0)
(0.0316137 -1.1365e-09 0)
(0.0316137 -1.45546e-09 0)
(0.0316137 -1.60083e-09 0)
(0.0316137 -1.62689e-09 0)
(0.0316137 -1.57416e-09 0)
(0.0316137 -1.47239e-09 0)
(0.0316137 -1.34311e-09 0)
(0.0316137 -1.20147e-09 0)
(0.0316137 -1.0579e-09 0)
(0.0316137 -9.19227e-10 0)
(0.0316137 -7.89701e-10 0)
(0.0316137 -6.71683e-10 0)
(0.0316137 -5.66207e-10 0)
(0.0316137 -4.73411e-10 0)
(0.0316137 -3.92834e-10 0)
(0.0316137 -3.2365e-10 0)
(0.0316137 -2.64837e-10 0)
(0.0316137 -2.1528e-10 0)
(0.0316137 -1.73862e-10 0)
(0.0316137 -1.39506e-10 0)
(0.0316137 -1.11202e-10 0)
(0.0316137 -8.80451e-11 0)
(0.0316137 -6.92224e-11 0)
(0.0316137 -5.40262e-11 0)
(0.0316137 -4.18353e-11 0)
(0.0316137 -3.21165e-11 0)
(0.0316137 -2.442e-11 0)
(0.0316137 -1.83638e-11 0)
(0.0316137 -1.36334e-11 0)
(0.0316137 -9.96867e-12 0)
(0.0316137 -7.15413e-12 0)
(0.0316137 -5.01243e-12 0)
(0.0316137 -3.40142e-12 0)
(0.0316137 -2.2043e-12 0)
(0.0316137 -1.32803e-12 0)
(0.0316137 -6.99722e-13 0)
(0.0316137 -2.5973e-13 0)
(0.0316137 3.90215e-14 0)
(0.0316137 2.33414e-13 0)
(0.0316137 3.51065e-13 0)
(0.0316137 4.13308e-13 0)
(0.0316137 4.37404e-13 0)
(0.0316137 4.35972e-13 0)
(0.0316137 4.19874e-13 0)
(0.0316137 3.93517e-13 0)
(0.0316137 3.60331e-13 0)
(0.0316137 3.24643e-13 0)
(0.0316137 2.87668e-13 0)
(0.0316137 2.52656e-13 0)
(0.0316137 2.1972e-13 0)
(0.0316137 1.88293e-13 0)
(0.0316137 1.59324e-13 0)
(0.0316137 1.32787e-13 0)
(0.0316137 1.09546e-13 0)
(0.0316137 8.71748e-14 0)
(0.0316137 6.56769e-14 0)
(0.0316137 4.3816e-14 0)
(0.0316137 2.26465e-14 0)
(0.0316137 1.61867e-15 0)
(0.0316137 -1.89483e-14 0)
(0.0316137 -3.63531e-14 0)
(0.0316137 -5.20071e-14 0)
(0.0316137 -6.13946e-14 0)
(0.0316137 -6.93381e-14 0)
(0.0316137 -7.38948e-14 0)
(0.0316137 -7.21078e-14 0)
(0.0316137 -6.72176e-14 0)
(0.0316137 -5.76224e-14 0)
(0.0316137 -4.27586e-14 0)
(0.0316137 -2.26069e-14 0)
(0.0316137 6.94039e-15 0)
(0.0316137 4.27589e-14 0)
(0.0316137 9.53009e-14 0)
(0.0316137 1.1327e-13 0)
(0.0316137 1.92208e-13 0)
(0.0316137 1.49014e-14 0)
(0.0316137 -2.06009e-13 0)
(0.0316137 -4.34638e-13 0)
(0.0316137 -4.80916e-12 0)
(0.0316137 -4.0381e-12 0)
(-0.000225867 0.000451266 0)
(-0.00145587 0.00130476 0)
(-0.00320179 0.00203514 0)
(-0.00511488 0.002559 0)
(-0.00708358 0.00296427 0)
(-0.00901426 0.00322796 0)
(-0.0108425 0.00339159 0)
(-0.0125378 0.00346778 0)
(-0.0140766 0.00347949 0)
(-0.0154476 0.00343553 0)
(-0.0166396 0.00334286 0)
(-0.0176441 0.00320379 0)
(-0.0184524 0.00301952 0)
(-0.0190563 0.00279049 0)
(-0.0194484 0.00251739 0)
(-0.0196223 0.00220148 0)
(-0.0195724 0.0018448 0)
(-0.0192945 0.00145019 0)
(-0.0187859 0.00102125 0)
(-0.018045 0.000562241 0)
(-0.0170719 7.79826e-05 0)
(-0.0158679 -0.000426262 0)
(-0.0144362 -0.000944841 0)
(-0.0127813 -0.00147177 0)
(-0.0109099 -0.00200076 0)
(-0.00883005 -0.00252522 0)
(-0.00655228 -0.00303827 0)
(-0.00408914 -0.00353271 0)
(-0.00145561 -0.00400108 0)
(0.00133077 -0.00443568 0)
(0.00424971 -0.00482856 0)
(0.00727799 -0.00517171 0)
(0.0103893 -0.00545706 0)
(0.0135542 -0.00567681 0)
(0.01674 -0.00582357 0)
(0.0199109 -0.00589082 0)
(0.0230282 -0.00587332 0)
(0.0260508 -0.00576771 0)
(0.028936 -0.00557316 0)
(0.0316408 -0.005292 0)
(0.0341235 -0.00493037 0)
(0.0363454 -0.00449854 0)
(0.0382736 -0.00401095 0)
(0.039883 -0.00348568 0)
(0.0411587 -0.0029434 0)
(0.0420982 -0.0024057 0)
(0.0427125 -0.0018931 0)
(0.0430264 -0.0014231 0)
(0.0430777 -0.00100889 0)
(0.0429155 -0.000659052 0)
(0.0425964 -0.000378455 0)
(0.0421802 -0.000169532 0)
(0.0417244 -3.31456e-05 0)
(0.0412792 3.16147e-05 0)
(0.0408846 2.84682e-05 0)
(0.0405707 -3.50523e-05 0)
(0.0403587 -0.000147436 0)
(0.0402629 -0.000294075 0)
(0.0402907 -0.000458746 0)
(0.0404419 -0.000625115 0)
(0.0407079 -0.00077799 0)
(0.0410725 -0.000904452 0)
(0.0415127 -0.000994948 0)
(0.0420018 -0.00104422 0)
(0.0425121 -0.00105173 0)
(0.0430181 -0.00102139 0)
(0.043499 -0.000960401 0)
(0.0439403 -0.00087776 0)
(0.0443336 -0.0007826 0)
(0.0446758 -0.000682964 0)
(0.044968 -0.0005851 0)
(0.045214 -0.000493291 0)
(0.0454184 -0.000410054 0)
(0.0455868 -0.000336519 0)
(0.0457241 -0.000272852 0)
(0.045835 -0.000218613 0)
(0.0459238 -0.00017303 0)
(0.0459941 -0.000135184 0)
(0.0460489 -0.000104122 0)
(0.0460912 -7.89188e-05 0)
(0.0461232 -5.87142e-05 0)
(0.0461469 -4.27233e-05 0)
(0.0461641 -3.02435e-05 0)
(0.0461762 -2.06542e-05 0)
(0.0461844 -1.34142e-05 0)
(0.0461897 -8.05755e-06 0)
(0.0461928 -4.189e-06 0)
(0.0461944 -1.47766e-06 0)
(0.0461949 3.49207e-07 0)
(0.0461947 1.51299e-06 0)
(0.046194 2.19051e-06 0)
(0.0461931 2.52067e-06 0)
(0.0461921 2.61068e-06 0)
(0.046191 2.54175e-06 0)
(0.04619 2.37411e-06 0)
(0.0461891 2.15142e-06 0)
(0.0461882 1.90443e-06 0)
(0.0461875 1.65403e-06 0)
(0.0461868 1.41374e-06 0)
(0.0461863 1.1917e-06 0)
(0.0461858 9.92176e-07 0)
(0.0461854 8.16774e-07 0)
(0.0461851 6.65316e-07 0)
(0.0461848 5.36505e-07 0)
(0.0461846 4.28396e-07 0)
(0.0461845 3.38733e-07 0)
(0.0461843 2.65175e-07 0)
(0.0461842 2.05442e-07 0)
(0.0461842 1.57409e-07 0)
(0.0461841 1.19154e-07 0)
(0.0461841 8.89781e-08 0)
(0.046184 6.54078e-08 0)
(0.046184 4.71853e-08 0)
(0.046184 3.32512e-08 0)
(0.046184 2.27239e-08 0)
(0.046184 1.48775e-08 0)
(0.046184 9.1207e-09 0)
(0.046184 4.97592e-09 0)
(0.0461839 2.06133e-09 0)
(0.0461839 7.43393e-11 0)
(0.0461839 -1.22263e-09 0)
(0.0461839 -2.01434e-09 0)
(0.0461839 -2.44304e-09 0)
(0.046184 -2.61705e-09 0)
(0.046184 -2.6179e-09 0)
(0.046184 -2.50612e-09 0)
(0.046184 -2.32593e-09 0)
(0.046184 -2.10904e-09 0)
(0.046184 -1.87764e-09 0)
(0.046184 -1.64676e-09 0)
(0.046184 -1.42617e-09 0)
(0.046184 -1.22173e-09 0)
(0.046184 -1.03657e-09 0)
(0.046184 -8.71881e-10 0)
(0.046184 -7.27565e-10 0)
(0.046184 -6.02672e-10 0)
(0.046184 -4.95751e-10 0)
(0.046184 -4.05085e-10 0)
(0.046184 -3.28859e-10 0)
(0.046184 -2.65274e-10 0)
(0.046184 -2.12619e-10 0)
(0.046184 -1.69315e-10 0)
(0.046184 -1.33937e-10 0)
(0.046184 -1.05219e-10 0)
(0.046184 -8.20555e-11 0)
(0.046184 -6.34892e-11 0)
(0.046184 -4.87e-11 0)
(0.046184 -3.6996e-11 0)
(0.046184 -2.77976e-11 0)
(0.046184 -2.06219e-11 0)
(0.046184 -1.50682e-11 0)
(0.046184 -1.08104e-11 0)
(0.046184 -7.57979e-12 0)
(0.046184 -5.15708e-12 0)
(0.046184 -3.36148e-12 0)
(0.046184 -2.04776e-12 0)
(0.046184 -1.10439e-12 0)
(0.046184 -4.39609e-13 0)
(0.046184 1.57258e-14 0)
(0.046184 3.17058e-13 0)
(0.046184 5.06463e-13 0)
(0.046184 6.12028e-13 0)
(0.046184 6.58761e-13 0)
(0.046184 6.64001e-13 0)
(0.046184 6.41717e-13 0)
(0.046184 6.02074e-13 0)
(0.046184 5.50533e-13 0)
(0.046184 4.93572e-13 0)
(0.046184 4.34866e-13 0)
(0.046184 3.78802e-13 0)
(0.046184 3.27458e-13 0)
(0.046184 2.79058e-13 0)
(0.046184 2.34096e-13 0)
(0.046184 1.90805e-13 0)
(0.046184 1.48764e-13 0)
(0.046184 1.07968e-13 0)
(0.046184 6.63775e-14 0)
(0.046184 2.59816e-14 0)
(0.046184 -1.11869e-14 0)
(0.046184 -4.57733e-14 0)
(0.046184 -7.4389e-14 0)
(0.046184 -9.79399e-14 0)
(0.046184 -1.17114e-13 0)
(0.046184 -1.28587e-13 0)
(0.046184 -1.3547e-13 0)
(0.046184 -1.36518e-13 0)
(0.046184 -1.33891e-13 0)
(0.046184 -1.27096e-13 0)
(0.046184 -1.12702e-13 0)
(0.046184 -8.85652e-14 0)
(0.046184 -4.83951e-14 0)
(0.046184 1.47389e-14 0)
(0.046184 1.0324e-13 0)
(0.046184 2.15856e-13 0)
(0.046184 3.93335e-13 0)
(0.046184 4.30452e-13 0)
(0.046184 7.49827e-13 0)
(0.046184 4.49792e-13 0)
(0.046184 -1.01945e-12 0)
(0.046184 -2.87618e-13 0)
(-0.000384397 0.00138831 0)
(-0.00203951 0.00297514 0)
(-0.00399849 0.00395762 0)
(-0.00584184 0.00446594 0)
(-0.00744892 0.00475586 0)
(-0.00882263 0.00484487 0)
(-0.00995012 0.00481636 0)
(-0.0108558 0.00469518 0)
(-0.0115449 0.00451124 0)
(-0.012029 0.00427346 0)
(-0.0123116 0.00398805 0)
(-0.012396 0.003656 0)
(-0.0122827 0.00327753 0)
(-0.0119712 0.00285234 0)
(-0.0114605 0.00238074 0)
(-0.0107493 0.00186376 0)
(-0.00983612 0.00130341 0)
(-0.00871996 0.000702665 0)
(-0.00740008 6.537e-05 0)
(-0.00587639 -0.000603806 0)
(-0.00414953 -0.00129947 0)
(-0.00222109 -0.0020156 0)
(-9.3777e-05 -0.00274553 0)
(0.00222835 -0.00348208 0)
(0.00473969 -0.00421746 0)
(0.00743288 -0.00494333 0)
(0.0102985 -0.00565076 0)
(0.013325 -0.00633022 0)
(0.0164982 -0.00697159 0)
(0.0198012 -0.00756419 0)
(0.0232144 -0.00809684 0)
(0.0267147 -0.00855791 0)
(0.0302758 -0.00893549 0)
(0.0338677 -0.00921759 0)
(0.0374567 -0.00939251 0)
(0.0410053 -0.00944927 0)
(0.0444723 -0.0093783 0)
(0.0478133 -0.00917226 0)
(0.0509811 -0.00882705 0)
(0.0539273 -0.00834289 0)
(0.0566035 -0.00772538 0)
(0.0589631 -0.00698639 0)
(0.0609631 -0.00614457 0)
(0.0625662 -0.00522536 0)
(0.0637432 -0.00426048 0)
(0.0644748 -0.00328674 0)
(0.0647545 -0.00234413 0)
(0.064591 -0.00147332 0)
(0.0640116 -0.000712331 0)
(0.0630636 -9.2512e-05 0)
(0.0618151 0.00036581 0)
(0.0603518 0.000656885 0)
(0.0587716 0.000790482 0)
(0.0571756 0.000788694 0)
(0.0556593 0.000679242 0)
(0.0543023 0.000488562 0)
(0.0531619 0.000238492 0)
(0.0522696 -5.24469e-05 0)
(0.0516344 -0.000365591 0)
(0.051248 -0.00067985 0)
(0.0510899 -0.000972197 0)
(0.051131 -0.00122042 0)
(0.0513348 -0.00140667 0)
(0.0516602 -0.00152038 0)
(0.052064 -0.00155975 0)
(0.0525058 -0.00153144 0)
(0.052951 -0.00144845 0)
(0.0533738 -0.00132704 0)
(0.0537578 -0.00118366 0)
(0.0540951 -0.00103247 0)
(0.0543842 -0.000884137 0)
(0.0546278 -0.000745624 0)
(0.0548309 -0.000620715 0)
(0.0549988 -0.00051085 0)
(0.0551369 -0.000415959 0)
(0.0552499 -0.000335118 0)
(0.0553418 -0.000267015 0)
(0.0554159 -0.000210215 0)
(0.0554751 -0.000163307 0)
(0.0555218 -0.00012497 0)
(0.0555582 -9.39886e-05 0)
(0.0555861 -6.92606e-05 0)
(0.0556071 -4.97929e-05 0)
(0.0556225 -3.4698e-05 0)
(0.0556336 -2.31913e-05 0)
(0.0556413 -1.45876e-05 0)
(0.0556465 -8.29758e-06 0)
(0.0556497 -3.82179e-06 0)
(0.0556516 -7.44178e-07 0)
(0.0556525 1.27609e-06 0)
(0.0556527 2.51347e-06 0)
(0.0556525 3.18512e-06 0)
(0.055652 3.45979e-06 0)
(0.0556513 3.46619e-06 0)
(0.0556506 3.30052e-06 0)
(0.0556499 3.03307e-06 0)
(0.0556493 2.71394e-06 0)
(0.0556486 2.37768e-06 0)
(0.0556481 2.04714e-06 0)
(0.0556476 1.7366e-06 0)
(0.0556472 1.4541e-06 0)
(0.0556468 1.20336e-06 0)
(0.0556466 9.8514e-07 0)
(0.0556463 7.98302e-07 0)
(0.0556461 6.40566e-07 0)
(0.0556459 5.09043e-07 0)
(0.0556458 4.00602e-07 0)
(0.0556457 3.1212e-07 0)
(0.0556456 2.40633e-07 0)
(0.0556456 1.83427e-07 0)
(0.0556455 1.38081e-07 0)
(0.0556455 1.02479e-07 0)
(0.0556455 7.48001e-08 0)
(0.0556454 5.35052e-08 0)
(0.0556454 3.73052e-08 0)
(0.0556454 2.51338e-08 0)
(0.0556454 1.61182e-08 0)
(0.0556454 9.55069e-09 0)
(0.0556454 4.86282e-09 0)
(0.0556454 1.60199e-09 0)
(0.0556454 -5.88787e-10 0)
(0.0556454 -1.98854e-09 0)
(0.0556454 -2.81326e-09 0)
(0.0556454 -3.22844e-09 0)
(0.0556454 -3.35947e-09 0)
(0.0556454 -3.3002e-09 0)
(0.0556454 -3.11985e-09 0)
(0.0556454 -2.86863e-09 0)
(0.0556454 -2.58224e-09 0)
(0.0556454 -2.28535e-09 0)
(0.0556454 -1.99443e-09 0)
(0.0556454 -1.71993e-09 0)
(0.0556454 -1.46789e-09 0)
(0.0556454 -1.24128e-09 0)
(0.0556454 -1.04093e-09 0)
(0.0556454 -8.66227e-10 0)
(0.0556454 -7.15682e-10 0)
(0.0556454 -5.8728e-10 0)
(0.0556454 -4.7876e-10 0)
(0.0556454 -3.87796e-10 0)
(0.0556454 -3.12127e-10 0)
(0.0556454 -2.49626e-10 0)
(0.0556454 -1.98351e-10 0)
(0.0556454 -1.56556e-10 0)
(0.0556454 -1.22706e-10 0)
(0.0556454 -9.54588e-11 0)
(0.0556454 -7.36629e-11 0)
(0.0556454 -5.63388e-11 0)
(0.0556454 -4.26591e-11 0)
(0.0556454 -3.1936e-11 0)
(0.0556454 -2.35982e-11 0)
(0.0556454 -1.717e-11 0)
(0.0556454 -1.22603e-11 0)
(0.0556454 -8.54781e-12 0)
(0.0556454 -5.77194e-12 0)
(0.0556454 -3.71972e-12 0)
(0.0556454 -2.224e-12 0)
(0.0556454 -1.15209e-12 0)
(0.0556454 -3.9739e-13 0)
(0.0556454 1.18823e-13 0)
(0.0556454 4.59457e-13 0)
(0.0556454 6.68885e-13 0)
(0.0556454 7.81734e-13 0)
(0.0556454 8.27346e-13 0)
(0.0556454 8.24765e-13 0)
(0.0556454 7.91285e-13 0)
(0.0556454 7.37011e-13 0)
(0.0556454 6.70501e-13 0)
(0.0556454 6.00655e-13 0)
(0.0556454 5.31069e-13 0)
(0.0556454 4.64845e-13 0)
(0.0556454 4.01183e-13 0)
(0.0556454 3.39359e-13 0)
(0.0556454 2.79396e-13 0)
(0.0556454 2.19579e-13 0)
(0.0556454 1.58925e-13 0)
(0.0556454 9.74929e-14 0)
(0.0556454 3.66937e-14 0)
(0.0556454 -2.11723e-14 0)
(0.0556454 -7.26675e-14 0)
(0.0556454 -1.16229e-13 0)
(0.0556454 -1.51477e-13 0)
(0.0556454 -1.76649e-13 0)
(0.0556454 -1.9355e-13 0)
(0.0556454 -2.0343e-13 0)
(0.0556454 -2.08351e-13 0)
(0.0556454 -2.10218e-13 0)
(0.0556454 -2.07121e-13 0)
(0.0556454 -1.97868e-13 0)
(0.0556454 -1.75608e-13 0)
(0.0556454 -1.34043e-13 0)
(0.0556454 -6.33209e-14 0)
(0.0556454 4.89554e-14 0)
(0.0556454 2.23102e-13 0)
(0.0556454 4.69072e-13 0)
(0.0556454 8.03574e-13 0)
(0.0556454 1.3932e-12 0)
(0.0556454 1.60089e-12 0)
(0.0556454 3.52492e-12 0)
(0.0556454 4.07872e-12 0)
(-0.000409312 0.00282111 0)
(-0.00179522 0.00483328 0)
(-0.00319447 0.005748 0)
(-0.00429765 0.00589193 0)
(-0.00500634 0.00585878 0)
(-0.00541302 0.0056536 0)
(-0.00553961 0.00537899 0)
(-0.00544905 0.00504045 0)
(-0.0051596 0.00465927 0)
(-0.00469482 0.00423648 0)
(-0.00406202 0.00377339 0)
(-0.00326761 0.00326778 0)
(-0.00231251 0.00271762 0)
(-0.00119655 0.00212109 0)
(8.22706e-05 0.00147733 0)
(0.00152645 0.000786541 0)
(0.0031389 5.01275e-05 0)
(0.00492248 -0.000729343 0)
(0.00687967 -0.00154817 0)
(0.00901234 -0.00240161 0)
(0.0113214 -0.00328392 0)
(0.0138066 -0.00418843 0)
(0.0164663 -0.00510761 0)
(0.0192971 -0.00603305 0)
(0.022294 -0.0069555 0)
(0.0254496 -0.00786485 0)
(0.0287546 -0.00875005 0)
(0.0321968 -0.00959918 0)
(0.0357617 -0.0103994 0)
(0.0394317 -0.011137 0)
(0.0431859 -0.0117975 0)
(0.0470004 -0.0123655 0)
(0.0508474 -0.0128252 0)
(0.0546953 -0.0131601 0)
(0.0585088 -0.013354 0)
(0.0622482 -0.0133911 0)
(0.0658704 -0.0132572 0)
(0.0693294 -0.0129409 0)
(0.0725773 -0.0124346 0)
(0.0755665 -0.0117366 0)
(0.0782511 -0.010852 0)
(0.0805896 -0.00979396 0)
(0.082546 -0.00858424 0)
(0.0840914 -0.00725266 0)
(0.085204 -0.00583649 0)
(0.0858686 -0.00437894 0)
(0.0860764 -0.00292759 0)
(0.0858234 -0.00153272 0)
(0.0851111 -0.000245516 0)
(0.0839477 0.000883841 0)
(0.0823517 0.00180882 0)
(0.0803573 0.00249018 0)
(0.0780214 0.00290079 0)
(0.0754285 0.00303144 0)
(0.0726913 0.00289601 0)
(0.0699429 0.00253329 0)
(0.0673222 0.00200211 0)
(0.0649545 0.00136998 0)
(0.0629338 0.000700463 0)
(0.0613126 4.58681e-05 0)
(0.0601004 -0.000553155 0)
(0.0592723 -0.00106502 0)
(0.0587799 -0.00146612 0)
(0.0585616 -0.00174233 0)
(0.0585514 -0.00189138 0)
(0.0586848 -0.00192353 0)
(0.058905 -0.00185948 0)
(0.0591657 -0.00172596 0)
(0.0594338 -0.00155047 0)
(0.0596881 -0.00135703 0)
(0.0599174 -0.00116369 0)
(0.0601176 -0.000982171 0)
(0.0602889 -0.000818669 0)
(0.0604338 -0.000675413 0)
(0.0605556 -0.000552162 0)
(0.0606573 -0.000447398 0)
(0.0607419 -0.000359117 0)
(0.0608118 -0.000285265 0)
(0.060869 -0.000223937 0)
(0.0609155 -0.000173431 0)
(0.0609527 -0.00013224 0)
(0.0609822 -9.90225e-05 0)
(0.0610051 -7.2576e-05 0)
(0.0610227 -5.18213e-05 0)
(0.0610359 -3.57927e-05 0)
(0.0610457 -2.36342e-05 0)
(0.0610528 -1.45972e-05 0)
(0.0610577 -8.03773e-06 0)
(0.061061 -3.4113e-06 0)
(0.0610631 -2.65754e-07 0)
(0.0610644 1.76753e-06 0)
(0.0610651 2.98366e-06 0)
(0.0610653 3.61461e-06 0)
(0.0610652 3.83935e-06 0)
(0.061065 3.79332e-06 0)
(0.0610647 3.57689e-06 0)
(0.0610643 3.26276e-06 0)
(0.0610639 2.90218e-06 0)
(0.0610636 2.53004e-06 0)
(0.0610632 2.16911e-06 0)
(0.0610629 1.83322e-06 0)
(0.0610626 1.52988e-06 0)
(0.0610624 1.2622e-06 0)
(0.0610622 1.03038e-06 0)
(0.061062 8.32718e-07 0)
(0.0610619 6.66455e-07 0)
(0.0610618 5.28276e-07 0)
(0.0610617 4.14689e-07 0)
(0.0610616 3.22266e-07 0)
(0.0610616 2.47794e-07 0)
(0.0610615 1.88351e-07 0)
(0.0610615 1.41349e-07 0)
(0.0610614 1.04539e-07 0)
(0.0610614 7.59945e-08 0)
(0.0610614 5.40922e-08 0)
(0.0610614 3.74774e-08 0)
(0.0610614 2.50333e-08 0)
(0.0610614 1.58482e-08 0)
(0.0610614 9.18486e-09 0)
(0.0610614 4.45245e-09 0)
(0.0610614 1.18187e-09 0)
(0.0610614 -9.9601e-10 0)
(0.0610614 -2.36901e-09 0)
(0.0610614 -3.15937e-09 0)
(0.0610614 -3.53689e-09 0)
(0.0610614 -3.62989e-09 0)
(0.0610614 -3.53407e-09 0)
(0.0610614 -3.3198e-09 0)
(0.0610614 -3.03787e-09 0)
(0.0610614 -2.7242e-09 0)
(0.0610614 -2.40346e-09 0)
(0.0610614 -2.09198e-09 0)
(0.0610614 -1.79993e-09 0)
(0.0610614 -1.53307e-09 0)
(0.0610614 -1.29405e-09 0)
(0.0610614 -1.08338e-09 0)
(0.0610614 -9.00172e-10 0)
(0.0610614 -7.42656e-10 0)
(0.0610614 -6.08574e-10 0)
(0.0610614 -4.95456e-10 0)
(0.0610614 -4.00795e-10 0)
(0.0610614 -3.2217e-10 0)
(0.0610614 -2.57323e-10 0)
(0.0610614 -2.04197e-10 0)
(0.0610614 -1.6095e-10 0)
(0.0610614 -1.25967e-10 0)
(0.0610614 -9.7844e-11 0)
(0.0610614 -7.53784e-11 0)
(0.0610614 -5.75498e-11 0)
(0.0610614 -4.34979e-11 0)
(0.0610614 -3.25045e-11 0)
(0.0610614 -2.39726e-11 0)
(0.0610614 -1.74061e-11 0)
(0.0610614 -1.23989e-11 0)
(0.0610614 -8.61613e-12 0)
(0.0610614 -5.7896e-12 0)
(0.0610614 -3.7021e-12 0)
(0.0610614 -2.18017e-12 0)
(0.0610614 -1.09092e-12 0)
(0.0610614 -3.27364e-13 0)
(0.0610614 1.91007e-13 0)
(0.0610614 5.27173e-13 0)
(0.0610614 7.31371e-13 0)
(0.0610614 8.36305e-13 0)
(0.0610614 8.72831e-13 0)
(0.0610614 8.62339e-13 0)
(0.0610614 8.21246e-13 0)
(0.0610614 7.64384e-13 0)
(0.0610614 6.97366e-13 0)
(0.0610614 6.26878e-13 0)
(0.0610614 5.56483e-13 0)
(0.0610614 4.8641e-13 0)
(0.0610614 4.18462e-13 0)
(0.0610614 3.48614e-13 0)
(0.0610614 2.77214e-13 0)
(0.0610614 2.03308e-13 0)
(0.0610614 1.27033e-13 0)
(0.0610614 5.22693e-14 0)
(0.0610614 -1.98691e-14 0)
(0.0610614 -8.49071e-14 0)
(0.0610614 -1.41991e-13 0)
(0.0610614 -1.88321e-13 0)
(0.0610614 -2.2399e-13 0)
(0.0610614 -2.49184e-13 0)
(0.0610614 -2.66187e-13 0)
(0.0610614 -2.79626e-13 0)
(0.0610614 -2.90725e-13 0)
(0.0610614 -2.98492e-13 0)
(0.0610614 -3.01177e-13 0)
(0.0610614 -2.92136e-13 0)
(0.0610614 -2.63164e-13 0)
(0.0610614 -2.01135e-13 0)
(0.0610614 -8.30043e-14 0)
(0.0610614 1.0636e-13 0)
(0.0610614 4.15379e-13 0)
(0.0610614 8.97214e-13 0)
(0.0610614 1.65762e-12 0)
(0.0610614 2.56489e-12 0)
(0.0610614 6.07705e-12 0)
(0.0610614 6.48642e-12 0)
(-0.000639567 0.00328415 0)
(-0.00173208 0.00555147 0)
(-0.00179719 0.00632454 0)
(-0.00157988 0.00619227 0)
(-0.00087813 0.0058662 0)
(-2.18432e-05 0.00541255 0)
(0.00103519 0.00492857 0)
(0.00220862 0.00441717 0)
(0.00350402 0.0038843 0)
(0.00490392 0.00332487 0)
(0.00641127 0.00273246 0)
(0.00802622 0.00210102 0)
(0.00975374 0.00142506 0)
(0.0115989 0.000700709 0)
(0.0135677 -7.45048e-05 0)
(0.0156661 -0.000901372 0)
(0.0179 -0.00177911 0)
(0.0202743 -0.00270536 0)
(0.0227932 -0.00367627 0)
(0.0254594 -0.00468659 0)
(0.0282741 -0.00572972 0)
(0.0312365 -0.00679787 0)
(0.0343441 -0.00788211 0)
(0.0375921 -0.00897241 0)
(0.0409734 -0.0100577 0)
(0.044479 -0.0111257 0)
(0.0480969 -0.0121631 0)
(0.051813 -0.0131554 0)
(0.05561 -0.0140868 0)
(0.0594675 -0.0149405 0)
(0.063362 -0.0156984 0)
(0.0672663 -0.0163412 0)
(0.0711493 -0.0168488 0)
(0.0749758 -0.0172 0)
(0.0787061 -0.0173737 0)
(0.0822971 -0.0173491 0)
(0.0857023 -0.0171076 0)
(0.0888742 -0.0166341 0)
(0.0917663 -0.0159197 0)
(0.0943362 -0.0149631 0)
(0.0965487 -0.0137727 0)
(0.098378 -0.0123675 0)
(0.0998096 -0.0107765 0)
(0.100839 -0.00903818 0)
(0.101473 -0.007198 0)
(0.101721 -0.00530616 0)
(0.101599 -0.00341513 0)
(0.101121 -0.00157754 0)
(0.100299 0.000155367 0)
(0.0991385 0.00173471 0)
(0.0976417 0.0031144 0)
(0.0958061 0.00425133 0)
(0.0936299 0.00510596 0)
(0.0911185 0.00564407 0)
(0.088295 0.00584078 0)
(0.0852106 0.00568736 0)
(0.0819533 0.00519984 0)
(0.0786476 0.00442595 0)
(0.0754415 0.00344525 0)
(0.0724832 0.00235891 0)
(0.0698945 0.00127198 0)
(0.0677506 0.000275846 0)
(0.0660732 -0.000562548 0)
(0.0648367 -0.00120408 0)
(0.0639829 -0.00163663 0)
(0.0634381 -0.00187192 0)
(0.0631262 -0.00194003 0)
(0.0629791 -0.00188161 0)
(0.062941 -0.00173959 0)
(0.0629699 -0.0015522 0)
(0.0630364 -0.00134896 0)
(0.0631207 -0.00114973 0)
(0.0632106 -0.000965875 0)
(0.0632987 -0.000802471 0)
(0.0633809 -0.000660608 0)
(0.0634552 -0.000539211 0)
(0.0635206 -0.000436289 0)
(0.063577 -0.000349634 0)
(0.0636248 -0.000277157 0)
(0.0636646 -0.000216988 0)
(0.0636974 -0.000167481 0)
(0.0637238 -0.000127177 0)
(0.0637449 -9.47611e-05 0)
(0.0637615 -6.90446e-05 0)
(0.0637743 -4.89502e-05 0)
(0.0637841 -3.35094e-05 0)
(0.0637914 -2.18634e-05 0)
(0.0637967 -1.32626e-05 0)
(0.0638006 -7.06509e-06 0)
(0.0638033 -2.7312e-06 0)
(0.0638051 1.84235e-07 0)
(0.0638063 2.04162e-06 0)
(0.063807 3.12741e-06 0)
(0.0638074 3.66518e-06 0)
(0.0638075 3.82618e-06 0)
(0.0638075 3.73907e-06 0)
(0.0638074 3.49851e-06 0)
(0.0638072 3.17254e-06 0)
(0.0638071 2.80868e-06 0)
(0.0638069 2.43898e-06 0)
(0.0638067 2.08403e-06 0)
(0.0638065 1.75612e-06 0)
(0.0638063 1.46164e-06 0)
(0.0638062 1.20295e-06 0)
(0.0638061 9.79737e-07 0)
(0.063806 7.90036e-07 0)
(0.0638059 6.30922e-07 0)