/*--------------------------------*- C++ -*----------------------------------*\
| =========                 |                                                 |
| \\      /  F ield         | OpenFOAM: The Open Source CFD Toolbox           |
|  \\    /   O peration     | Version:  4.1                                   |
|   \\  /    A nd           | Web:      www.OpenFOAM.org                      |
|    \\/     M anipulation  |                                                 |
\*---------------------------------------------------------------------------*/
FoamFile
{
    version     2.0;
    format      ascii;
    class       volVectorField;
    location    "863";
    object      U;
}
// * * * * * * * * * * * * * * * * * * * * * * * * * * * * * * * * * * * * * //

dimensions      [0 1 -1 0 0 0 0];

internalField   nonuniform List<vector> 
3264
(
(-2.66569e-06 -4.76406e-07 0)
(-0.000133199 3.05685e-05 0)
(-0.000389823 4.86693e-05 0)
(-0.000677074 5.10071e-05 0)
(-0.000978976 5.27299e-05 0)
(-0.00128489 5.21309e-05 0)
(-0.00158947 5.34234e-05 0)
(-0.00189407 5.40554e-05 0)
(-0.00219406 5.51432e-05 0)
(-0.00249014 5.57475e-05 0)
(-0.0027797 5.62775e-05 0)
(-0.00306291 5.64876e-05 0)
(-0.00333867 5.6539e-05 0)
(-0.003607 5.63921e-05 0)
(-0.00386754 5.61185e-05 0)
(-0.00412034 5.57288e-05 0)
(-0.00436532 5.52593e-05 0)
(-0.00460257 5.47262e-05 0)
(-0.00483214 5.41496e-05 0)
(-0.0050541 5.35415e-05 0)
(-0.00526852 5.29126e-05 0)
(-0.00547549 5.22697e-05 0)
(-0.00567503 5.16175e-05 0)
(-0.00586719 5.09583e-05 0)
(-0.00605196 5.02922e-05 0)
(-0.0062293 4.96171e-05 0)
(-0.00639915 4.89292e-05 0)
(-0.0065614 4.82222e-05 0)
(-0.00671588 4.7488e-05 0)
(-0.00686239 4.67163e-05 0)
(-0.00700067 4.58946e-05 0)
(-0.0071304 4.50085e-05 0)
(-0.0072512 4.40411e-05 0)
(-0.00736264 4.29741e-05 0)
(-0.00746422 4.17869e-05 0)
(-0.00755538 4.04579e-05 0)
(-0.00763551 3.89641e-05 0)
(-0.00770392 3.7282e-05 0)
(-0.00775992 3.53882e-05 0)
(-0.00780272 3.32595e-05 0)
(-0.00783153 3.08743e-05 0)
(-0.00784554 2.82131e-05 0)
(-0.00784391 2.52591e-05 0)
(-0.0078258 2.19992e-05 0)
(-0.00779041 1.84249e-05 0)
(-0.00773695 1.45324e-05 0)
(-0.00766468 1.0324e-05 0)
(-0.00757294 5.80798e-06 0)
(-0.00746114 9.99173e-07 0)
(-0.00732879 -4.08091e-06 0)
(-0.0071755 -9.40412e-06 0)
(-0.00700102 -1.49358e-05 0)
(-0.00680525 -2.06353e-05 0)
(-0.00658822 -2.64565e-05 0)
(-0.00635011 -3.23482e-05 0)
(-0.0060913 -3.82556e-05 0)
(-0.00581231 -4.41208e-05 0)
(-0.00551384 -4.98841e-05 0)
(-0.00519674 -5.54852e-05 0)
(-0.00486205 -6.0864e-05 0)
(-0.00451094 -6.59625e-05 0)
(-0.00414475 -7.07251e-05 0)
(-0.00376492 -7.51007e-05 0)
(-0.00337304 -7.90428e-05 0)
(-0.00297078 -8.25111e-05 0)
(-0.0025599 -8.5472e-05 0)
(-0.00214224 -8.78992e-05 0)
(-0.00171966 -8.97744e-05 0)
(-0.00129405 -9.10874e-05 0)
(-0.000867312 -9.18363e-05 0)
(-0.000441305 -9.20276e-05 0)
(-1.78624e-05 -9.16753e-05 0)
(0.000401248 -9.08014e-05 0)
(0.000814341 -8.94346e-05 0)
(0.00121983 -8.76096e-05 0)
(0.00161624 -8.53666e-05 0)
(0.00200222 -8.275e-05 0)
(0.00237657 -7.98074e-05 0)
(0.00273822 -7.65888e-05 0)
(0.00308626 -7.3145e-05 0)
(0.00341994 -6.95271e-05 0)
(0.00373866 -6.57853e-05 0)
(0.00404197 -6.19677e-05 0)
(0.00432958 -5.81202e-05 0)
(0.00460135 -5.4285e-05 0)
(0.00485726 -5.05006e-05 0)
(0.00509743 -4.68014e-05 0)
(0.00532208 -4.32171e-05 0)
(0.00553156 -3.97728e-05 0)
(0.00572629 -3.6489e-05 0)
(0.00590678 -3.33818e-05 0)
(0.00607359 -3.04627e-05 0)
(0.00622737 -2.77395e-05 0)
(0.00636878 -2.52161e-05 0)
(0.00649852 -2.28933e-05 0)
(0.0066173 -2.07688e-05 0)
(0.00672586 -1.88381e-05 0)
(0.00682493 -1.70946e-05 0)
(0.00691522 -1.553e-05 0)
(0.00699744 -1.41349e-05 0)
(0.00707228 -1.28989e-05 0)
(0.0071404 -1.18111e-05 0)
(0.00720244 -1.08604e-05 0)
(0.00725899 -1.00353e-05 0)
(0.00731062 -9.32477e-06 0)
(0.00735787 -8.7178e-06 0)
(0.00740122 -8.2039e-06 0)
(0.00744114 -7.77305e-06 0)
(0.00747804 -7.41576e-06 0)
(0.00751233 -7.12318e-06 0)
(0.00754434 -6.88705e-06 0)
(0.00757439 -6.69978e-06 0)
(0.00760278 -6.55436e-06 0)
(0.00762976 -6.44446e-06 0)
(0.00765555 -6.36431e-06 0)
(0.00768036 -6.30871e-06 0)
(0.00770437 -6.27302e-06 0)
(0.00772773 -6.2531e-06 0)
(0.00775056 -6.24528e-06 0)
(0.00777299 -6.24636e-06 0)
(0.00779511 -6.25351e-06 0)
(0.00781699 -6.26429e-06 0)
(0.00783871 -6.27661e-06 0)
(0.00786031 -6.28869e-06 0)
(0.00788184 -6.29903e-06 0)
(0.00790332 -6.30638e-06 0)
(0.00792477 -6.30973e-06 0)
(0.00794621 -6.30827e-06 0)
(0.00796764 -6.30137e-06 0)
(0.00798907 -6.28857e-06 0)
(0.00801049 -6.26954e-06 0)
(0.00803189 -6.24411e-06 0)
(0.00805326 -6.21217e-06 0)
(0.00807458 -6.17374e-06 0)
(0.00809583 -6.12891e-06 0)
(0.00811701 -6.07784e-06 0)
(0.00813808 -6.02074e-06 0)
(0.00815903 -5.95788e-06 0)
(0.00817984 -5.88955e-06 0)
(0.00820048 -5.81609e-06 0)
(0.00822094 -5.73785e-06 0)
(0.00824119 -5.6552e-06 0)
(0.00826121 -5.56851e-06 0)
(0.00828099 -5.47818e-06 0)
(0.0083005 -5.38458e-06 0)
(0.00831973 -5.2881e-06 0)
(0.00833867 -5.18911e-06 0)
(0.00835729 -5.08797e-06 0)
(0.00837559 -4.98504e-06 0)
(0.00839356 -4.88067e-06 0)
(0.00841117 -4.77516e-06 0)
(0.00842842 -4.66885e-06 0)
(0.00844531 -4.56201e-06 0)
(0.00846182 -4.45492e-06 0)
(0.00847795 -4.34785e-06 0)
(0.00849369 -4.24101e-06 0)
(0.00850905 -4.13465e-06 0)
(0.00852401 -4.02895e-06 0)
(0.00853858 -3.92411e-06 0)
(0.00855275 -3.82029e-06 0)
(0.00856653 -3.71765e-06 0)
(0.00857991 -3.61631e-06 0)
(0.0085929 -3.51639e-06 0)
(0.00860549 -3.418e-06 0)
(0.0086177 -3.32123e-06 0)
(0.00862953 -3.22615e-06 0)
(0.00864098 -3.13282e-06 0)
(0.00865205 -3.0413e-06 0)
(0.00866275 -2.95162e-06 0)
(0.00867309 -2.8638e-06 0)
(0.00868307 -2.77786e-06 0)
(0.00869271 -2.6938e-06 0)
(0.00870199 -2.61161e-06 0)
(0.00871094 -2.53126e-06 0)
(0.00871956 -2.45273e-06 0)
(0.00872786 -2.37597e-06 0)
(0.00873583 -2.3009e-06 0)
(0.00874351 -2.22744e-06 0)
(0.00875087 -2.15549e-06 0)
(0.00875795 -2.08491e-06 0)
(0.00876473 -2.01551e-06 0)
(0.00877123 -1.94706e-06 0)
(0.00877746 -1.87926e-06 0)
(0.00878341 -1.81168e-06 0)
(0.00878909 -1.74376e-06 0)
(0.0087945 -1.67473e-06 0)
(0.00879964 -1.6035e-06 0)
(0.00880451 -1.5286e-06 0)
(0.0088091 -1.4477e-06 0)
(0.00881338 -1.35845e-06 0)
(0.00881733 -1.25422e-06 0)
(0.00882092 -1.13571e-06 0)
(0.00882409 -9.74733e-07 0)
(0.00882668 -8.07553e-07 0)
(0.00882883 -5.03845e-07 0)
(0.00882956 -2.59665e-07 0)
(0.0088307 3.18063e-07 0)
(0.00882686 9.66498e-07 0)
(0.00882812 1.29853e-06 0)
(0.00881413 5.16438e-06 0)
(-8.33572e-05 0.000136423 0)
(-0.000582904 0.000379262 0)
(-0.00131133 0.000518324 0)
(-0.00208592 0.000562403 0)
(-0.00286557 0.000583349 0)
(-0.00363339 0.000585033 0)
(-0.00437605 0.000584936 0)
(-0.00509641 0.000578192 0)
(-0.00578728 0.000569195 0)
(-0.0064508 0.000556932 0)
(-0.00708428 0.000543189 0)
(-0.0076891 0.000528147 0)
(-0.00826488 0.000512524 0)
(-0.00881273 0.000496548 0)
(-0.00933311 0.000480495 0)
(-0.00982693 0.000464487 0)
(-0.0102949 0.00044862 0)
(-0.0107377 0.000432935 0)
(-0.0111559 0.000417448 0)
(-0.0115502 0.000402152 0)
(-0.011921 0.000387026 0)
(-0.0122686 0.000372033 0)
(-0.0125933 0.000357125 0)
(-0.0128953 0.000342247 0)
(-0.0131747 0.000327335 0)
(-0.0134314 0.000312314 0)
(-0.0136654 0.000297105 0)
(-0.0138763 0.000281622 0)
(-0.0140639 0.000265769 0)
(-0.0142277 0.000249449 0)
(-0.0143673 0.000232558 0)
(-0.0144819 0.000214988 0)
(-0.0145709 0.00019663 0)
(-0.0146335 0.000177376 0)
(-0.0146689 0.000157118 0)
(-0.014676 0.000135755 0)
(-0.014654 0.000113191 0)
(-0.0146017 8.93421e-05 0)
(-0.0145183 6.41356e-05 0)
(-0.0144025 3.75157e-05 0)
(-0.0142535 9.44499e-06 0)
(-0.0140703 -2.00926e-05 0)
(-0.0138518 -5.10895e-05 0)
(-0.0135972 -8.35123e-05 0)
(-0.0133059 -0.000117301 0)
(-0.0129771 -0.000152366 0)
(-0.0126105 -0.000188592 0)
(-0.0122055 -0.000225832 0)
(-0.0117622 -0.000263913 0)
(-0.0112805 -0.000302637 0)
(-0.0107607 -0.000341781 0)
(-0.0102033 -0.0003811 0)
(-0.00960897 -0.000420332 0)
(-0.00897861 -0.000459199 0)
(-0.0083134 -0.000497414 0)
(-0.00761474 -0.000534682 0)
(-0.00688423 -0.000570708 0)
(-0.00612373 -0.000605196 0)
(-0.00533529 -0.000637861 0)
(-0.00452116 -0.000668428 0)
(-0.00368378 -0.000696636 0)
(-0.00282576 -0.000722247 0)
(-0.00194985 -0.000745045 0)
(-0.00105892 -0.000764844 0)
(-0.000155956 -0.000781485 0)
(0.000755996 -0.000794844 0)
(0.00167383 -0.000804832 0)
(0.00259443 -0.000811395 0)
(0.00351468 -0.000814519 0)
(0.00443148 -0.000814225 0)
(0.00534182 -0.000810571 0)
(0.00624275 -0.000803652 0)
(0.00713146 -0.000793595 0)
(0.00800524 -0.00078056 0)
(0.00886156 -0.000764737 0)
(0.00969806 -0.000746337 0)
(0.0105126 -0.000725598 0)
(0.0113032 -0.000702771 0)
(0.0120681 -0.000678122 0)
(0.0128058 -0.000651926 0)
(0.0135151 -0.000624461 0)
(0.0141948 -0.000596007 0)
(0.0148443 -0.000566839 0)
(0.0154629 -0.000537223 0)
(0.0160503 -0.000507415 0)
(0.0166063 -0.000477655 0)
(0.0171311 -0.000448168 0)
(0.0176249 -0.000419156 0)
(0.0180881 -0.000390805 0)
(0.0185215 -0.000363276 0)
(0.0189256 -0.000336709 0)
(0.0193016 -0.000311219 0)
(0.0196502 -0.000286902 0)
(0.0199727 -0.000263831 0)
(0.0202702 -0.000242059 0)
(0.0205439 -0.000221619 0)
(0.0207952 -0.000202528 0)
(0.0210253 -0.000184786 0)
(0.0212355 -0.000168379 0)
(0.0214272 -0.000153281 0)
(0.0216017 -0.000139455 0)
(0.0217603 -0.000126857 0)
(0.0219041 -0.000115433 0)
(0.0220345 -0.000105125 0)
(0.0221526 -9.58725e-05 0)
(0.0222596 -8.76091e-05 0)
(0.0223564 -8.0269e-05 0)
(0.0224441 -7.3785e-05 0)
(0.0225237 -6.80907e-05 0)
(0.0225961 -6.31204e-05 0)
(0.022662 -5.88103e-05 0)
(0.0227222 -5.50988e-05 0)
(0.0227774 -5.19269e-05 0)
(0.0228284 -4.92386e-05 0)
(0.0228756 -4.69808e-05 0)
(0.0229196 -4.51039e-05 0)
(0.0229608 -4.35615e-05 0)
(0.0229998 -4.23107e-05 0)
(0.0230369 -4.13118e-05 0)
(0.0230724 -4.05284e-05 0)
(0.0231066 -3.99273e-05 0)
(0.0231397 -3.94784e-05 0)
(0.0231721 -3.91543e-05 0)
(0.0232038 -3.89307e-05 0)
(0.0232352 -3.87857e-05 0)
(0.0232661 -3.86998e-05 0)
(0.0232969 -3.8656e-05 0)
(0.0233276 -3.86394e-05 0)
(0.0233581 -3.86369e-05 0)
(0.0233887 -3.86373e-05 0)
(0.0234193 -3.86311e-05 0)
(0.02345 -3.86103e-05 0)
(0.0234807 -3.85683e-05 0)
(0.0235114 -3.84997e-05 0)
(0.0235423 -3.84002e-05 0)
(0.0235731 -3.82665e-05 0)
(0.0236039 -3.80962e-05 0)
(0.0236347 -3.78879e-05 0)
(0.0236655 -3.76405e-05 0)
(0.0236961 -3.73538e-05 0)
(0.0237267 -3.7028e-05 0)
(0.0237571 -3.66639e-05 0)
(0.0237872 -3.62623e-05 0)
(0.0238172 -3.58249e-05 0)
(0.0238468 -3.53531e-05 0)
(0.0238761 -3.48488e-05 0)
(0.0239051 -3.43142e-05 0)
(0.0239337 -3.37512e-05 0)
(0.0239618 -3.31622e-05 0)
(0.0239895 -3.25494e-05 0)
(0.0240168 -3.19152e-05 0)
(0.0240435 -3.12619e-05 0)
(0.0240696 -3.05919e-05 0)
(0.0240952 -2.99073e-05 0)
(0.0241202 -2.92104e-05 0)
(0.0241446 -2.85034e-05 0)
(0.0241684 -2.77883e-05 0)
(0.0241916 -2.70673e-05 0)
(0.0242141 -2.63421e-05 0)
(0.0242359 -2.56147e-05 0)
(0.0242571 -2.48868e-05 0)
(0.0242776 -2.41599e-05 0)
(0.0242974 -2.34356e-05 0)
(0.0243165 -2.27154e-05 0)
(0.024335 -2.20006e-05 0)
(0.0243528 -2.12923e-05 0)
(0.0243699 -2.05918e-05 0)
(0.0243863 -1.98999e-05 0)
(0.0244021 -1.92178e-05 0)
(0.0244172 -1.85461e-05 0)
(0.0244316 -1.78856e-05 0)
(0.0244454 -1.72369e-05 0)
(0.0244586 -1.66005e-05 0)
(0.0244711 -1.59769e-05 0)
(0.024483 -1.53665e-05 0)
(0.0244944 -1.47693e-05 0)
(0.0245051 -1.41855e-05 0)
(0.0245153 -1.3615e-05 0)
(0.0245248 -1.30577e-05 0)
(0.0245339 -1.25131e-05 0)
(0.0245424 -1.19806e-05 0)
(0.0245504 -1.14593e-05 0)
(0.0245578 -1.09479e-05 0)
(0.0245648 -1.04445e-05 0)
(0.0245713 -9.94669e-06 0)
(0.0245772 -9.45089e-06 0)
(0.0245827 -8.95229e-06 0)
(0.0245878 -8.444e-06 0)
(0.0245923 -7.9166e-06 0)
(0.0245963 -7.35672e-06 0)
(0.0245999 -6.74317e-06 0)
(0.0246028 -6.05856e-06 0)
(0.0246051 -5.22735e-06 0)
(0.0246067 -4.30837e-06 0)
(0.0246074 -2.91519e-06 0)
(0.0246069 -1.65432e-06 0)
(0.0246053 1.00227e-06 0)
(0.0246004 3.38263e-06 0)
(0.0245974 6.23207e-06 0)
(0.0245807 1.68301e-05 0)
(-0.000178826 0.000644966 0)
(-0.00104291 0.00125397 0)
(-0.00216755 0.00153285 0)
(-0.0033046 0.00157423 0)
(-0.00439266 0.00156932 0)
(-0.00542108 0.00152596 0)
(-0.00637417 0.00148226 0)
(-0.00726302 0.00142979 0)
(-0.00808421 0.0013764 0)
(-0.00884589 0.00132043 0)
(-0.00954941 0.0012644 0)
(-0.0101999 0.00120847 0)
(-0.0107998 0.00115347 0)
(-0.0113524 0.00109958 0)
(-0.0118601 0.00104699 0)
(-0.0123252 0.000995719 0)
(-0.0127495 0.000945729 0)
(-0.0131345 0.000896921 0)
(-0.0134817 0.000849167 0)
(-0.0137922 0.000802316 0)
(-0.0140668 0.000756204 0)
(-0.0143063 0.000710655 0)
(-0.0145112 0.000665486 0)
(-0.0146819 0.000620508 0)
(-0.0148186 0.000575525 0)
(-0.0149215 0.00053034 0)
(-0.0149904 0.000484749 0)
(-0.0150253 0.000438549 0)
(-0.0150259 0.000391534 0)
(-0.0149918 0.000343499 0)
(-0.0149225 0.000294244 0)
(-0.0148177 0.000243573 0)
(-0.0146766 0.000191299 0)
(-0.0144987 0.00013725 0)
(-0.0142833 8.12683e-05 0)
(-0.0140297 2.32161e-05 0)
(-0.0137373 -3.70185e-05 0)
(-0.0134054 -9.95194e-05 0)
(-0.0130333 -0.000164338 0)
(-0.0126204 -0.000231489 0)
(-0.0121664 -0.000300948 0)
(-0.0116707 -0.000372648 0)
(-0.0111331 -0.000446477 0)
(-0.0105533 -0.000522278 0)
(-0.00993142 -0.000599847 0)
(-0.00926745 -0.000678934 0)
(-0.00856174 -0.000759243 0)
(-0.00781474 -0.000840434 0)
(-0.00702713 -0.00092213 0)
(-0.00619977 -0.00100391 0)
(-0.00533373 -0.00108534 0)
(-0.0044303 -0.00116593 0)
(-0.00349098 -0.00124518 0)
(-0.00251748 -0.0013226 0)
(-0.0015117 -0.00139765 0)
(-0.000475766 -0.00146981 0)
(0.00058802 -0.00153857 0)
(0.00167717 -0.00160341 0)
(0.00278902 -0.00166387 0)
(0.00392076 -0.00171948 0)
(0.00506944 -0.0017698 0)
(0.00623201 -0.00181447 0)
(0.00740529 -0.00185313 0)
(0.00858605 -0.0018855 0)
(0.009771 -0.00191134 0)
(0.0109568 -0.00193047 0)
(0.0121402 -0.00194279 0)
(0.0133179 -0.00194824 0)
(0.0144866 -0.00194683 0)
(0.0156432 -0.00193864 0)
(0.0167846 -0.00192382 0)
(0.0179078 -0.00190257 0)
(0.0190101 -0.00187515 0)
(0.0200888 -0.00184188 0)
(0.0211415 -0.00180313 0)
(0.022166 -0.0017593 0)
(0.0231601 -0.00171085 0)
(0.0241222 -0.00165826 0)
(0.0250505 -0.00160203 0)
(0.0259439 -0.00154268 0)
(0.0268011 -0.00148074 0)
(0.0276213 -0.00141674 0)
(0.028404 -0.00135121 0)
(0.0291487 -0.00128466 0)
(0.0298553 -0.00121759 0)
(0.0305238 -0.00115047 0)
(0.0311545 -0.00108375 0)
(0.0317478 -0.00101783 0)
(0.0323044 -0.000953096 0)
(0.032825 -0.000889884 0)
(0.0333106 -0.000828493 0)
(0.0337621 -0.000769183 0)
(0.0341808 -0.000712174 0)
(0.0345679 -0.000657646 0)
(0.0349248 -0.00060574 0)
(0.0352528 -0.000556561 0)
(0.0355533 -0.00051018 0)
(0.0358279 -0.000466635 0)
(0.036078 -0.000425935 0)
(0.036305 -0.000388063 0)
(0.0365106 -0.000352976 0)
(0.0366961 -0.000320613 0)
(0.0368629 -0.000290895 0)
(0.0370126 -0.000263726 0)
(0.0371464 -0.000239 0)
(0.0372656 -0.0002166 0)
(0.0373716 -0.000196403 0)
(0.0374654 -0.000178279 0)
(0.0375484 -0.000162099 0)
(0.0376214 -0.000147727 0)
(0.0376857 -0.000135033 0)
(0.0377421 -0.000123885 0)
(0.0377914 -0.000114155 0)
(0.0378346 -0.00010572 0)
(0.0378724 -9.84578e-05 0)
(0.0379055 -9.22558e-05 0)
(0.0379346 -8.70047e-05 0)
(0.0379601 -8.26017e-05 0)
(0.0379827 -7.89502e-05 0)
(0.0380029 -7.59599e-05 0)
(0.038021 -7.3547e-05 0)
(0.0380374 -7.16338e-05 0)
(0.0380525 -7.0149e-05 0)
(0.0380666 -6.90273e-05 0)
(0.0380799 -6.82091e-05 0)
(0.0380926 -6.76408e-05 0)
(0.0381049 -6.72736e-05 0)
(0.0381171 -6.70641e-05 0)
(0.0381292 -6.69737e-05 0)
(0.0381413 -6.69681e-05 0)
(0.0381535 -6.70173e-05 0)
(0.0381659 -6.7095e-05 0)
(0.0381785 -6.71787e-05 0)
(0.0381914 -6.72489e-05 0)
(0.0382045 -6.72895e-05 0)
(0.038218 -6.72868e-05 0)
(0.0382317 -6.72297e-05 0)
(0.0382457 -6.71094e-05 0)
(0.0382599 -6.69191e-05 0)
(0.0382744 -6.66537e-05 0)
(0.0382891 -6.63097e-05 0)
(0.0383039 -6.58852e-05 0)
(0.0383188 -6.53794e-05 0)
(0.0383338 -6.47925e-05 0)
(0.0383488 -6.41257e-05 0)
(0.0383639 -6.3381e-05 0)
(0.0383788 -6.25611e-05 0)
(0.0383937 -6.16692e-05 0)
(0.0384085 -6.07089e-05 0)
(0.038423 -5.96843e-05 0)
(0.0384374 -5.85996e-05 0)
(0.0384514 -5.74594e-05 0)
(0.0384652 -5.62682e-05 0)
(0.0384787 -5.50309e-05 0)
(0.0384918 -5.37521e-05 0)
(0.0385045 -5.24365e-05 0)
(0.0385167 -5.10889e-05 0)
(0.0385285 -4.97139e-05 0)
(0.0385399 -4.83159e-05 0)
(0.0385508 -4.68994e-05 0)
(0.0385611 -4.54686e-05 0)
(0.0385709 -4.40275e-05 0)
(0.0385802 -4.25799e-05 0)
(0.0385889 -4.11297e-05 0)
(0.0385971 -3.96804e-05 0)
(0.0386047 -3.82351e-05 0)
(0.0386117 -3.67971e-05 0)
(0.0386181 -3.53693e-05 0)
(0.038624 -3.39543e-05 0)
(0.0386292 -3.25547e-05 0)
(0.0386339 -3.11727e-05 0)
(0.038638 -2.98104e-05 0)
(0.0386416 -2.84698e-05 0)
(0.0386445 -2.71523e-05 0)
(0.0386469 -2.58595e-05 0)
(0.0386488 -2.45925e-05 0)
(0.0386501 -2.33523e-05 0)
(0.0386509 -2.21394e-05 0)
(0.0386511 -2.09542e-05 0)
(0.0386509 -1.97967e-05 0)
(0.0386501 -1.86663e-05 0)
(0.0386489 -1.75622e-05 0)
(0.0386472 -1.64825e-05 0)
(0.0386451 -1.54247e-05 0)
(0.0386425 -1.43852e-05 0)
(0.0386394 -1.33586e-05 0)
(0.038636 -1.23374e-05 0)
(0.0386321 -1.13111e-05 0)
(0.0386278 -1.02651e-05 0)
(0.038623 -9.17754e-06 0)
(0.0386179 -8.02081e-06 0)
(0.0386122 -6.74943e-06 0)
(0.0386061 -5.30177e-06 0)
(0.0385994 -3.6204e-06 0)
(0.0385921 -1.44962e-06 0)
(0.0385841 9.63679e-07 0)
(0.0385749 4.88828e-06 0)
(0.0385643 8.91299e-06 0)
(0.0385535 1.42731e-05 0)
(0.0385332 2.88713e-05 0)
(-0.000305513 0.00126142 0)
(-0.0015161 0.00231475 0)
(-0.0028697 0.00272273 0)
(-0.00413646 0.00273253 0)
(-0.00523508 0.0026602 0)
(-0.00621468 0.00253061 0)
(-0.00706144 0.00240128 0)
(-0.00780897 0.0022658 0)
(-0.0084588 0.00213511 0)
(-0.00902769 0.00200775 0)
(-0.0095209 0.00188599 0)
(-0.00994744 0.00176941 0)
(-0.0103122 0.00165813 0)
(-0.0106205 0.00155168 0)
(-0.0108759 0.00144967 0)
(-0.011082 0.00135159 0)
(-0.0112413 0.00125696 0)
(-0.0113559 0.00116533 0)
(-0.0114277 0.00107623 0)
(-0.011458 0.000989238 0)
(-0.0114481 0.000903941 0)
(-0.0113988 0.000819949 0)
(-0.0113109 0.000736889 0)
(-0.0111848 0.000654401 0)
(-0.0110208 0.00057214 0)
(-0.0108193 0.000489774 0)
(-0.0105802 0.000406979 0)
(-0.0103035 0.000323448 0)
(-0.00998916 0.000238883 0)
(-0.00963697 0.000153004 0)
(-0.0092467 6.55468e-05 0)
(-0.00881807 -2.37336e-05 0)
(-0.00835079 -0.000115057 0)
(-0.00784454 -0.000208618 0)
(-0.00729903 -0.000304577 0)
(-0.00671398 -0.000403061 0)
(-0.00608915 -0.000504157 0)
(-0.00542435 -0.000607905 0)
(-0.00471948 -0.0007143 0)
(-0.0039745 -0.000823284 0)
(-0.00318948 -0.000934744 0)
(-0.00236461 -0.00104851 0)
(-0.00150021 -0.00116435 0)
(-0.000596709 -0.00128199 0)
(0.000345277 -0.00140107 0)
(0.00132499 -0.00152119 0)
(0.00234151 -0.0016419 0)
(0.00339374 -0.00176267 0)
(0.00448038 -0.00188296 0)
(0.0056 -0.00200216 0)
(0.00675093 -0.00211963 0)
(0.00793135 -0.00223472 0)
(0.00913925 -0.00234672 0)
(0.0103724 -0.00245494 0)
(0.0116286 -0.00255867 0)
(0.0129051 -0.0026572 0)
(0.0141994 -0.00274985 0)
(0.0155087 -0.00283595 0)
(0.01683 -0.00291486 0)
(0.0181602 -0.00298598 0)
(0.0194962 -0.00304877 0)
(0.0208349 -0.00310274 0)
(0.0221729 -0.00314746 0)
(0.023507 -0.00318259 0)
(0.0248338 -0.00320785 0)
(0.0261502 -0.00322305 0)
(0.0274528 -0.00322808 0)
(0.0287386 -0.00322294 0)
(0.0300044 -0.0032077 0)
(0.0312473 -0.00318253 0)
(0.0324646 -0.00314769 0)
(0.0336534 -0.00310352 0)
(0.0348115 -0.00305043 0)
(0.0359365 -0.00298894 0)
(0.0370265 -0.0029196 0)
(0.0380795 -0.00284305 0)
(0.039094 -0.00275997 0)
(0.0400687 -0.00267106 0)
(0.0410026 -0.00257709 0)
(0.0418947 -0.00247882 0)
(0.0427445 -0.00237703 0)
(0.0435517 -0.00227251 0)
(0.0443162 -0.00216601 0)
(0.045038 -0.00205829 0)
(0.0457176 -0.00195008 0)
(0.0463554 -0.00184205 0)
(0.0469521 -0.00173485 0)
(0.0475087 -0.00162908 0)
(0.0480261 -0.00152528 0)
(0.0485055 -0.00142393 0)
(0.0489482 -0.00132548 0)
(0.0493554 -0.0012303 0)
(0.0497287 -0.0011387 0)
(0.0500696 -0.00105095 0)
(0.0503795 -0.000967256 0)
(0.0506601 -0.000887773 0)
(0.0509129 -0.000812607 0)
(0.0511396 -0.00074182 0)
(0.0513416 -0.000675429 0)
(0.0515207 -0.000613415 0)
(0.0516783 -0.000555725 0)
(0.051816 -0.000502273 0)
(0.0519352 -0.000452951 0)
(0.0520374 -0.000407627 0)
(0.0521239 -0.000366149 0)
(0.052196 -0.000328352 0)
(0.0522551 -0.000294059 0)
(0.0523022 -0.000263085 0)
(0.0523387 -0.000235237 0)
(0.0523654 -0.000210322 0)
(0.0523835 -0.000188143 0)
(0.0523939 -0.000168506 0)
(0.0523975 -0.000151219 0)
(0.0523951 -0.000136094 0)
(0.0523875 -0.000122949 0)
(0.0523754 -0.000111608 0)
(0.0523594 -0.000101903 0)
(0.0523401 -9.36717e-05 0)
(0.052318 -8.67634e-05 0)
(0.0522937 -8.10341e-05 0)
(0.0522676 -7.6349e-05 0)
(0.0522401 -7.25826e-05 0)
(0.0522115 -6.96179e-05 0)
(0.0521822 -6.73471e-05 0)
(0.0521524 -6.56708e-05 0)
(0.0521224 -6.4498e-05 0)
(0.0520923 -6.37458e-05 0)
(0.0520624 -6.33391e-05 0)
(0.0520328 -6.32102e-05 0)
(0.0520036 -6.32981e-05 0)
(0.051975 -6.35489e-05 0)
(0.051947 -6.39144e-05 0)
(0.0519196 -6.43524e-05 0)
(0.051893 -6.48262e-05 0)
(0.0518671 -6.53038e-05 0)
(0.0518421 -6.57579e-05 0)
(0.0518178 -6.61654e-05 0)
(0.0517942 -6.6507e-05 0)
(0.0517715 -6.6767e-05 0)
(0.0517495 -6.69327e-05 0)
(0.0517282 -6.69942e-05 0)
(0.0517076 -6.69443e-05 0)
(0.0516877 -6.6778e-05 0)
(0.0516684 -6.64922e-05 0)
(0.0516497 -6.60856e-05 0)
(0.0516315 -6.55585e-05 0)
(0.0516138 -6.49124e-05 0)
(0.0515966 -6.41501e-05 0)
(0.0515797 -6.32751e-05 0)
(0.0515633 -6.2292e-05 0)
(0.0515471 -6.12058e-05 0)
(0.0515312 -6.00222e-05 0)
(0.0515156 -5.87471e-05 0)
(0.0515001 -5.73871e-05 0)
(0.0514848 -5.59487e-05 0)
(0.0514695 -5.44385e-05 0)
(0.0514544 -5.28634e-05 0)
(0.0514393 -5.12302e-05 0)
(0.0514242 -4.95456e-05 0)
(0.0514091 -4.78163e-05 0)
(0.0513939 -4.60489e-05 0)
(0.0513787 -4.42497e-05 0)
(0.0513634 -4.24248e-05 0)
(0.0513479 -4.05802e-05 0)
(0.0513323 -3.87218e-05 0)
(0.0513166 -3.68549e-05 0)
(0.0513007 -3.49848e-05 0)
(0.0512846 -3.31165e-05 0)
(0.0512683 -3.12546e-05 0)
(0.0512518 -2.94035e-05 0)
(0.0512351 -2.75674e-05 0)
(0.0512182 -2.575e-05 0)
(0.0512011 -2.39549e-05 0)
(0.0511837 -2.21853e-05 0)
(0.0511661 -2.0444e-05 0)
(0.0511483 -1.87335e-05 0)
(0.0511303 -1.70561e-05 0)
(0.051112 -1.54134e-05 0)
(0.0510935 -1.38069e-05 0)
(0.0510748 -1.22373e-05 0)
(0.0510559 -1.0705e-05 0)
(0.0510368 -9.20948e-06 0)
(0.0510175 -7.7495e-06 0)
(0.050998 -6.32271e-06 0)
(0.0509784 -4.92535e-06 0)
(0.0509586 -3.55184e-06 0)
(0.0509386 -2.19399e-06 0)
(0.0509184 -8.40279e-07 0)
(0.0508981 5.25999e-07 0)
(0.0508776 1.92773e-06 0)
(0.050857 3.39914e-06 0)
(0.0508363 4.98581e-06 0)
(0.0508154 6.75912e-06 0)
(0.0507943 8.80813e-06 0)
(0.0507731 1.1307e-05 0)
(0.0507516 1.43314e-05 0)
(0.0507298 1.85959e-05 0)
(0.0507077 2.35476e-05 0)
(0.0506853 3.05299e-05 0)
(0.050657 4.66144e-05 0)
(-0.000404955 0.00246851 0)
(-0.00171875 0.00379486 0)
(-0.00298671 0.00413951 0)
(-0.00404959 0.00388805 0)
(-0.00482662 0.00361468 0)
(-0.0054287 0.00331186 0)
(-0.00585278 0.00304758 0)
(-0.00615846 0.00280071 0)
(-0.00635501 0.00257634 0)
(-0.00646862 0.0023682 0)
(-0.00650783 0.00217512 0)
(-0.00648465 0.00199461 0)
(-0.00640498 0.00182506 0)
(-0.00627496 0.00166488 0)
(-0.00609839 0.00151273 0)
(-0.00587873 0.00136743 0)
(-0.0056184 0.00122794 0)
(-0.00531947 0.00109333 0)
(-0.00498346 0.000962784 0)
(-0.00461159 0.000835561 0)
(-0.00420481 0.000710993 0)
(-0.00376381 0.000588474 0)
(-0.00328911 0.000467446 0)
(-0.00278106 0.000347391 0)
(-0.00223989 0.000227833 0)
(-0.00166571 0.000108323 0)
(-0.00105854 -1.15523e-05 0)
(-0.000418362 -0.00013218 0)
(0.000254929 -0.000253917 0)
(0.000961456 -0.00037709 0)
(0.00170136 -0.000501994 0)
(0.0024748 -0.000628889 0)
(0.0032819 -0.000757998 0)
(0.00412278 -0.000889502 0)
(0.00499752 -0.00102354 0)
(0.00590612 -0.0011602 0)
(0.00684856 -0.00129951 0)
(0.0078247 -0.00144146 0)
(0.00883433 -0.00158596 0)
(0.00987712 -0.00173286 0)
(0.0109527 -0.00188196 0)
(0.0120604 -0.00203297 0)
(0.0131996 -0.00218555 0)
(0.0143695 -0.00233928 0)
(0.0155691 -0.00249368 0)
(0.0167972 -0.00264821 0)
(0.0180526 -0.00280224 0)
(0.0193338 -0.00295511 0)
(0.0206392 -0.00310611 0)
(0.0219669 -0.00325447 0)
(0.0233152 -0.00339937 0)
(0.0246817 -0.00354 0)
(0.0260644 -0.0036755 0)
(0.0274607 -0.00380499 0)
(0.028868 -0.00392761 0)
(0.0302838 -0.00404251 0)
(0.0317051 -0.00414885 0)
(0.033129 -0.00424582 0)
(0.0345526 -0.00433267 0)
(0.0359726 -0.00440869 0)
(0.037386 -0.00447323 0)
(0.0387896 -0.00452575 0)
(0.0401801 -0.00456576 0)
(0.0415544 -0.00459287 0)
(0.0429093 -0.00460682 0)
(0.0442417 -0.00460742 0)
(0.0455486 -0.00459461 0)
(0.0468272 -0.00456845 0)
(0.0480747 -0.00452911 0)
(0.0492884 -0.00447688 0)
(0.0504661 -0.00441217 0)
(0.0516054 -0.00433549 0)
(0.0527044 -0.00424745 0)
(0.0537614 -0.00414876 0)
(0.0547748 -0.00404022 0)
(0.0557436 -0.0039227 0)
(0.0566665 -0.00379713 0)
(0.0575431 -0.00366449 0)
(0.0583727 -0.0035258 0)
(0.0591553 -0.00338209 0)
(0.059891 -0.00323441 0)
(0.0605799 -0.00308378 0)
(0.0612226 -0.00293124 0)
(0.06182 -0.00277775 0)
(0.0623728 -0.00262427 0)
(0.0628822 -0.00247168 0)
(0.0633495 -0.00232081 0)
(0.0637759 -0.00217243 0)
(0.0641631 -0.00202723 0)
(0.0645126 -0.00188583 0)
(0.0648261 -0.00174877 0)
(0.0651052 -0.00161651 0)
(0.0653518 -0.00148946 0)
(0.0655676 -0.00136791 0)
(0.0657543 -0.00125213 0)
(0.0659138 -0.00114228 0)
(0.0660478 -0.00103847 0)
(0.066158 -0.000940778 0)
(0.0662461 -0.000849188 0)
(0.0663138 -0.000763657 0)
(0.0663627 -0.000684096 0)
(0.0663942 -0.000610377 0)
(0.0664099 -0.000542341 0)
(0.0664112 -0.000479801 0)
(0.0663994 -0.000422545 0)
(0.0663758 -0.000370347 0)
(0.0663415 -0.000322963 0)
(0.0662978 -0.00028014 0)
(0.0662457 -0.000241621 0)
(0.0661861 -0.000207141 0)
(0.0661201 -0.000176437 0)
(0.0660484 -0.000149247 0)
(0.0659719 -0.000125313 0)
(0.0658913 -0.000104383 0)
(0.0658072 -8.62109e-05 0)
(0.0657204 -7.05601e-05 0)
(0.0656313 -5.72035e-05 0)
(0.0655405 -4.5924e-05 0)
(0.0654485 -3.65155e-05 0)
(0.0653556 -2.87832e-05 0)
(0.0652623 -2.25439e-05 0)
(0.0651688 -1.7626e-05 0)
(0.0650755 -1.38696e-05 0)
(0.0649826 -1.11262e-05 0)
(0.0648904 -9.25862e-06 0)
(0.0647991 -8.14085e-06 0)
(0.0647087 -7.65737e-06 0)
(0.0646196 -7.70294e-06 0)
(0.0645317 -8.18214e-06 0)
(0.0644452 -9.00884e-06 0)
(0.0643601 -1.01058e-05 0)
(0.0642765 -1.14039e-05 0)
(0.0641945 -1.28421e-05 0)
(0.0641141 -1.43664e-05 0)
(0.0640353 -1.59298e-05 0)
(0.0639581 -1.74913e-05 0)
(0.0638825 -1.90159e-05 0)
(0.0638085 -2.04738e-05 0)
(0.063736 -2.184e-05 0)
(0.0636651 -2.3094e-05 0)
(0.0635956 -2.42193e-05 0)
(0.0635277 -2.52029e-05 0)
(0.0634611 -2.60351e-05 0)
(0.063396 -2.67091e-05 0)
(0.0633321 -2.72205e-05 0)
(0.0632696 -2.75673e-05 0)
(0.0632083 -2.77494e-05 0)
(0.0631481 -2.77684e-05 0)
(0.0630891 -2.76274e-05 0)
(0.0630312 -2.73308e-05 0)
(0.0629743 -2.68838e-05 0)
(0.0629184 -2.62928e-05 0)
(0.0628634 -2.55647e-05 0)
(0.0628093 -2.47069e-05 0)
(0.062756 -2.37275e-05 0)
(0.0627036 -2.26348e-05 0)
(0.0626519 -2.14371e-05 0)
(0.0626009 -2.0143e-05 0)
(0.0625506 -1.87613e-05 0)
(0.0625009 -1.73005e-05 0)
(0.0624518 -1.57692e-05 0)
(0.0624033 -1.41757e-05 0)
(0.0623554 -1.25282e-05 0)
(0.0623079 -1.08349e-05 0)
(0.0622609 -9.1034e-06 0)
(0.0622144 -7.34125e-06 0)
(0.0621683 -5.55565e-06 0)
(0.0621226 -3.75351e-06 0)
(0.0620773 -1.94139e-06 0)
(0.0620323 -1.25556e-07 0)
(0.0619877 1.6881e-06 0)
(0.0619435 3.49404e-06 0)
(0.0618995 5.28708e-06 0)
(0.0618558 7.06242e-06 0)
(0.0618125 8.81567e-06 0)
(0.0617694 1.05428e-05 0)
(0.0617266 1.22403e-05 0)
(0.0616841 1.39051e-05 0)
(0.0616418 1.55346e-05 0)
(0.0615998 1.71268e-05 0)
(0.061558 1.86803e-05 0)
(0.0615165 2.01946e-05 0)
(0.0614752 2.167e-05 0)
(0.0614342 2.31079e-05 0)
(0.0613934 2.45113e-05 0)
(0.0613528 2.58849e-05 0)
(0.0613125 2.72358e-05 0)
(0.0612725 2.85748e-05 0)
(0.0612327 2.99168e-05 0)
(0.0611931 3.12836e-05 0)
(0.0611538 3.27057e-05 0)
(0.0611148 3.42261e-05 0)
(0.0610761 3.59105e-05 0)
(0.0610377 3.78414e-05 0)
(0.0609997 4.01693e-05 0)
(0.0609621 4.30438e-05 0)
(0.060925 4.69061e-05 0)
(0.0608886 5.16858e-05 0)
(0.0608527 5.9029e-05 0)
(0.0608152 7.3329e-05 0)
(-0.00069344 0.00309345 0)
(-0.0020916 0.00472136 0)
(-0.00255529 0.00495026 0)
(-0.00279451 0.0045032 0)
(-0.00263129 0.00403075 0)
(-0.00238474 0.00356405 0)
(-0.00199307 0.00316008 0)
(-0.00154072 0.00280211 0)
(-0.00101897 0.00248573 0)
(-0.000453387 0.00220232 0)
(0.000154082 0.00194534 0)
(0.000794104 0.00171 0)
(0.00146406 0.00149205 0)
(0.00216003 0.00128846 0)
(0.00288026 0.0010966 0)
(0.00362299 0.000914459 0)
(0.00438724 0.000740298 0)
(0.00517224 0.000572708 0)
(0.00597755 0.000410466 0)
(0.00680291 0.000252533 0)
(0.00764822 9.79922e-05 0)
(0.0085135 -5.39594e-05 0)
(0.00939887 -0.00020404 0)
(0.0103045 -0.000352895 0)
(0.0112307 -0.000501105 0)
(0.0121776 -0.000649197 0)
(0.0131457 -0.000797648 0)
(0.0141352 -0.000946891 0)
(0.0151464 -0.00109731 0)
(0.0161796 -0.00124925 0)
(0.0172351 -0.001403 0)
(0.0183132 -0.00155882 0)
(0.0194139 -0.0017169 0)
(0.0205375 -0.0018774 0)
(0.0216839 -0.0020404 0)
(0.0228532 -0.00220594 0)
(0.0240453 -0.00237399 0)
(0.0252598 -0.00254445 0)
(0.0264966 -0.00271715 0)
(0.027755 -0.00289187 0)
(0.0290347 -0.00306829 0)
(0.0303347 -0.00324601 0)
(0.0316544 -0.00342459 0)
(0.0329927 -0.00360348 0)
(0.0343484 -0.00378207 0)
(0.0357203 -0.00395968 0)
(0.0371068 -0.00413556 0)
(0.0385065 -0.0043089 0)
(0.0399175 -0.00447884 0)
(0.0413379 -0.00464446 0)
(0.0427656 -0.00480481 0)
(0.0441983 -0.0049589 0)
(0.0456338 -0.00510574 0)
(0.0470696 -0.0052443 0)
(0.0485029 -0.00537359 0)
(0.0499311 -0.00549261 0)
(0.0513514 -0.0056004 0)
(0.0527608 -0.00569605 0)
(0.0541564 -0.00577869 0)
(0.0555352 -0.00584753 0)
(0.0568942 -0.00590188 0)
(0.0582304 -0.00594111 0)
(0.0595408 -0.00596474 0)
(0.0608225 -0.00597237 0)
(0.0620727 -0.00596375 0)
(0.0632887 -0.00593876 0)
(0.064468 -0.00589742 0)
(0.065608 -0.00583989 0)
(0.0667068 -0.00576648 0)
(0.0677622 -0.00567764 0)
(0.0687725 -0.00557395 0)
(0.0697363 -0.00545614 0)
(0.0706523 -0.00532505 0)
(0.0715196 -0.00518164 0)
(0.0723375 -0.00502696 0)
(0.0731055 -0.00486214 0)
(0.0738237 -0.00468841 0)
(0.0744921 -0.004507 0)
(0.0751111 -0.00431921 0)
(0.0756814 -0.00412635 0)
(0.0762039 -0.00392971 0)
(0.0766797 -0.00373058 0)