/*--------------------------------*- C++ -*----------------------------------*\
| =========                 |                                                 |
| \\      /  F ield         | OpenFOAM: The Open Source CFD Toolbox           |
|  \\    /   O peration     | Version:  4.1                                   |
|   \\  /    A nd           | Web:      www.OpenFOAM.org                      |
|    \\/     M anipulation  |                                                 |
\*---------------------------------------------------------------------------*/
FoamFile
{
    version     2.0;
    format      ascii;
    class       volVectorField;
    location    "4710";
    object      U;
}
// * * * * * * * * * * * * * * * * * * * * * * * * * * * * * * * * * * * * * //

dimensions      [0 1 -1 0 0 0 0];

internalField   nonuniform List<vector> 
1275
(
(-8.4086e-07 2.9092e-05 0)
(3.16409e-06 3.99861e-05 0)
(-6.30793e-05 4.77643e-05 0)
(-0.00012636 3.87882e-05 0)
(-0.000215058 3.74461e-05 0)
(-0.000301795 2.54664e-05 0)
(-0.000392087 2.2921e-05 0)
(-0.000489324 1.4199e-05 0)
(-0.000581646 1.25177e-05 0)
(-0.000684562 7.36106e-06 0)
(-0.00077964 6.68717e-06 0)
(-0.000884828 4.13904e-06 0)
(-0.000982168 4.24064e-06 0)
(-0.0010876 3.3193e-06 0)
(-0.00118639 3.88305e-06 0)
(-0.00129104 3.84696e-06 0)
(-0.00139048 4.6065e-06 0)
(-0.00149388 4.97874e-06 0)
(-0.00159331 5.75869e-06 0)
(-0.00169521 6.26722e-06 0)
(-0.00179412 6.97386e-06 0)
(-0.0018944 7.48002e-06 0)
(-0.00199242 8.07583e-06 0)
(-0.00209101 8.51856e-06 0)
(-0.00218788 8.99892e-06 0)
(-0.00228477 9.35824e-06 0)
(-0.00238033 9.73539e-06 0)
(-0.00247551 1.00107e-05 0)
(-0.00256969 1.03045e-05 0)
(-0.00266321 1.05022e-05 0)
(-0.00275601 1.07356e-05 0)
(-0.00284794 1.08627e-05 0)
(-0.0029394 1.10606e-05 0)
(-0.00302988 1.11212e-05 0)
(-0.00312008 1.13096e-05 0)
(-0.0032093 1.13034e-05 0)
(-0.00329836 1.1509e-05 0)
(-0.00338656 1.14328e-05 0)
(-0.00347464 1.16793e-05 0)
(-0.00356212 1.1532e-05 0)
(-0.0036494 1.18318e-05 0)
(-0.00373651 1.16236e-05 0)
(-0.00382329 1.19667e-05 0)
(-0.00391036 1.17306e-05 0)
(-0.00399707 1.20815e-05 0)
(-0.00408444 1.18762e-05 0)
(-0.00417167 1.21954e-05 0)
(-0.00425985 1.2087e-05 0)
(-0.00434824 1.23617e-05 0)
(-0.00443785 1.23646e-05 0)
(-0.00452812 1.26144e-05 0)
(-0.00461993 1.27174e-05 0)
(-0.00471293 1.29733e-05 0)
(-0.00480789 1.31657e-05 0)
(-0.00490465 1.34581e-05 0)
(-0.00500389 1.37388e-05 0)
(-0.00510564 1.4096e-05 0)
(-0.00521055 1.44755e-05 0)
(-0.00531882 1.49273e-05 0)
(-0.00543109 1.5429e-05 0)
(-0.00554771 1.60139e-05 0)
(-0.00566937 1.66792e-05 0)
(-0.00579658 1.74549e-05 0)
(-0.00593008 1.83549e-05 0)
(-0.00607055 1.94158e-05 0)
(-0.00621882 2.06713e-05 0)
(-0.00637571 2.21749e-05 0)
(-0.00654217 2.39864e-05 0)
(-0.00671914 2.61868e-05 0)
(-0.00690766 2.88697e-05 0)
(-0.00710876 3.21498e-05 0)
(-0.00732348 3.61551e-05 0)
(-0.00755281 4.10282e-05 0)
(-0.00779766 4.69135e-05 0)
(-0.00805873 5.39484e-05 0)
(-0.00833649 6.22427e-05 0)
(-0.00863096 7.1858e-05 0)
(-0.00894168 8.27804e-05 0)
(-0.00926745 9.48947e-05 0)
(-0.00960623 0.00010796 0)
(-0.00995496 0.000121592 0)
(-0.0103094 0.000135262 0)
(-0.0106642 0.000148307 0)
(-0.0110124 0.000159958 0)
(-0.0113464 0.000169391 0)
(-0.0116569 0.000175783 0)
(-0.0119342 0.00017838 0)
(-0.0121679 0.000176556 0)
(-0.0123476 0.000169872 0)
(-0.0124629 0.00015811 0)
(-0.0125042 0.000141289 0)
(-0.0124632 0.000119667 0)
(-0.0123325 9.37209e-05 0)
(-0.0121067 6.41097e-05 0)
(-0.0117823 3.16377e-05 0)
(-0.0113576 -2.79425e-06 0)
(-0.010833 -3.82342e-05 0)
(-0.0102111 -7.37232e-05 0)
(-0.00949605 -0.000108333 0)
(-0.00869407 -0.0001412 0)
(-0.0078128 -0.00017155 0)
(-0.00686123 -0.000198721 0)
(-0.00584946 -0.000222171 0)
(-0.0047884 -0.000241493 0)
(-0.00368952 -0.000256409 0)
(-0.00256459 -0.000266781 0)
(-0.00142538 -0.000272586 0)
(-0.00028353 -0.000273929 0)
(0.000849835 -0.000271005 0)
(0.00196409 -0.000264119 0)
(0.00304951 -0.000253625 0)
(0.00409711 -0.00023997 0)
(0.00509913 -0.0002236 0)
(0.0060486 -0.000205043 0)
(0.00693999 -0.000184769 0)
(0.00776853 -0.000163327 0)
(0.00853099 -0.000141159 0)
(0.00922474 -0.000118774 0)
(0.00984862 -9.65668e-05 0)
(0.0104021 -7.49263e-05 0)
(0.0108856 -5.42277e-05 0)
(0.0113005 -3.46681e-05 0)
(-1.84909e-05 -3.40226e-05 0)
(-0.000105546 1.93675e-05 0)
(-0.000322426 8.17381e-05 0)
(-0.000541075 0.000110208 0)
(-0.000795963 0.000140063 0)
(-0.00105152 0.000149248 0)
(-0.00130758 0.000167843 0)
(-0.00157604 0.000174076 0)
(-0.00183348 0.000186368 0)
(-0.00210689 0.000190335 0)
(-0.00236619 0.00019718 0)
(-0.0026393 0.000198854 0)
(-0.00289888 0.000201867 0)
(-0.00316839 0.000201883 0)
(-0.00342626 0.000202561 0)
(-0.00369033 0.000201555 0)
(-0.0039448 0.000200913 0)
(-0.00420247 0.000199334 0)
(-0.0044523 0.000197983 0)
(-0.00470316 0.000196115 0)
(-0.00494755 0.000194407 0)
(-0.00519145 0.000192417 0)
(-0.00542996 0.000190552 0)
(-0.00566697 0.000188538 0)
(-0.00589941 0.000186635 0)
(-0.0061297 0.000184657 0)
(-0.00635608 0.000182787 0)
(-0.0065799 0.000180883 0)
(-0.0068004 0.000179101 0)
(-0.00701808 0.000177296 0)
(-0.00723298 0.000175649 0)
(-0.00744493 0.000173962 0)
(-0.0076546 0.000172496 0)
(-0.00786129 0.000170942 0)
(-0.00806619 0.000169706 0)
(-0.0082682 0.000168303 0)
(-0.00846883 0.000167342 0)
(-0.00866683 0.000166123 0)
(-0.00886375 0.000165463 0)
(-0.00905853 0.000164491 0)
(-0.00925236 0.000164128 0)
(-0.00944479 0.000163517 0)
(-0.00963629 0.000163423 0)
(-0.00982728 0.000163318 0)
(-0.0100174 0.000163522 0)
(-0.0102079 0.000164022 0)
(-0.010398 0.000164715 0)
(-0.0105892 0.000165818 0)
(-0.0107805 0.000167141 0)
(-0.0109737 0.000168907 0)
(-0.0111679 0.000170991 0)
(-0.0113646 0.000173549 0)
(-0.0115633 0.000176542 0)
(-0.0117654 0.000180071 0)
(-0.0119707 0.000184157 0)
(-0.0121802 0.000188874 0)
(-0.0123941 0.000194279 0)
(-0.0126134 0.00020044 0)
(-0.0128385 0.000207438 0)
(-0.0130703 0.000215345 0)
(-0.0133092 0.000224258 0)
(-0.0135561 0.000234258 0)
(-0.0138116 0.000245449 0)
(-0.0140765 0.000257919 0)
(-0.0143514 0.00027177 0)
(-0.0146368 0.000287081 0)
(-0.0149331 0.000303933 0)
(-0.0152407 0.000322374 0)
(-0.0155595 0.000342426 0)
(-0.0158893 0.000364058 0)
(-0.0162295 0.000387179 0)
(-0.016579 0.000411608 0)
(-0.0169359 0.000437054 0)
(-0.0172982 0.000463086 0)
(-0.0176625 0.000489107 0)
(-0.0180249 0.000514324 0)
(-0.0183806 0.000537733 0)
(-0.0187237 0.0005581 0)
(-0.0190472 0.000573973 0)
(-0.0193433 0.000583702 0)
(-0.0196034 0.000585491 0)
(-0.0198179 0.00057747 0)
(-0.0199768 0.000557792 0)
(-0.0200696 0.000524748 0)
(-0.0200859 0.000476889 0)
(-0.0200153 0.000413143 0)
(-0.019848 0.000332919 0)
(-0.0195751 0.000236178 0)
(-0.0191886 0.000123479 0)
(-0.018682 -4.02547e-06 0)
(-0.0180502 -0.000144622 0)
(-0.0172898 -0.000296103 0)
(-0.0163993 -0.000455864 0)
(-0.015379 -0.000621005 0)
(-0.0142313 -0.000788451 0)
(-0.01296 -0.00095506 0)
(-0.0115711 -0.00111773 0)
(-0.0100721 -0.0012735 0)
(-0.00847185 -0.00141963 0)
(-0.00678079 -0.00155364 0)
(-0.00501031 -0.00167341 0)
(-0.00317275 -0.00177716 0)
(-0.00128113 -0.00186353 0)
(0.000651071 -0.00193155 0)
(0.00261016 -0.00198064 0)
(0.00458243 -0.00201063 0)
(0.00655442 -0.00202169 0)
(0.00851302 -0.00201437 0)
(0.0104458 -0.00198948 0)
(0.0123409 -0.00194812 0)
(0.0141876 -0.00189161 0)
(0.0159758 -0.00182142 0)
(0.0176968 -0.0017392 0)
(0.0193426 -0.00164659 0)
(0.0209069 -0.00154541 0)
(0.0223837 -0.00143728 0)
(0.023769 -0.00132407 0)
(0.0250591 -0.00120719 0)
(0.0262518 -0.00108849 0)
(0.0273455 -0.000969035 0)
(0.0283398 -0.000850557 0)
(0.0292348 -0.000733845 0)
(-3.72441e-05 0.000161294 0)
(-0.000229642 0.000349945 0)
(-0.000592214 0.000492723 0)
(-0.000964418 0.000514331 0)
(-0.00137836 0.000555297 0)
(-0.0017932 0.000536004 0)
(-0.00220587 0.000552025 0)
(-0.0026274 0.000537255 0)
(-0.00303137 0.000545507 0)
(-0.00344546 0.000536486 0)
(-0.00383798 0.000539524 0)
(-0.00423806 0.000533166 0)
(-0.00461767 0.000532726 0)
(-0.00500143 0.0005273 0)
(-0.00536749 0.000524669 0)
(-0.00573464 0.000519369 0)
(-0.00608697 0.000515355 0)
(-0.00643801 0.000509874 0)
(-0.00677668 0.000504984 0)
(-0.00711239 0.000499268 0)
(-0.00743766 0.00049384 0)
(-0.00775887 0.000487949 0)
(-0.00807114 0.000482228 0)
(-0.00837867 0.000476264 0)
(-0.00867843 0.00047044 0)
(-0.00897309 0.000464512 0)
(-0.00926095 0.000458741 0)
(-0.00954352 0.000452951 0)
(-0.00982012 0.00044737 0)
(-0.0100914 0.000441805 0)
(-0.0103574 0.000436544 0)
(-0.0106182 0.000431274 0)
(-0.0108744 0.000426465 0)
(-0.0111255 0.000421544 0)
(-0.0113727 0.000417328 0)
(-0.0116149 0.000412793 0)
(-0.0118538 0.000409322 0)
(-0.012088 0.000405206 0)
(-0.0123194 0.000402619 0)
(-0.0125467 0.00039899 0)
(-0.0127712 0.00039738 0)
(-0.0129925 0.000394393 0)
(-0.0132111 0.000393769 0)
(-0.0134274 0.000391717 0)
(-0.013641 0.000392043 0)
(-0.013853 0.000391302 0)
(-0.0140629 0.000392662 0)
(-0.0142717 0.000393541 0)
(-0.0144789 0.000396065 0)
(-0.0146856 0.000398691 0)
(-0.0148911 0.000402651 0)
(-0.0150965 0.000407151 0)
(-0.0153014 0.000412866 0)
(-0.0155066 0.000419431 0)
(-0.0157117 0.000427221 0)
(-0.0159173 0.000436092 0)
(-0.0161233 0.000446269 0)
(-0.0163301 0.000457708 0)
(-0.0165373 0.000470555 0)
(-0.0167451 0.000484801 0)
(-0.0169533 0.000500533 0)
(-0.0171616 0.000517733 0)
(-0.0173696 0.000536421 0)
(-0.0175766 0.000556528 0)
(-0.0177817 0.000577974 0)
(-0.017984 0.000600587 0)
(-0.0181819 0.00062414 0)
(-0.0183737 0.000648293 0)
(-0.0185573 0.000672605 0)
(-0.01873 0.000696492 0)
(-0.0188886 0.000719229 0)
(-0.0190296 0.00073991 0)
(-0.0191487 0.000757456 0)
(-0.019241 0.000770586 0)
(-0.0193012 0.00077783 0)
(-0.0193232 0.000777521 0)
(-0.0193005 0.000767827 0)
(-0.0192262 0.000746771 0)
(-0.0190929 0.000712288 0)
(-0.0188931 0.000662288 0)
(-0.0186191 0.000594739 0)
(-0.0182633 0.000507766 0)
(-0.0178187 0.000399761 0)
(-0.0172783 0.000269501 0)
(-0.016636 0.000116253 0)
(-0.0158867 -6.01222e-05 0)
(-0.0150259 -0.0002591 0)
(-0.0140504 -0.000479446 0)
(-0.0129582 -0.000719212 0)
(-0.0117484 -0.000975765 0)
(-0.0104217 -0.00124586 0)
(-0.0089798 -0.00152573 0)
(-0.00742585 -0.00181121 0)
(-0.0057643 -0.00209789 0)
(-0.00400083 -0.00238123 0)
(-0.00214232 -0.00265669 0)
(-0.000196738 -0.0029199 0)
(0.0018269 -0.00316674 0)
(0.0039187 -0.00339344 0)
(0.00606797 -0.00359668 0)
(0.00826342 -0.00377365 0)
(0.0104933 -0.00392208 0)
(0.0127454 -0.00404029 0)
(0.0150077 -0.00412719 0)
(0.0172679 -0.00418227 0)
(0.019514 -0.00420562 0)
(0.0217346 -0.00419781 0)
(0.0239185 -0.00415997 0)
(0.0260555 -0.00409359 0)
(0.0281359 -0.00400062 0)
(0.030151 -0.00388321 0)
(0.0320931 -0.00374387 0)
(0.0339555 -0.00358514 0)
(0.0357323 -0.00340981 0)
(0.0374189 -0.00322057 0)
(0.0390114 -0.00302016 0)
(0.0405072 -0.00281126 0)
(0.041904 -0.00259633 0)
(0.0432012 -0.0023779 0)
(0.0443979 -0.0021579 0)
(0.0454948 -0.00193875 0)
(0.0464927 -0.00172175 0)
(-9.11631e-05 0.000217442 0)
(-0.00043858 0.000561077 0)
(-0.000997737 0.000805961 0)
(-0.00153588 0.000885526 0)
(-0.00208196 0.000964218 0)
(-0.00262158 0.000969844 0)
(-0.00312646 0.00100198 0)
(-0.00364125 0.000996166 0)
(-0.00411529 0.00100696 0)
(-0.00459984 0.00099601 0)
(-0.00504747 0.000993411 0)
(-0.00550096 0.000979102 0)
(-0.00592363 0.000969051 0)
(-0.00634726 0.000953026 0)
(-0.00674572 0.00093931 0)
(-0.0071414 0.000922652 0)
(-0.00751647 0.000907373 0)
(-0.00788629 0.000890711 0)
(-0.00823899 0.00087498 0)
(-0.00858495 0.000858673 0)
(-0.00891643 0.000843074 0)
(-0.00924038 0.00082733 0)
(-0.00955189 0.00081218 0)
(-0.00985549 0.000797125 0)
(-0.0101482 0.000782604 0)
(-0.010433 0.000768317 0)
(-0.0107082 0.000754543 0)
(-0.0109754 0.000741076 0)
(-0.0112341 0.000728136 0)
(-0.011485 0.000715526 0)
(-0.0117284 0.000703503 0)
(-0.011964 0.000691771 0)
(-0.0121929 0.000680757 0)
(-0.0124142 0.000669912 0)
(-0.0126296 0.000660012 0)
(-0.0128373 0.000650056 0)
(-0.01304 0.000641379 0)
(-0.0132351 0.000632328 0)
(-0.0134256 0.000624956 0)
(-0.0136087 0.000616893 0)
(-0.0137875 0.000610808 0)
(-0.0139593 0.00060397 0)
(-0.0141265 0.000599022 0)
(-0.0142877 0.000593804 0)
(-0.0144436 0.00058989 0)
(-0.0145942 0.000586566 0)
(-0.014739 0.000584133 0)
(-0.014879 0.000582489 0)
(-0.0150128 0.000581698 0)
(-0.0151418 0.000581738 0)
(-0.0152643 0.000582699 0)
(-0.0153815 0.00058452 0)
(-0.0154919 0.000587321 0)
(-0.0155962 0.000591011 0)
(-0.0156931 0.000595697 0)
(-0.0157828 0.000601276 0)
(-0.015864 0.000607808 0)
(-0.0159366 0.000615174 0)
(-0.0159992 0.00062337 0)
(-0.0160511 0.000632238 0)
(-0.0160909 0.000641686 0)
(-0.0161172 0.000651488 0)
(-0.0161285 0.000661435 0)
(-0.0161228 0.000671189 0)
(-0.0160981 0.000680385 0)
(-0.0160519 0.000688523 0)
(-0.0159815 0.000695033 0)
(-0.015884 0.000699197 0)
(-0.015756 0.000700188 0)
(-0.0155939 0.000697015 0)
(-0.0153936 0.000688547 0)
(-0.0151508 0.000673478 0)
(-0.0148609 0.00065035 0)
(-0.0145191 0.000617532 0)
(-0.0141201 0.000573253 0)
(-0.0136588 0.000515607 0)
(-0.0131298 0.000442596 0)
(-0.0125276 0.000352171 0)
(-0.0118472 0.000242298 0)
(-0.0110834 0.000111032 0)
(-0.0102316 -4.33863e-05 0)
(-0.00928759 -0.000222433 0)
(-0.00824769 -0.000427183 0)
(-0.00710896 -0.000658206 0)
(-0.00586922 -0.000915463 0)
(-0.00452714 -0.00119822 0)
(-0.00308229 -0.001505 0)
(-0.00153516 -0.00183356 0)
(0.000112785 -0.00218089 0)
(0.00185916 -0.00254327 0)
(0.00370062 -0.00291638 0)
(0.00563289 -0.00329538 0)
(0.0076508 -0.00367506 0)
(0.00974829 -0.00404999 0)
(0.0119184 -0.00441464 0)
(0.0141535 -0.0047636 0)
(0.0164451 -0.00509162 0)
(0.0187839 -0.00539382 0)
(0.0211602 -0.00566579 0)
(0.0235635 -0.00590365 0)
(0.0259833 -0.00610417 0)
(0.0284085 -0.0062648 0)
(0.0308279 -0.00638373 0)
(0.0332305 -0.00645992 0)
(0.0356053 -0.00649303 0)
(0.0379418 -0.00648349 0)
(0.04023 -0.0064324 0)
(0.0424603 -0.0063415 0)
(0.0446242 -0.00621306 0)
(0.0467137 -0.00604985 0)
(0.0487221 -0.005855 0)
(0.0506432 -0.00563193 0)
(0.0524723 -0.0053843 0)
(0.0542053 -0.00511574 0)
(0.0558393 -0.00483012 0)
(0.0573721 -0.00453089 0)
(0.0588028 -0.0042219 0)
(0.0601306 -0.00390605 0)
(0.0613565 -0.0035871 0)
(0.0624809 -0.00326705 0)
(0.0635057 -0.00294953 0)
(0.0644329 -0.00263568 0)
(-0.000113818 0.000712348 0)
(-0.000561953 0.00127229 0)
(-0.00123683 0.00161355 0)
(-0.00188441 0.00160554 0)
(-0.00252593 0.00165749 0)
(-0.00314588 0.00158107 0)
(-0.00371227 0.00158073 0)
(-0.00426926 0.00152299 0)
(-0.00476783 0.00150773 0)
(-0.00525954 0.00146398 0)
(-0.00570069 0.00144106 0)
(-0.00613454 0.00140433 0)
(-0.00652767 0.00137779 0)
(-0.0069124 0.00134474 0)
(-0.00726485 0.0013169 0)
(-0.00760791 0.00128609 0)
(-0.00792515 0.00125817 0)
(-0.00823238 0.00122902 0)
(-0.00851858 0.00120168 0)
(-0.00879448 0.00117396 0)
(-0.00905287 0.00114752 0)
(-0.00930095 0.00112116 0)
(-0.00953414 0.00109581 0)
(-0.00975717 0.00107079 0)
(-0.00996728 0.00104663 0)
(-0.0101675 0.00102294 0)
(-0.0103562 0.00100004 0)
(-0.0105353 0.000977658 0)
(-0.0107043 0.000956049 0)
(-0.0108637 0.000934965 0)
(-0.011014 0.000914694 0)
(-0.0111548 0.00089486 0)
(-0.0112874 0.000875988 0)
(-0.0114104 0.000857329 0)
(-0.011526 0.00083995 0)
(-0.0116318 0.000822348 0)
(-0.0117309 0.000806592 0)
(-0.01182 0.000789887 0)
(-0.0119026 0.000775895 0)
(-0.0119752 0.000759938 0)
(-0.012041 0.000747769 0)
(-0.0120973 0.000732545 0)
(-0.0121458 0.000722006 0)
(-0.0121853 0.000707824 0)
(-0.0122159 0.000698391 0)
(-0.0122372 0.000685832 0)
(-0.0122494 0.000677189 0)
(-0.0122516 0.000666617 0)
(-0.0122437 0.000658459 0)
(-0.0122249 0.00064949 0)
(-0.0121948 0.000641898 0)
(-0.0121527 0.000634083 0)
(-0.0120977 0.000627038 0)
(-0.0120292 0.000619949 0)
(-0.0119459 0.000613218 0)
(-0.011847 0.000606358 0)
(-0.011731 0.00059947 0)
(-0.0115969 0.000592175 0)
(-0.0114427 0.000584381 0)
(-0.0112672 0.000575707 0)
(-0.0110681 0.000565906 0)
(-0.0108437 0.000554523 0)
(-0.0105916 0.000541148 0)
(-0.0103093 0.000525199 0)
(-0.00999427 0.000506077 0)
(-0.00964357 0.00048302 0)
(-0.00925411 0.000455202 0)
(-0.00882264 0.000421637 0)
(-0.00834565 0.000381236 0)
(-0.0078195 0.000332749 0)
(-0.00724033 0.000274805 0)
(-0.00660421 0.00020588 0)
(-0.00590708 0.000124333 0)
(-0.00514486 2.83969e-05 0)
(-0.00431344 -8.37715e-05 0)
(-0.00340885 -0.000214079 0)
(-0.00242721 -0.000364429 0)
(-0.00136493 -0.000536683 0)
(-0.000218678 -0.000732569 0)
(0.00101442 -0.000953617 0)
(0.00233677 -0.00120106 0)
(0.00375019 -0.00147574 0)
(0.00525589 -0.00177802 0)
(0.00685434 -0.00210767 0)
(0.00854528 -0.00246382 0)
(0.0103277 -0.00284488 0)
(0.0121998 -0.00324849 0)
(0.014159 -0.00367155 0)
(0.0162018 -0.00411023 0)
(0.0183243 -0.00455999 0)
(0.0205214 -0.00501573 0)
(0.0227876 -0.00547184 0)
(0.0251165 -0.00592237 0)
(0.0275011 -0.00636116 0)
(0.0299335 -0.00678201 0)
(0.0324055 -0.00717879 0)
(0.034908 -0.00754566 0)
(0.0374314 -0.00787718 0)
(0.039966 -0.00816843 0)
(0.0425012 -0.00841517 0)
(0.0450267 -0.0086139 0)
(0.0475319 -0.00876197 0)
(0.0500063 -0.0088576 0)
(0.0524396 -0.00889993 0)
(0.0548221 -0.00888898 0)
(0.0571444 -0.00882569 0)
(0.059398 -0.00871178 0)
(0.061575 -0.00854973 0)
(0.0636685 -0.00834266 0)
(0.0656725 -0.00809426 0)
(0.067582 -0.0078086 0)
(0.069393 -0.00749013 0)
(0.0711027 -0.00714337 0)
(0.0727087 -0.00677311 0)
(0.0742103 -0.00638388 0)
(0.0756069 -0.0059803 0)
(0.0768992 -0.00556667 0)
(0.0780882 -0.00514701 0)
(0.079176 -0.0047253 0)
(0.0801644 -0.00430445 0)
(0.0810563 -0.00388839 0)
(0.0818551 -0.00347844 0)
(-0.000258853 0.000855996 0)
(-0.00090192 0.00165464 0)
(-0.00172249 0.00210397 0)
(-0.00244137 0.00215345 0)
(-0.00303426 0.00221507 0)
(-0.00361298 0.00214456 0)
(-0.00406548 0.002124 0)
(-0.00452802 0.00204714 0)
(-0.0048946 0.00200066 0)
(-0.00526717 0.0019285 0)
(-0.0055706 0.00187365 0)
(-0.00587287 0.00180784 0)
(-0.00612511 0.00175239 0)
(-0.00637119 0.00169279 0)
(-0.00658011 0.00163977 0)
(-0.00678009 0.00158567 0)
(-0.00695158 0.00153603 0)
(-0.00711282 0.00148663 0)
(-0.0072515 0.00144048 0)
(-0.00737952 0.00139512 0)
(-0.00748913 0.00135225 0)
(-0.00758811 0.0013104 0)
(-0.00767166 0.00127052 0)
(-0.00774481 0.00123173 0)
(-0.00780471 0.00119456 0)
(-0.00785449 0.00115848 0)
(-0.00789265 0.00112375 0)
(-0.00792089 0.00109006 0)
(-0.00793878 0.00105754 0)
(-0.00794681 0.00102597 0)
(-0.00794552 0.000995471 0)
(-0.0079342 0.000965767 0)
(-0.00791448 0.000937124 0)
(-0.00788426 0.00090902 0)
(-0.00784653 0.000882132 0)
(-0.00779748 0.000855338 0)
(-0.00774181 0.000830132 0)
(-0.0076737 0.000804341 0)
(-0.00759969 0.000780723 0)
(-0.00751212 0.000755684 0)
(-0.00741876 0.000733373 0)
(-0.00731127 0.000709101 0)
(-0.00719683 0.000687348 0)
(-0.0070688 0.000664333 0)
(-0.00693104 0.000642067 0)
(-0.00678083 0.000620556 0)
(-0.00661767 0.000598803 0)
(-0.00644245 0.000577147 0)
(-0.00625226 0.000555395 0)
(-0.00604842 0.000533222 0)
(-0.0058281 0.000510884 0)
(-0.00559187 0.000487794 0)
(-0.00533736 0.000464217 0)
(-0.00506433 0.000439563 0)
(-0.00477069 0.000413945 0)
(-0.00445556 0.000386819 0)
(-0.00411691 0.000358119 0)
(-0.00375335 0.000327316 0)
(-0.00336275 0.000294174 0)
(-0.00294329 0.000258129 0)
(-0.00249262 0.000218778 0)
(-0.00200857 0.000175476 0)
(-0.0014885 0.000127643 0)
(-0.000929878 7.45086e-05 0)
(-0.000329809 1.53035e-05 0)
(0.000314599 -5.09104e-05 0)
(0.00100649 -0.000125111 0)
(0.00174903 -0.000208433 0)
(0.00254556 -0.000302077 0)
(0.00339946 -0.000407386 0)
(0.00431417 -0.000525779 0)
(0.00529311 -0.000658791 0)
(0.00633969 -0.000808022 0)
(0.00745718 -0.00097514 0)
(0.00864875 -0.00116183 0)
(0.00991731 -0.00136978 0)
(0.0112655 -0.0016006 0)
(0.0126957 -0.00185579 0)
(0.0142097 -0.00213666 0)
(0.0158089 -0.00244426 0)
(0.0174941 -0.00277928 0)
(0.0192656 -0.00314197 0)
(0.0211229 -0.00353205 0)
(0.0230648 -0.00394865 0)
(0.0250894 -0.00439022 0)
(0.0271941 -0.00485444 0)
(0.0293755 -0.00533828 0)
(0.0316293 -0.00583792 0)
(0.0339506 -0.0063488 0)
(0.0363337 -0.00686568 0)
(0.0387721 -0.00738274 0)
(0.0412586 -0.00789368 0)
(0.0437855 -0.00839186 0)
(0.0463442 -0.00887044 0)
(0.0489257 -0.0093226 0)
(0.0515204 -0.00974165 0)
(0.0541184 -0.0101212 0)
(0.0567092 -0.0104555 0)
(0.0592825 -0.0107393 0)
(0.0618278 -0.0109682 0)
(0.0643347 -0.0111387 0)
(0.0667931 -0.0112483 0)
(0.0691933 -0.0112955 0)
(0.0715263 -0.0112798 0)
(0.0737839 -0.0112019 0)
(0.0759585 -0.0110635 0)
(0.0780438 -0.0108671 0)
(0.0800341 -0.0106161 0)
(0.0819252 -0.0103146 0)
(0.0837137 -0.00996743 0)
(0.0853973 -0.0095796 0)
(0.0869747 -0.00915656 0)
(0.0884457 -0.00870395 0)
(0.0898107 -0.00822723 0)
(0.091071 -0.00773211 0)
(0.0922287 -0.0072235 0)
(0.0932863 -0.00670695 0)
(0.0942466 -0.00618621 0)
(0.0951135 -0.00566677 0)
(0.09589 -0.00515058 0)
(0.0965802 -0.00464339 0)
(0.0971884 -0.00414501 0)
(-0.000256378 0.00192681 0)
(-0.000873553 0.00276426 0)
(-0.00162769 0.00320466 0)
(-0.00227638 0.00292689 0)
(-0.00277067 0.00285925 0)
(-0.00321419 0.00261077 0)
(-0.0035117 0.0025092 0)
(-0.0037858 0.00234555 0)
(-0.00395474 0.00225057 0)
(-0.00411017 0.00213186 0)
(-0.0041932 0.00204562 0)
(-0.00426605 0.00195093 0)
(-0.00428856 0.00187301 0)
(-0.00430189 0.0017928 0)
(-0.00427928 0.00172222 0)
(-0.00424786 0.0016518 0)
(-0.00418996 0.00158753 0)
(-0.00412348 0.00152435 0)
(-0.00403686 0.00146547 0)
(-0.0039419 0.001408 0)
(-0.00383112 0.00135372 0)
(-0.00371226 0.00130093 0)
(-0.00358053 0.00125061 0)
(-0.00344094 0.00120173 0)
(-0.00329054 0.00115483 0)
(-0.00313243 0.00110927 0)
(-0.00296494 0.0010653 0)
(-0.00278972 0.00102255 0)
(-0.00260615 0.000981107 0)
(-0.00241465 0.000940731 0)
(-0.00221557 0.000901457 0)
(-0.00200807 0.000863019 0)
(-0.00179363 0.000825622 0)
(-0.00156993 0.000788668 0)
(-0.00133992 0.000752935 0)
(-0.00109943 0.000716931 0)
(-0.000853207 0.000682761 0)
(-0.000594976 0.000647034 0)
(-0.000331388 0.000614457 0)
(-5.43146e-05 0.000578183 0)
(0.000228562 0.000547264 0)
(0.000525589 0.000509671 0)
(0.00083048 0.000480044 0)
(0.00114906 0.000441059 0)
(0.00147845 0.000410935 0)
(0.00182289 0.00037164 0)
(0.00217819 0.000339053 0)
(0.00255048 0.000300614 0)
(0.00293696 0.000264448 0)
(0.00334122 0.000224892 0)
(0.00376293 0.000185245 0)
(0.00420411 0.000142982 0)
(0.0046658 9.93226e-05 0)
(0.0051495 5.29549e-05 0)
(0.00565689 4.22515e-06 0)
(0.00618951 -4.77379e-05 0)
(0.00674935 -0.000103008 0)
(0.00733817 -0.000162318 0)
(0.00795821 -0.000225998 0)
(0.00861152 -0.000294778 0)
(0.00930056 -0.000369182 0)
(0.0100277 -0.000450011 0)
(0.0107955 -0.000537969 0)
(0.0116067 -0.000633972 0)
(0.0124642 -0.000738905 0)
(0.0133707 -0.000853827 0)
(0.0143292 -0.000979811 0)
(0.0153429 -0.00111807 0)
(0.0164147 -0.00126987 0)
(0.0175477 -0.00143657 0)
(0.0187449 -0.00161957 0)
(0.0200092 -0.00182038 0)
(0.0213434 -0.00204048 0)
(0.0227501 -0.00228139 0)
(0.0242317 -0.00254459 0)
(0.0257902 -0.00283148 0)
(0.0274273 -0.00314333 0)
(0.0291441 -0.00348123 0)
(0.0309414 -0.00384599 0)
(0.0328192 -0.00423809 0)
(0.0347771 -0.00465761 0)
(0.0368136 -0.00510409 0)
(0.0389268 -0.00557654 0)
(0.0411139 -0.00607329 0)
(0.0433712 -0.00659197 0)
(0.0456942 -0.00712948 0)
(0.0480775 -0.00768192 0)
(0.0505149 -0.00824467 0)
(0.0529994 -0.00881237 0)
(0.0555232 -0.00937901 0)
(0.0580777 -0.00993804 0)
(0.0606538 -0.0104825 0)
(0.0632418 -0.011005 0)
(0.0658313 -0.0114983 0)
(0.0684118 -0.011955 0)
(0.0709725 -0.0123682 0)
(0.0735025 -0.0127311 0)
(0.0759911 -0.013038 0)
(0.0784277 -0.0132836 0)
(0.0808023 -0.0134639 0)
(0.0831056 -0.0135758 0)
(0.0853287 -0.0136172 0)
(0.0874641 -0.0135875 0)
(0.0895049 -0.0134873 0)
(0.0914456 -0.013318 0)
(0.0932817 -0.0130825 0)
(0.0950101 -0.0127844 0)
(0.0966288 -0.0124284 0)
(0.0981369 -0.0120196 0)
(0.0995348 -0.0115638 0)
(0.100824 -0.0110673 0)
(0.102006 -0.0105363 0)
(0.103084 -0.00997723 0)
(0.104062 -0.00939652 0)
(0.104945 -0.00880007 0)
(0.105735 -0.00819386 0)
(0.10644 -0.00758305 0)
(0.107062 -0.00697269 0)
(0.107609 -0.00636719 0)
(0.108083 -0.00576998 0)
(0.10849 -0.00518558 0)
(0.108837 -0.00461432 0)
(-0.000748094 0.00189692 0)
(-0.001604 0.00296368 0)
(-0.00198084 0.00346053 0)
(-0.00225029 0.00326153 0)
(-0.00212241 0.00313824 0)
(-0.00210011 0.00287149 0)
(-0.00185684 0.00269682 0)
(-0.00168991 0.00248771 0)
(-0.00140141 0.00233263 0)
(-0.00115377 0.00216995 0)
(-0.000836736 0.00203876 0)
(-0.000540056 0.00190818 0)
(-0.000201547 0.00179694 0)
(0.000127261 0.00168877 0)
(0.000482634 0.00159315 0)
(0.000833764 0.0015011 0)
(0.00120252 0.00141761 0)
(0.00156988 0.00133752 0)
(0.00194939 0.00126354 0)
(0.00232906 0.00119258 0)
(0.00271743 0.00112613 0)
(0.0031069 0.00106228 0)
(0.00350288 0.00100185 0)
(0.0039006 0.000943627 0)
(0.00430347 0.000888005 0)
(0.00470867 0.000834263 0)
(0.0051182 0.000782484 0)
(0.00553069 0.000732285 0)
(0.00594705 0.000683539 0)
(0.00636717 0.000636094 0)
(0.00679085 0.000589685 0)
(0.00721943 0.000544287 0)
(0.00765122 0.000499616 0)
(0.00808957 0.00045558 0)
(0.00853052 0.000412139 0)
(0.00898044 0.00036874 0)
(0.00943182 0.000326119 0)
(0.00989557 0.000282541 0)
(0.010359 0.000240399 0)
(0.0108391 0.000195769 0)
(0.0113171 0.0001536 0)
(0.0118157 0.000107405 0)
(0.0123124 6.36513e-05 0)
(0.01283 1.68715e-05 0)
(0.0133528 -3.22632e-05 0)
(0.0138885 -7.87465e-05 0)
(0.0144408 -0.000128983 0)
(0.0150049 -0.000181409 0)
(0.0155874 -0.00023537 0)
(0.0161853 -0.000292662 0)
(0.0168031 -0.000351964 0)
(0.0174399 -0.000415042 0)
(0.018099 -0.000481121 0)
(0.0187808 -0.000551526 0)
(0.019488 -0.00062602 0)
(0.0202218 -0.000705634 0)
(0.0209845 -0.000790508 0)
(0.021778 -0.000881546 0)
(0.0226047 -0.000979154 0)
(0.0234667 -0.00108422 0)
(0.0243664 -0.00119734 0)
(0.0253063 -0.00131947 0)
(0.026289 -0.00145138 0)
(0.0273171 -0.0015941 0)
(0.0283932 -0.00174857 0)
(0.02952 -0.00191593 0)
(0.0307004 -0.00209727 0)
(0.031937 -0.00229381 0)
(0.0332324 -0.00250678 0)
(0.0345893 -0.00273748 0)
(0.03601 -0.0029872 0)
(0.0374968 -0.00325726 0)
(0.0390518 -0.00354894 0)
(0.0406767 -0.00386347 0)
(0.0423727 -0.00420198 0)
(0.0441408 -0.00456545 0)
(0.0459813 -0.00495467 0)
(0.0478942 -0.00537018 0)
(0.0498784 -0.00581216 0)
(0.0519326 -0.00628043 0)
(0.0540542 -0.00677429 0)
(0.0562402 -0.00729255 0)
(0.0584864 -0.00783333 0)
(0.0607879 -0.00839414 0)
(0.0631387 -0.00897173 0)
(0.0655321 -0.0095621 0)
(0.0679604 -0.0101605 0)
(0.0704149 -0.0107615 0)
(0.0728864 -0.0113588 0)
(0.0753649 -0.0119458 0)
(0.0778398 -0.0125153 0)
(0.0803 -0.0130597 0)
(0.0827343 -0.0135713 0)
(0.0851313 -0.0140425 0)
(0.0874795 -0.0144659 0)
(0.0897679 -0.0148345 0)
(0.0919858 -0.0151421 0)
(0.0941233 -0.0153831 0)
(0.0961711 -0.0155531 0)
(0.098121 -0.0156488 0)
(0.0999661 -0.015668 0)
(0.101701 -0.0156098 0)
(0.10332 -0.0154748 0)
(0.104822 -0.0152646 0)
(0.106204 -0.0149822 0)
(0.107467 -0.0146316 0)
(0.108611 -0.0142178 0)
(0.10964 -0.0137465 0)
(0.110556 -0.0132243 0)
(0.111366 -0.0126578 0)
(0.112074 -0.0120542 0)
(0.112686 -0.0114205 0)
(0.113209 -0.010764 0)
(0.113649 -0.0100911 0)
(0.114015 -0.00940866 0)
(0.114313 -0.00872196 0)
(0.114549 -0.00803729 0)
(0.114731 -0.00735802 0)
(0.114865 -0.00669064 0)
(0.114956 -0.00603514 0)
(0.11501 -0.00539992 0)
(0.115033 -0.00477965 0)
(-0.000301139 0.00443581 0)
(-0.00021672 0.00403689 0)
(0.0003024 0.00395822 0)
(0.000877075 0.00306873 0)
(0.00165505 0.00275335 0)
(0.0023749 0.00233243 0)
(0.0031933 0.00211164 0)
(0.00395272 0.00187436 0)
(0.00476351 0.00171337 0)
(0.00552755 0.00155213 0)
(0.00631802 0.00142586 0)
(0.0070733 0.00130276 0)
(0.00784108 0.00119855 0)
(0.00858242 0.00109804 0)
(0.00932829 0.00100908 0)
(0.010054 0.000923615 0)
(0.0107796 0.000845831 0)
(0.0114896 0.000771132 0)
(0.012197 0.00070184 0)
(0.0128919 0.00063519 0)
(0.013583 0.000572471 0)
(0.0142642 0.000511968 0)
(0.0149412 0.000454357 0)
(0.0156102 0.000398571 0)
(0.0162752 0.000344892 0)
(0.016934 0.000292685 0)
(0.0175891 0.000241953 0)
(0.0182397 0.000192376 0)
(0.0188873 0.000143738 0)
(0.019532 9.59556e-05 0)
(0.0201745 4.86524e-05 0)
(0.0208158 1.8881e-06 0)
(0.0214555 -4.47587e-05 0)
(0.0220963 -9.12943e-05 0)
(0.0227357 -0.000137863 0)
(0.0233791 -0.000185076 0)
(0.0240207 -0.000231964 0)
(0.0246705 -0.00028106 0)
(0.0253169 -0.000328291 0)
(0.025977 -0.000381092 0)
(0.0266309 -0.000428 0)
(0.0273056 -0.00048729 0)
(0.0279709 -0.000532464 0)
(0.0286633 -0.000601202 0)
(0.0293465 -0.000645648 0)
(0.0300554 -0.000717759 0)
(0.0307682 -0.000776455 0)
(0.0314989 -0.0008467 0)
(0.032242 -0.000915583 0)
(0.0330022 -0.000991113 0)
(0.0337798 -0.00106921 0)
(0.0345766 -0.00115313 0)
(0.0353945 -0.00124153 0)
(0.036235 -0.00133614 0)
(0.0371002 -0.00143668 0)
(0.0379918 -0.00154433 0)
(0.038912 -0.0016593 0)
(0.0398627 -0.00178259 0)
(0.0408461 -0.00191468 0)
(0.0418644 -0.00205656 0)
(0.04292 -0.00220889 0)
(0.0440149 -0.00237268 0)
(0.0451516 -0.00254877 0)
(0.0463324 -0.00273821 0)
(0.0475596 -0.00294197 0)
(0.0488355 -0.00316116 0)
(0.0501622 -0.00339684 0)
(0.0515419 -0.00365017 0)
(0.0529764 -0.00392226 0)
(0.0544675 -0.00421425 0)
(0.0560167 -0.00452724 0)
(0.0576252 -0.00486227 0)
(0.0592937 -0.0052203 0)
(0.0610227 -0.00560218 0)
(0.062812 -0.00600857 0)
(0.0646609 -0.00643992 0)
(0.066568 -0.00689642 0)
(0.0685313 -0.0073779 0)
(0.070548 -0.0078838 0)
(0.0726143 -0.00841311 0)
(0.0747257 -0.00896427 0)
(0.0768767 -0.00953513 0)
(0.0790609 -0.0101229 0)
(0.0812709 -0.0107241 0)
(0.0834985 -0.0113344 0)
(0.0857345 -0.0119491 0)
(0.087969 -0.0125625 0)
(0.0901915 -0.0131684 0)
(0.0923908 -0.0137599 0)
(0.0945553 -0.0143297 0)
(0.0966732 -0.0148705 0)
(0.0987327 -0.0153743 0)
(0.100722 -0.0158335 0)
(0.10263 -0.0162408 0)
(0.104446 -0.016589 0)
(0.106161 -0.016872 0)
(0.107765 -0.0170841 0)
(0.10925 -0.0172209 0)
(0.110612 -0.0172791 0)
(0.111845 -0.0172568 0)
(0.112946 -0.0171532 0)
(0.113915 -0.0169692 0)
(0.114751 -0.0167067 0)
(0.115457 -0.0163692 0)
(0.116037 -0.0159611 0)
(0.116495 -0.015488 0)
(0.116838 -0.0149562 0)
(0.117074 -0.0143727 0)
(0.117211 -0.0137448 0)
(0.117259 -0.0130801 0)
(0.117226 -0.0123861 0)
(0.117124 -0.0116706 0)
(0.116962 -0.0109404 0)
(0.116749 -0.0102025 0)
(0.116495 -0.00946282 0)
(0.116209 -0.00872741 0)
(0.115901 -0.0080008 0)
(0.115575 -0.00728769 0)