/*--------------------------------*- C++ -*----------------------------------*\
| =========                 |                                                 |
| \\      /  F ield         | OpenFOAM: The Open Source CFD Toolbox           |
|  \\    /   O peration     | Version:  4.1                                   |
|   \\  /    A nd           | Web:      www.OpenFOAM.org                      |
|    \\/     M anipulation  |                                                 |
\*---------------------------------------------------------------------------*/
FoamFile
{
    version     2.0;
    format      ascii;
    class       volVectorField;
    location    "390";
    object      U;
}
// * * * * * * * * * * * * * * * * * * * * * * * * * * * * * * * * * * * * * //

dimensions      [0 1 -1 0 0 0 0];

internalField   nonuniform List<vector> 
1275
(
(-6.33121e-06 3.91014e-05 0)
(3.58109e-05 4.10119e-05 0)
(3.77737e-05 4.61055e-05 0)
(3.3214e-05 3.96701e-05 0)
(-1.71891e-05 4.29363e-05 0)
(-9.35804e-05 3.38851e-05 0)
(-0.000189035 3.18069e-05 0)
(-0.000299483 2.11309e-05 0)
(-0.000400604 1.63136e-05 0)
(-0.000504207 7.72409e-06 0)
(-0.000588487 4.30532e-06 0)
(-0.000674563 -3.51853e-08 0)
(-0.000746897 -6.60303e-07 0)
(-0.000826046 -1.64094e-06 0)
(-0.000899002 -7.99897e-07 0)
(-0.000980018 -6.36006e-07 0)
(-0.00105721 9.09965e-08 0)
(-0.00113933 8.31652e-08 0)
(-0.00121682 1.60869e-07 0)
(-0.00129533 -3.85891e-07 0)
(-0.00136789 -1.11662e-06 0)
(-0.00143812 -2.54167e-06 0)
(-0.00150093 -4.50795e-06 0)
(-0.00155862 -7.43652e-06 0)
(-0.0016077 -1.13587e-05 0)
(-0.00165029 -1.66973e-05 0)
(-0.00168514 -2.37439e-05 0)
(-0.00171593 -3.31766e-05 0)
(-0.00174501 -4.57969e-05 0)
(-0.0017799 -6.26922e-05 0)
(-0.00182906 -8.48437e-05 0)
(-0.00190754 -0.000112449 0)
(-0.0020346 -0.000143892 0)
(-0.00223845 -0.00017406 0)
(-0.00255454 -0.000193522 0)
(-0.00302686 -0.000188215 0)
(-0.00370332 -0.000142659 0)
(-0.00462926 -4.4746e-05 0)
(-0.00583743 0.000107079 0)
(-0.00733565 0.000300591 0)
(-0.00910007 0.00051109 0)
(-0.0110724 0.00070955 0)
(-0.0131694 0.000870798 0)
(-0.0152935 0.00097986 0)
(-0.0173479 0.0010317 0)
(-0.0192448 0.00102995 0)
(-0.020912 0.000981788 0)
(-0.0222932 0.0008968 0)
(-0.0233478 0.000783466 0)
(-0.0240482 0.00064976 0)
(-0.0243773 0.000501817 0)
(-0.0243271 0.000345002 0)
(-0.0238965 0.000183615 0)
(-0.0230911 2.16191e-05 0)
(-0.0219224 -0.000137373 0)
(-0.0204082 -0.000289823 0)
(-0.0185723 -0.000432311 0)
(-0.0164445 -0.000561558 0)
(-0.0140601 -0.000674543 0)
(-0.0114597 -0.000768643 0)
(-0.00868821 -0.000841771 0)
(-0.00579341 -0.0008925 0)
(-0.00282499 -0.000920144 0)
(0.000167012 -0.000924803 0)
(0.00313373 -0.000907335 0)
(0.00602873 -0.000869304 0)
(0.00880933 -0.000812856 0)
(0.0114374 -0.000740597 0)
(0.0138805 -0.000655433 0)
(0.0161116 -0.000560431 0)
(0.0181099 -0.000458678 0)
(0.0198607 -0.000353178 0)
(0.0213546 -0.000246751 0)
(0.0225879 -0.000141978 0)
(0.0235613 -4.11544e-05 0)
(0.0242799 5.37273e-05 0)
(0.0247521 0.00014098 0)
(0.0249896 0.00021921 0)
(0.0250063 0.000287296 0)
(0.0248183 0.000344365 0)
(0.024443 0.000389773 0)
(0.023899 0.000423084 0)
(0.0232057 0.000444061 0)
(0.0223829 0.000452665 0)
(0.0214502 0.000449042 0)
(0.020427 0.000433532 0)
(0.0193322 0.000406646 0)
(0.0181835 0.000369058 0)
(0.0169977 0.000321573 0)
(0.0157902 0.000265086 0)
(0.0145758 0.000200504 0)
(0.0133683 0.000128593 0)
(0.0121821 5.00589e-05 0)
(0.0110321 -3.34833e-05 0)
(0.0099337 -0.000117319 0)
(0.00890134 -0.000191353 0)
(0.00794401 -0.00024063 0)
(0.00706197 -0.000250007 0)
(0.00625205 -0.000211072 0)
(0.00550435 -0.000129959 0)
(0.00480853 -2.80191e-05 0)
(0.00418209 6.75842e-05 0)
(0.00366346 0.000131654 0)
(0.00325729 0.00015219 0)
(0.00290886 0.000135519 0)
(0.00255852 8.87292e-05 0)
(0.00221676 2.08887e-05 0)
(0.00193521 -3.6124e-05 0)
(0.00171757 -4.88066e-05 0)
(0.00153672 -2.25998e-05 0)
(0.00140274 1.03586e-05 0)
(0.00132818 2.88179e-05 0)
(0.00129868 2.60024e-05 0)
(0.00130948 3.47573e-06 0)
(0.001375 -2.72307e-05 0)
(0.00150667 -5.5743e-05 0)
(0.00171666 -8.06697e-05 0)
(0.00200869 -0.00010444 0)
(0.00237721 -0.000128078 0)
(0.00280438 -0.000149676 0)
(0.00326717 -0.000165628 0)
(0.00373388 -0.00017362 0)
(-8.41728e-06 -7.15455e-05 0)
(2.39957e-05 -8.97838e-05 0)
(-2.05699e-05 -4.43604e-05 0)
(-8.56134e-05 1.09658e-05 0)
(-0.000226467 8.56188e-05 0)
(-0.000423006 0.000135136 0)
(-0.00065722 0.00017743 0)
(-0.000928192 0.00018898 0)
(-0.00118994 0.000192106 0)
(-0.00146013 0.00017959 0)
(-0.00170064 0.000169449 0)
(-0.00194287 0.000158485 0)
(-0.00216291 0.000155136 0)
(-0.00239167 0.000154294 0)
(-0.00261091 0.000157441 0)
(-0.00284176 0.000159775 0)
(-0.00306793 0.000161605 0)
(-0.00330224 0.000160689 0)
(-0.00353193 0.000157955 0)
(-0.00376567 0.00015269 0)
(-0.00399514 0.000145737 0)
(-0.00422735 0.000136794 0)
(-0.00445837 0.000126564 0)
(-0.00469569 0.000115311 0)
(-0.00494062 0.000104335 0)
(-0.00520424 9.51729e-05 0)
(-0.00549551 9.05923e-05 0)
(-0.00583288 9.42529e-05 0)
(-0.00623585 0.000111391 0)
(-0.00673316 0.000148966 0)
(-0.00735541 0.000215886 0)
(-0.00813938 0.0003232 0)
(-0.00911946 0.000482641 0)
(-0.0103271 0.000705402 0)
(-0.0117807 0.000997474 0)
(-0.0134813 0.00135695 0)
(-0.0154055 0.00176873 0)
(-0.0175043 0.00220506 0)
(-0.0197055 0.00262622 0)
(-0.0219221 0.00298807 0)
(-0.0240629 0.00324946 0)
(-0.0260417 0.00338054 0)
(-0.0277848 0.00336765 0)
(-0.0292322 0.0032124 0)
(-0.0303394 0.00292968 0)
(-0.0310748 0.00254047 0)
(-0.0314181 0.00206925 0)
(-0.0313581 0.00153806 0)
(-0.0308908 0.000967125 0)
(-0.0300172 0.000372146 0)
(-0.0287429 -0.000233475 0)
(-0.0270766 -0.000839254 0)
(-0.0250303 -0.00143563 0)
(-0.0226194 -0.00201405 0)
(-0.0198632 -0.00256582 0)
(-0.0167853 -0.00308242 0)
(-0.013414 -0.00355512 0)
(-0.0097824 -0.00397557 0)
(-0.00592836 -0.00433595 0)
(-0.001894 -0.00462955 0)
(0.00227508 -0.0048511 0)
(0.00653082 -0.00499718 0)
(0.010824 -0.00506635 0)
(0.0151054 -0.00505935 0)
(0.0193274 -0.00497893 0)
(0.0234451 -0.00482976 0)
(0.0274173 -0.00461807 0)
(0.0312073 -0.00435139 0)
(0.0347838 -0.00403804 0)
(0.0381207 -0.00368685 0)
(0.0411976 -0.0033067 0)
(0.0439992 -0.00290624 0)
(0.0465151 -0.00249361 0)
(0.0487396 -0.00207625 0)
(0.0506705 -0.00166077 0)
(0.0523094 -0.00125293 0)
(0.0536601 -0.000857608 0)
(0.0547288 -0.000478844 0)
(0.0555233 -0.000119928 0)
(0.0560527 0.000216536 0)
(0.0563266 0.000528568 0)
(0.0563553 0.000814757 0)
(0.0561492 0.00107423 0)
(0.0557185 0.00130665 0)
(0.0550728 0.00151221 0)
(0.054221 0.00169157 0)
(0.0531707 0.00184586 0)
(0.0519282 0.00197645 0)
(0.050498 0.00208484 0)
(0.048883 0.0021722 0)
(0.0470848 0.00223918 0)
(0.0451042 0.00228542 0)
(0.0429421 0.00230912 0)
(0.0406006 0.00230757 0)
(0.0380852 0.00227667 0)
(0.0354091 0.0022123 0)
(0.0325968 0.00211316 0)
(0.0296884 0.00197577 0)
(0.0267413 0.0018003 0)
(0.0238236 0.00159963 0)
(0.0210071 0.00136953 0)
(0.0183577 0.00108879 0)
(0.0159335 0.000795763 0)
(0.0137874 0.000598399 0)
(0.0119349 0.000557497 0)
(0.0103578 0.000601238 0)
(0.00907416 0.000606044 0)
(0.00810342 0.000542383 0)
(0.00736235 0.000455305 0)
(0.00673168 0.000345249 0)
(0.00619339 0.00020268 0)
(0.00577748 7.521e-05 0)
(0.00548546 -9.39492e-06 0)
(0.00532282 -8.18806e-05 0)
(0.00530136 -0.000171812 0)
(0.00540895 -0.00028727 0)
(0.00563534 -0.000423557 0)
(0.00597484 -0.000559426 0)
(0.00642056 -0.000672378 0)
(0.00695128 -0.000745392 0)
(0.00753234 -0.000769479 0)
(0.00810781 -0.000739219 0)
(-1.52777e-05 3.40409e-05 0)
(-4.09817e-05 5.97547e-05 0)
(-0.000182703 0.000166807 0)
(-0.000358768 0.00024815 0)
(-0.000620293 0.000388849 0)
(-0.000943793 0.000463901 0)
(-0.00130871 0.000542194 0)
(-0.0017157 0.000551145 0)
(-0.00211549 0.000550743 0)
(-0.00252729 0.000514954 0)
(-0.0029103 0.000487765 0)
(-0.00329686 0.000458735 0)
(-0.00366074 0.000447817 0)
(-0.00403299 0.000443148 0)
(-0.00439395 0.000448387 0)
(-0.00476575 0.000453554 0)
(-0.00513268 0.000459372 0)
(-0.00550988 0.000461622 0)
(-0.00588647 0.00046229 0)
(-0.00627394 0.000460717 0)
(-0.0066664 0.000459284 0)
(-0.00707404 0.000458915 0)
(-0.00749592 0.000462632 0)
(-0.00794307 0.000473346 0)
(-0.00842003 0.000496136 0)
(-0.00894067 0.000536963 0)
(-0.00951523 0.00060389 0)
(-0.010161 0.000705953 0)
(-0.0108921 0.000853115 0)
(-0.0117261 0.00105479 0)
(-0.0126742 0.00131811 0)
(-0.0137449 0.00164625 0)
(-0.0149346 0.00203538 0)
(-0.0162294 0.00247455 0)
(-0.0175987 0.00294322 0)
(-0.0189993 0.00341465 0)
(-0.0203749 0.00385499 0)
(-0.0216634 0.00422923 0)
(-0.0228018 0.00450082 0)
(-0.0237327 0.0046384 0)
(-0.0244098 0.00461691 0)
(-0.0247982 0.0044238 0)
(-0.0248773 0.00405941 0)
(-0.0246358 0.00353766 0)
(-0.0240719 0.00288123 0)
(-0.0231877 0.00211857 0)
(-0.0219891 0.00127696 0)
(-0.0204822 0.000382605 0)
(-0.0186734 -0.000543738 0)
(-0.0165686 -0.00148442 0)
(-0.0141733 -0.0024257 0)
(-0.0114936 -0.00335549 0)
(-0.00853692 -0.00426266 0)
(-0.0053132 -0.00513601 0)
(-0.00183606 -0.00596358 0)
(0.00187665 -0.00673288 0)
(0.00580182 -0.00743078 0)
(0.0099113 -0.00804445 0)
(0.0141717 -0.00856176 0)
(0.0185455 -0.00897232 0)
(0.0229913 -0.009268 0)
(0.0274659 -0.0094437 0)
(0.0319249 -0.00949761 0)
(0.0363248 -0.00943141 0)
(0.0406241 -0.00925013 0)
(0.0447841 -0.00896186 0)
(0.0487708 -0.00857712 0)
(0.0525548 -0.00810833 0)
(0.056112 -0.00756903 0)
(0.0594237 -0.00697324 0)
(0.0624765 -0.00633486 0)
(0.0652621 -0.00566715 0)
(0.0677764 -0.00498236 0)
(0.0700192 -0.00429144 0)
(0.0719934 -0.00360392 0)
(0.0737043 -0.00292782 0)
(0.0751592 -0.00226971 0)
(0.0763664 -0.00163481 0)
(0.0773351 -0.00102709 0)
(0.0780746 -0.000449447 0)
(0.0785943 9.62114e-05 0)
(0.0789032 0.000608839 0)
(0.0790096 0.00108823 0)
(0.078921 0.00153501 0)
(0.0786436 0.00195066 0)
(0.0781822 0.0023375 0)
(0.0775394 0.00269868 0)
(0.0767157 0.00303796 0)
(0.0757089 0.0033594 0)
(0.0745139 0.00366689 0)
(0.0731224 0.00396352 0)
(0.0715236 0.00425093 0)
(0.0697042 0.00452847 0)
(0.0676495 0.00479322 0)
(0.0653444 0.00503932 0)
(0.0627747 0.0052582 0)
(0.0599297 0.00543901 0)
(0.0568056 0.00556569 0)
(0.0534044 0.00561992 0)
(0.0497412 0.00558141 0)
(0.0458518 0.00542881 0)
(0.0417759 0.00514728 0)
(0.0375552 0.00472313 0)
(0.0332836 0.00417986 0)
(0.0291285 0.00359081 0)
(0.0252524 0.0029649 0)
(0.0217607 0.00227677 0)
(0.0187265 0.00166212 0)
(0.0161772 0.00130157 0)
(0.0141095 0.00113007 0)
(0.0125438 0.000958663 0)
(0.0114285 0.000739231 0)
(0.0106017 0.000487815 0)
(0.00994753 0.000193819 0)
(0.00945158 -0.000111913 0)
(0.00911962 -0.000391067 0)
(0.00896426 -0.000648079 0)
(0.00898458 -0.000889313 0)
(0.00915662 -0.00110293 0)
(0.00944311 -0.00125935 0)
(0.00980921 -0.00132118 0)
(0.0102038 -0.00125787 0)
(-6.80144e-05 -3.08695e-05 0)
(-0.000268477 6.22374e-05 0)
(-0.000643316 0.000262064 0)
(-0.00102051 0.000436316 0)
(-0.00143675 0.00066544 0)
(-0.00189294 0.000815759 0)
(-0.0023459 0.000948911 0)
(-0.00283987 0.000991825 0)
(-0.00330838 0.00100602 0)
(-0.00380199 0.000973144 0)
(-0.00426567 0.000942514 0)
(-0.00474506 0.000909274 0)
(-0.00520117 0.000894993 0)
(-0.00566864 0.000888675 0)
(-0.00612048 0.000893669 0)
(-0.00658147 0.000900035 0)
(-0.00703412 0.000908793 0)
(-0.00749625 0.000916116 0)
(-0.00795688 0.000924655 0)
(-0.00842853 0.000934247 0)
(-0.0089043 0.000948108 0)
(-0.00939298 0.00096786 0)
(-0.00989048 0.000997558 0)
(-0.0104033 0.00104087 0)
(-0.0109293 0.00110362 0)
(-0.0114733 0.00119172 0)
(-0.0120335 0.00131245 0)
(-0.0126122 0.00147252 0)
(-0.0132051 0.00167809 0)
(-0.013809 0.001933 0)
(-0.0144131 0.00223762 0)
(-0.0150051 0.00258794 0)
(-0.015564 0.00297353 0)
(-0.016067 0.00337857 0)
(-0.0164833 0.00377922 0)
(-0.0167823 0.00414739 0)
(-0.016929 0.00444821 0)
(-0.0168918 0.0046471 0)
(-0.016641 0.00470878 0)
(-0.0161546 0.00460642 0)
(-0.015419 0.00432214 0)
(-0.0144299 0.00385257 0)
(-0.0131916 0.00320784 0)
(-0.0117132 0.00240824 0)
(-0.0100054 0.00148226 0)
(-0.0080781 0.000457915 0)
(-0.00593806 -0.000635989 0)
(-0.00358697 -0.00177744 0)
(-0.00102495 -0.00294627 0)
(0.00175208 -0.00412788 0)
(0.00474722 -0.00530844 0)
(0.00796381 -0.00647577 0)
(0.0114013 -0.00761627 0)
(0.0150556 -0.00871546 0)
(0.0189161 -0.00975652 0)
(0.0229666 -0.0107216 0)
(0.0271837 -0.0115915 0)
(0.0315379 -0.0123477 0)
(0.0359941 -0.0129728 0)
(0.0405127 -0.0134523 0)
(0.0450513 -0.0137752 0)
(0.049566 -0.013935 0)
(0.0540134 -0.01393 0)
(0.0583519 -0.0137636 0)
(0.0625431 -0.0134437 0)
(0.0665532 -0.0129824 0)
(0.0703538 -0.0123949 0)
(0.0739218 -0.0116988 0)
(0.0772404 -0.0109133 0)
(0.080298 -0.0100579 0)
(0.0830884 -0.00915159 0)
(0.0856102 -0.00821253 0)
(0.0878657 -0.00725705 0)
(0.0898604 -0.00629953 0)
(0.0916025 -0.00535217 0)
(0.0931016 -0.00442495 0)
(0.0943689 -0.00352578 0)
(0.0954159 -0.00266061 0)
(0.0962541 -0.00183374 0)
(0.0968951 -0.00104796 0)
(0.0973499 -0.00030481 0)
(0.097629 0.000395316 0)
(0.0977417 0.00105312 0)
(0.0976967 0.00167039 0)
(0.0975012 0.00225011 0)
(0.0971607 0.00279646 0)
(0.0966789 0.00331484 0)
(0.0960567 0.00381164 0)
(0.095292 0.0042939 0)
(0.0943794 0.00476872 0)
(0.0933096 0.0052424 0)
(0.0920699 0.00571963 0)
(0.0906442 0.00620248 0)
(0.0890137 0.0066898 0)
(0.0871582 0.00717665 0)
(0.0850568 0.00765398 0)
(0.0826901 0.00810933 0)
(0.0800412 0.00852578 0)
(0.0770952 0.00888293 0)
(0.0738418 0.00916001 0)
(0.0702733 0.00933119 0)
(0.0663861 0.00936986 0)
(0.0621855 0.00926112 0)
(0.0576779 0.00899338 0)
(0.052906 0.00856229 0)
(0.0479575 0.00795886 0)
(0.042896 0.00714543 0)
(0.0378074 0.0061565 0)
(0.0328886 0.005106 0)
(0.0283767 0.00400494 0)
(0.0244377 0.00289156 0)
(0.0211244 0.0020057 0)
(0.0184386 0.00145475 0)
(0.0163981 0.00105837 0)
(0.0149487 0.000654994 0)
(0.0139059 0.000205374 0)
(0.0131098 -0.00028355 0)
(0.0124986 -0.000750772 0)
(0.0120623 -0.00113319 0)
(0.0117983 -0.00139989 0)
(0.0116959 -0.00153089 0)
(0.0117088 -0.00149053 0)
(-0.000104004 0.000395304 0)
(-0.000495607 0.000652173 0)
(-0.00109863 0.00094443 0)
(-0.00168498 0.00104957 0)
(-0.00226999 0.00127918 0)
(-0.00285086 0.00137422 0)
(-0.0033871 0.00149902 0)
(-0.00393435 0.00151082 0)
(-0.00443834 0.00151699 0)
(-0.00495766 0.00146771 0)
(-0.00544283 0.00143155 0)
(-0.00593797 0.00138935 0)
(-0.00640309 0.00137038 0)
(-0.00686927 0.00135789 0)
(-0.00730899 0.00135945 0)
(-0.00774575 0.00136321 0)
(-0.00816242 0.00137215 0)
(-0.00857588 0.001381 0)
(-0.0089743 0.00139258 0)
(-0.00936777 0.00140526 0)
(-0.00974643 0.00142181 0)
(-0.0101146 0.0014426 0)
(-0.0104629 0.00147111 0)
(-0.0107911 0.00150995 0)
(-0.0110894 0.0015643 0)
(-0.0113539 0.00163907 0)
(-0.0115735 0.00174087 0)
(-0.0117412 0.00187531 0)
(-0.0118442 0.00204759 0)
(-0.0118725 0.00225985 0)
(-0.0118107 0.0025104 0)
(-0.0116458 0.00279203 0)
(-0.0113593 0.00309035 0)
(-0.0109358 0.00338498 0)
(-0.0103549 0.00364773 0)
(-0.00960151 0.00384829 0)
(-0.00865828 0.00395212 0)
(-0.00751581 0.00393002 0)
(-0.00616753 0.0037546 0)
(-0.00461517 0.0034106 0)
(-0.00286624 0.0028897 0)
(-0.000931455 0.00219714 0)
(0.00117493 0.00134578 0)
(0.00344349 0.000356556 0)
(0.00586604 -0.000747834 0)
(0.00844256 -0.00194205 0)
(0.0111774 -0.0032076 0)
(0.0140787 -0.00452416 0)
(0.0171576 -0.00587707 0)
(0.0204249 -0.0072515 0)
(0.0238889 -0.00863305 0)
(0.0275536 -0.0100059 0)
(0.0314164 -0.0113512 0)
(0.0354676 -0.012648 0)
(0.0396896 -0.013872 0)
(0.0440568 -0.0149979 0)
(0.0485371 -0.0159995 0)
(0.0530921 -0.0168522 0)
(0.0576793 -0.0175338 0)
(0.062254 -0.0180266 0)
(0.0667709 -0.0183183 0)
(0.071186 -0.0184027 0)
(0.0754585 -0.0182802 0)
(0.0795522 -0.0179577 0)
(0.0834364 -0.0174482 0)
(0.0870862 -0.0167694 0)
(0.0904836 -0.0159428 0)
(0.0936165 -0.0149923 0)
(0.0964791 -0.0139429 0)
(0.0990706 -0.0128194 0)
(0.101395 -0.0116455 0)
(0.10346 -0.010443 0)
(0.105277 -0.00923132 0)
(0.106857 -0.00802701 0)
(0.108214 -0.00684385 0)
(0.109364 -0.00569281 0)
(0.110319 -0.00458221 0)
(0.111094 -0.00351803 0)
(0.111702 -0.00250422 0)
(0.112154 -0.00154307 0)
(0.112462 -0.000635396 0)
(0.112635 0.000219204 0)
(0.112684 0.00102235 0)
(0.112615 0.00177695 0)
(0.112436 0.00248734 0)
(0.112153 0.00315953 0)
(0.111771 0.00380124 0)
(0.11129 0.00442183 0)
(0.110709 0.00503187 0)
(0.110024 0.00564238 0)
(0.109224 0.00626378 0)
(0.108298 0.00690465 0)
(0.107227 0.00757043 0)
(0.105991 0.00826248 0)
(0.104568 0.00897715 0)
(0.102932 0.00970549 0)
(0.10106 0.0104333 0)
(0.0989286 0.0111406 0)
(0.0965159 0.0118035 0)
(0.0938028 0.0123941 0)
(0.0907747 0.0128832 0)
(0.087418 0.013242 0)
(0.0837243 0.0134455 0)
(0.0796952 0.0134759 0)
(0.0753403 0.0133219 0)
(0.0706855 0.0129726 0)
(0.0657523 0.0124093 0)
(0.0605495 0.011638 0)
(0.0551373 0.0106971 0)
(0.049612 0.0095631 0)
(0.0440467 0.00821839 0)
(0.0385709 0.00676297 0)
(0.033448 0.00524341 0)
(0.0289341 0.00369989 0)
(0.0251275 0.002375 0)
(0.0220337 0.00143356 0)
(0.0196685 0.000749096 0)
(0.0179512 0.000156975 0)
(0.0166802 -0.000398301 0)
(0.015672 -0.000888463 0)
(0.0148607 -0.00123101 0)
(0.014233 -0.00133624 0)
(-0.000276436 0.000529515 0)
(-0.00100571 0.00102508 0)
(-0.00192146 0.00142534 0)
(-0.00271771 0.00158497 0)
(-0.00335337 0.00181966 0)
(-0.00395216 0.00192021 0)
(-0.00440276 0.0020305 0)
(-0.00486491 0.00203785 0)
(-0.00523654 0.00203248 0)
(-0.00563287 0.0019769 0)
(-0.0059742 0.00192795 0)
(-0.00632834 0.00187106 0)
(-0.00663748 0.00183171 0)
(-0.00694204 0.00179701 0)
(-0.00720552 0.00177508 0)
(-0.00745504 0.00175608 0)
(-0.00766886 0.00174311 0)
(-0.00786477 0.00173045 0)
(-0.00802818 0.00171997 0)
(-0.00816882 0.00170856 0)
(-0.00827477 0.00169775 0)
(-0.00834913 0.00168629 0)
(-0.00838027 0.00167642 0)
(-0.00836573 0.00166916 0)
(-0.00829265 0.00166844 0)
(-0.00815367 0.00167758 0)
(-0.00793375 0.00170188 0)
(-0.00762147 0.00174533 0)
(-0.00719953 0.0018119 0)
(-0.00665408 0.00190235 0)
(-0.00596673 0.00201449 0)
(-0.0051241 0.00214107 0)
(-0.00410943 0.00226921 0)
(-0.00291386 0.00238123 0)
(-0.001526 0.00245301 0)
(5.4788e-05 0.00245957 0)
(0.00183124 0.0023713 0)
(0.00379488 0.00216457 0)
(0.00593942 0.00181499 0)
(0.00825062 0.00131027 0)
(0.0107174 0.000641735 0)
(0.0133269 -0.000187273 0)
(0.0160717 -0.00116724 0)
(0.0189478 -0.00228471 0)
(0.0219582 -0.0035195 0)
(0.0251098 -0.00485748 0)
(0.0284123 -0.00627643 0)
(0.0318793 -0.00776254 0)
(0.0355192 -0.00929722 0)
(0.0393389 -0.0108639 0)
(0.0433369 -0.0124413 0)
(0.0475055 -0.014007 0)
(0.0518273 -0.0155334 0)
(0.0562776 -0.0169912 0)
(0.0608231 -0.0183478 0)
(0.0654247 -0.0195708 0)
(0.0700383 -0.0206282 0)
(0.0746173 -0.0214914 0)
(0.0791145 -0.0221363 0)
(0.0834843 -0.0225457 0)
(0.0876846 -0.0227093 0)
(0.0916782 -0.0226253 0)
(0.0954342 -0.0222996 0)
(0.0989288 -0.0217455 0)
(0.102145 -0.0209824 0)
(0.105075 -0.0200348 0)
(0.107715 -0.0189306 0)
(0.110071 -0.0176998 0)
(0.112153 -0.0163727 0)
(0.113973 -0.014979 0)
(0.11555 -0.0135462 0)
(0.116903 -0.0120989 0)
(0.11805 -0.0106585 0)
(0.119013 -0.00924237 0)
(0.11981 -0.00786449 0)
(0.120459 -0.0065352 0)
(0.120977 -0.0052618 0)
(0.121378 -0.00404897 0)
(0.121675 -0.00289927 0)
(0.121879 -0.00181358 0)
(0.121998 -0.000791498 0)
(0.122041 0.000168482 0)
(0.122015 0.00106893 0)
(0.121926 0.00191364 0)
(0.121779 0.00270799 0)
(0.121579 0.00345931 0)
(0.121331 0.00417717 0)
(0.121035 0.0048734 0)
(0.12069 0.00556171 0)
(0.120291 0.00625689 0)
(0.119829 0.00697348 0)
(0.119288 0.00772422 0)
(0.118651 0.00851842 0)
(0.117895 0.00936051 0)
(0.116992 0.010249 0)
(0.115917 0.0111761 0)
(0.11464 0.0121277 0)
(0.113137 0.013084 0)
(0.111379 0.0140201 0)
(0.109345 0.0149081 0)
(0.107012 0.0157171 0)
(0.10436 0.0164156 0)
(0.101374 0.0169739 0)
(0.0980418 0.0173652 0)
(0.0943584 0.0175635 0)
(0.0903281 0.0175461 0)
(0.0859601 0.0172908 0)
(0.0812622 0.0167894 0)
(0.0762683 0.0160608 0)
(0.0710305 0.0151029 0)
(0.0655716 0.0139207 0)
(0.0599288 0.0125746 0)
(0.0541882 0.011065 0)
(0.048413 0.00937328 0)
(0.0427016 0.00757166 0)
(0.0373044 0.00569231 0)
(0.0324965 0.00381668 0)
(0.0284013 0.0022358 0)
(0.0250672 0.00113481 0)
(0.0224963 0.000412975 0)
(0.0205793 -9.13705e-05 0)
(0.0190995 -0.000409559 0)
(-0.000294631 0.00173418 0)
(-0.00111375 0.00232832 0)
(-0.00209954 0.00271089 0)
(-0.00294194 0.00249298 0)
(-0.00356574 0.00254593 0)
(-0.00407855 0.00242309 0)
(-0.00439574 0.00242644 0)
(-0.00466416 0.00233839 0)
(-0.00481538 0.00228921 0)
(-0.00495433 0.00219728 0)
(-0.00502274 0.00212612 0)
(-0.00508192 0.00204463 0)
(-0.00508511 0.00198107 0)
(-0.00506898 0.00191887 0)
(-0.00500139 0.00186888 0)
(-0.00490679 0.0018207 0)
(-0.00476452 0.00177849 0)
(-0.00459078 0.00173561 0)
(-0.00437144 0.00169366 0)
(-0.00411599 0.00164814 0)
(-0.00381334 0.00159962 0)
(-0.00346728 0.00154517 0)
(-0.00306732 0.00148561 0)
(-0.00261195 0.00141994 0)
(-0.00208922 0.00135035 0)
(-0.00149222 0.00127805 0)
(-0.000806013 0.00120675 0)
(-1.86236e-05 0.00113886 0)
(0.00088815 0.0010778 0)
(0.00192945 0.00102411 0)
(0.00312497 0.000976862 0)
(0.0044889 0.000930373 0)
(0.00603875 0.000874749 0)
(0.00778237 0.000795431 0)
(0.00973095 0.000672137 0)
(0.0118818 0.000483989 0)
(0.0142379 0.000204959 0)
(0.0167857 -0.000184342 0)
(0.0195213 -0.000706416 0)
(0.0224259 -0.00137117 0)
(0.0254929 -0.00218924 0)
(0.0287079 -0.00315845 0)
(0.0320666 -0.0042757 0)
(0.0355657 -0.00552931 0)
(0.0392049 -0.00690887 0)
(0.0429884 -0.00839383 0)
(0.0469201 -0.00997487 0)
(0.0509971 -0.0116282 0)
(0.0552157 -0.0133337 0)
(0.0595634 -0.0150659 0)
(0.0640213 -0.0167961 0)
(0.0685617 -0.0184925 0)
(0.0731503 -0.0201193 0)
(0.0777458 -0.0216396 0)
(0.0823028 -0.0230149 0)
(0.086773 -0.0242089 0)
(0.091108 -0.0251881 0)
(0.0952609 -0.0259247 0)
(0.0991887 -0.0263976 0)
(0.102854 -0.026594 0)
(0.106228 -0.0265101 0)
(0.109288 -0.0261506 0)
(0.112021 -0.0255294 0)
(0.114425 -0.0246677 0)
(0.116503 -0.0235935 0)
(0.118267 -0.0223391 0)
(0.119736 -0.0209397 0)
(0.120932 -0.0194308 0)
(0.121883 -0.0178468 0)
(0.122618 -0.0162197 0)
(0.123166 -0.0145779 0)
(0.123557 -0.012946 0)
(0.123819 -0.0113444 0)
(0.123978 -0.00978904 0)
(0.124059 -0.00829197 0)
(0.12408 -0.00686132 0)
(0.124059 -0.00550199 0)
(0.124009 -0.00421625 0)
(0.123941 -0.00300437 0)
(0.123861 -0.00186524 0)
(0.123776 -0.000796829 0)
(0.12369 0.000203505 0)
(0.123606 0.00113903 0)
(0.123526 0.00201394 0)
(0.123454 0.00283397 0)
(0.123393 0.00360713 0)
(0.123346 0.00434444 0)
(0.123314 0.0050602 0)
(0.123296 0.00577172 0)
(0.123287 0.00649836 0)
(0.123279 0.00725982 0)
(0.123255 0.00807405 0)
(0.123195 0.00895506 0)
(0.123074 0.009911 0)
(0.122862 0.0109428 0)
(0.122528 0.0120438 0)
(0.122039 0.0131995 0)
(0.121362 0.0143884 0)
(0.120464 0.0155835 0)
(0.119315 0.0167532 0)
(0.117887 0.0178634 0)
(0.116154 0.0188794 0)
(0.114095 0.0197675 0)
(0.111691 0.0204967 0)
(0.108932 0.0210392 0)
(0.105811 0.0213702 0)
(0.102324 0.0214679 0)
(0.0984706 0.0213177 0)
(0.0942596 0.020917 0)
(0.0897162 0.0202549 0)
(0.0848562 0.0193265 0)
(0.079713 0.0181622 0)
(0.0743522 0.016775 0)
(0.0688061 0.0151857 0)
(0.0631127 0.0134607 0)
(0.0573373 0.0116118 0)
(0.0515145 0.00964071 0)
(0.0457366 0.00759854 0)
(0.040276 0.00553009 0)
(0.0354021 0.00361339 0)
(0.031279 0.00216183 0)
(0.0279498 0.00132344 0)
(-0.000808839 0.00184232 0)
(-0.00190431 0.00276426 0)
(-0.00254378 0.00320332 0)
(-0.00302019 0.00301329 0)
(-0.003027 0.00293931 0)
(-0.00306962 0.00273431 0)
(-0.00283067 0.00261633 0)
(-0.00262621 0.00245421 0)
(-0.00227054 0.00232999 0)
(-0.00193758 0.00218694 0)
(-0.0015203 0.00206479 0)
(-0.00110918 0.00193835 0)
(-0.000638252 0.00182762 0)
(-0.000155533 0.00171858 0)
(0.000380069 0.00162047 0)
(0.000941206 0.00152404 0)
(0.00155365 0.00143322 0)
(0.00220129 0.00134145 0)
(0.002901 0.00124997 0)
(0.00364371 0.00115376 0)
(0.0044414 0.00105269 0)
(0.00528998 0.000942865 0)
(0.00619927 0.000823864 0)
(0.0071695 0.000693104 0)
(0.0082106 0.000550863 0)
(0.00932739 0.000396097 0)
(0.0105319 0.000230137 0)
(0.0118339 5.29067e-05 0)
(0.0132487 -0.000134194 0)
(0.0147901 -0.000332235 0)
(0.0164763 -0.00054235 0)
(0.0183217 -0.000769516 0)
(0.0203446 -0.00102069 0)
(0.0225546 -0.0013068 0)
(0.0249665 -0.00164238 0)
(0.0275787 -0.0020431 0)
(0.030401 -0.00252923 0)
(0.0334174 -0.00311601 0)
(0.0366349 -0.00382388 0)
(0.0400257 -0.00466104 0)
(0.0435978 -0.00564154 0)
(0.0473188 -0.00676303 0)
(0.0511976 -0.00802801 0)
(0.0552059 -0.00942696 0)
(0.059346 -0.0109459 0)
(0.0635991 -0.012578 0)
(0.0679471 -0.0142888 0)
(0.0723765 -0.0160619 0)
(0.0768578 -0.017866 0)
(0.0813618 -0.0196713 0)
(0.0858495 -0.0214406 0)
(0.0902784 -0.0231365 0)
(0.0946012 -0.0247175 0)
(0.0987682 -0.0261437 0)
(0.10273 -0.0273753 0)
(0.106439 -0.0283768 0)
(0.109852 -0.0291174 0)
(0.112932 -0.0295742 0)
(0.11565 -0.0297326 0)
(0.117988 -0.0295882 0)
(0.119936 -0.0291469 0)
(0.121494 -0.0284239 0)
(0.122674 -0.0274429 0)
(0.123495 -0.026234 0)
(0.123984 -0.0248321 0)
(0.124174 -0.0232752 0)
(0.124106 -0.0216025 0)
(0.12382 -0.0198526 0)
(0.123361 -0.0180621 0)
(0.122771 -0.0162641 0)
(0.122091 -0.0144869 0)
(0.121359 -0.0127536 0)
(0.120607 -0.0110819 0)
(0.119865 -0.00948426 0)
(0.119156 -0.00796838 0)
(0.118499 -0.00653799 0)
(0.117907 -0.00519366 0)
(0.117391 -0.00393363 0)
(0.116956 -0.00275466 0)
(0.116603 -0.00165284 0)
(0.116334 -0.000624072 0)
(0.116145 0.000335507 0)
(0.116035 0.0012296 0)
(0.116002 0.00206222 0)
(0.116046 0.00283855 0)
(0.116169 0.0035662 0)
(0.116372 0.00425629 0)
(0.11666 0.00492428 0)
(0.117031 0.00558997 0)
(0.117485 0.00627665 0)
(0.118012 0.0070092 0)
(0.118598 0.00781146 0)
(0.119222 0.00870322 0)
(0.119857 0.00969768 0)
(0.120473 0.0107997 0)
(0.121035 0.0120049 0)
(0.121507 0.0133004 0)
(0.121853 0.0146651 0)
(0.122035 0.0160716 0)
(0.122017 0.0174879 0)
(0.121763 0.0188785 0)
(0.12124 0.020206 0)
(0.120413 0.0214329 0)
(0.119255 0.0225227 0)
(0.117738 0.0234403 0)
(0.115845 0.0241535 0)
(0.113561 0.0246341 0)
(0.110878 0.0248605 0)
(0.107798 0.0248223 0)
(0.104333 0.0245098 0)
(0.100492 0.0239207 0)
(0.0962931 0.0230708 0)
(0.0917713 0.0219651 0)
(0.0869488 0.0206149 0)
(0.0818657 0.019055 0)
(0.0765833 0.0173095 0)
(0.0711383 0.0154205 0)
(0.0655662 0.0134564 0)
(0.0599139 0.0114443 0)
(0.0542017 0.00940292 0)
(0.0485886 0.00737493 0)
(0.0433533 0.00550403 0)
(-0.000317699 0.00460975 0)
(-0.0003034 0.00410713 0)
(9.30921e-05 0.00393974 0)
(0.000573968 0.00297935 0)
(0.00129134 0.00264299 0)
(0.00200901 0.00221541 0)
(0.00287015 0.00199713 0)
(0.0037215 0.00176292 0)
(0.0046603 0.00160003 0)
(0.00558735 0.00143194 0)
(0.00656972 0.00129174 0)
(0.00754659 0.00114939 0)
(0.00856592 0.00102018 0)
(0.00959178 0.000889718 0)
(0.0106582 0.000765336 0)
(0.0117443 0.000638573 0)
(0.0128739 0.000512638 0)
(0.0140353 0.000381686 0)
(0.0152457 0.000246593 0)
(0.016499 0.000102753 0)
(0.017808 -5.03214e-05 0)
(0.0191707 -0.000216492 0)
(0.0205972 -0.000396803 0)
(0.0220885 -0.000594332 0)
(0.0236539 -0.000809919 0)
(0.0252974 -0.00104573 0)
(0.0270286 -0.001302 0)
(0.0288552 -0.00158037 0)
(0.0307882 -0.00188098 0)
(0.0328386 -0.00220632 0)
(0.0350189 -0.00255808 0)
(0.0373413 -0.00294175 0)
(0.0398184 -0.00336275 0)
(0.0424599 -0.00383117 0)
(0.0452766 -0.0043574 0)
(0.0482693 -0.00495526 0)
(0.051447 -0.00563906 0)
(0.0547949 -0.0064219 0)
(0.0583244 -0.00731887 0)
(0.0619982 -0.00833543 0)
(0.0658385 -0.00948439 0)
(0.0697802 -0.0107569 0)
(0.073862 -0.0121624 0)
(0.0779951 -0.0136736 0)
(0.0822166 -0.0152981 0)
(0.0864572 -0.0169869 0)
(0.0906991 -0.0187465 0)
(0.094899 -0.0205317 0)
(0.0990199 -0.0223126 0)
(0.103014 -0.0240513 0)
(0.106833 -0.0257069 0)
(0.110427 -0.0272388 0)
(0.113747 -0.0286044 0)
(0.116744 -0.0297644 0)
(0.119376 -0.030682 0)
(0.121607 -0.0313275 0)
(0.123409 -0.0316782 0)
(0.124765 -0.0317212 0)
(0.125666 -0.0314529 0)
(0.126115 -0.0308796 0)
(0.126128 -0.030017 0)
(0.125729 -0.0288896 0)
(0.124954 -0.0275296 0)
(0.123848 -0.0259756 0)
(0.122461 -0.0242706 0)
(0.120847 -0.0224591 0)
(0.119061 -0.0205846 0)
(0.117159 -0.0186869 0)
(0.115195 -0.0168002 0)
(0.113221 -0.0149534 0)
(0.111282 -0.0131692 0)
(0.10942 -0.0114647 0)
(0.107669 -0.00985196 0)
(0.106056 -0.00833767 0)
(0.104604 -0.0069242 0)
(0.103326 -0.00561012 0)
(0.102229 -0.00439107 0)
(0.101317 -0.00326084 0)
(0.100587 -0.00221234 0)
(0.100033 -0.00123862 0)
(0.0996468 -0.000333716 0)
(0.0994198 0.000506889 0)
(0.0993425 0.00128619 0)
(0.0994081 0.00200632 0)
(0.0996124 0.00266998 0)
(0.0999553 0.0032825 0)
(0.100439 0.00385395 0)
(0.101069 0.00440063 0)
(0.101849 0.0049454 0)
(0.10278 0.00551657 0)
(0.103858 0.00614532 0)
(0.105072 0.00686217 0)
(0.106402 0.00769317 0)
(0.107822 0.0086567 0)
(0.1093 0.00976136 0)
(0.110803 0.0110052 0)
(0.112294 0.0123765 0)
(0.113736 0.0138548 0)
(0.115091 0.0154128 0)
(0.116321 0.0170182 0)
(0.117387 0.0186351 0)
(0.118248 0.0202252 0)
(0.118864 0.0217497 0)
(0.119195 0.0231693 0)
(0.119203 0.0244461 0)
(0.118852 0.0255438 0)
(0.118112 0.0264293 0)
(0.116959 0.0270738 0)
(0.115376 0.0274558 0)
(0.113357 0.0275568 0)
(0.110901 0.0273656 0)
(0.108021 0.026886 0)
(0.104741 0.0261224 0)
(0.101081 0.0250901 0)
(0.0970756 0.0238196 0)
(0.0927593 0.0223318 0)
(0.0881681 0.0206578 0)
(0.0833413 0.0188377 0)
(0.0783453 0.0169103 0)
(0.0732143 0.0149394 0)
(0.0679943 0.0129885 0)
(0.0627186 0.0110995 0)
(0.00239499 0.00219942 0)
(0.00461025 0.00221926 0)
(0.0081655 0.00224734 0)
(0.010272 0.00176894 0)
(0.0125995 0.00148999 0)
(0.0143903 0.00114775 0)
(0.0162371 0.000912906 0)
(0.0178618 0.000670581 0)
(0.0195074 0.000479721 0)
(0.0210486 0.000288264 0)
(0.0226028 0.000121074 0)
(0.0241065 -4.70321e-05 0)
(0.0256247 -0.000204374 0)
(0.0271239 -0.000364377 0)
(0.0286438 -0.000521613 0)
(0.0301668 -0.000684182 0)
(0.0317189 -0.000850008 0)
(0.0332915 -0.00102467 0)
(0.0349029 -0.00120806 0)
(0.0365495 -0.00140452 0)
(0.0382448 -0.00161512 0)
(0.0399886 -0.00184354 0)
(0.0417913 -0.00209138 0)
(0.0436549 -0.00236174 0)
(0.0455878 -0.00265622 0)
(0.0475939 -0.00297733 0)
(0.0496808 -0.00332639 0)
(0.0518544 -0.00370561 0)
(0.0541219 -0.00411635 0)
(0.0564915 -0.00456146 0)
(0.0589694 -0.00504333 0)
(0.0615654 -0.00556704 0)
(0.0642834 -0.00613713 0)
(0.0671326 -0.00676219 0)
(0.0701117 -0.00744919 0)